G2.5ncore-PETIM in water
40737
    1aaa     N1    1   2.134   1.342   5.805  0.2806  0.2147  0.1249
    1aaa     C1    2   2.174   1.272   5.680  0.2621  0.2694  0.6378
    1aaa     H1    3   2.112   1.308   5.597 -0.1593  2.0125  1.6496
    1aaa     H2    4   2.283   1.282   5.666  0.0628  1.2133 -0.3386
    1aaa     C2    5   2.169   1.487   5.807  0.3877  0.0715 -0.2386
    1aaa     H3    6   2.277   1.506   5.809  0.1685  1.4106  0.6508
    1aaa     H4    7   2.139   1.539   5.715  0.9443  1.3272  0.2705
    1aaa     C3    8   2.165   1.272   5.936 -0.5035  0.4005 -0.2033
    1aaa     H5    9   2.117   1.333   6.014  1.7396  1.8331  0.1407
    1aaa     H6   10   2.120   1.172   5.946  1.5557 -0.6202 -0.6093
    1aaa     C4   11   2.318   1.248   5.965 -0.6757  1.3260 -0.0864
    1aaa     H7   12   2.364   1.213   5.872  0.3563 -0.9021  1.1756
    1aaa     H8   13   2.371   1.342   5.983  0.4150  1.1325 -2.0497
    1aaa     C5   14   2.167   1.121   5.694  1.0346  0.6205 -0.2377
    1aaa     H9   15   2.225   1.080   5.778 -1.7542  0.3629  1.7187
    1aaa    H10   16   2.062   1.095   5.716  1.2709  0.7725  1.1509
    1aaa     C6   17   2.110   1.575   5.920 -0.0344  0.3224 -0.3450
    1aaa    H11   18   2.000   1.576   5.914 -0.0781  2.2193  0.1251
    1aaa    H12   19   2.155   1.542   6.014  0.2204 -0.0062 -0.5799
    1aaa     C7   20   2.139   1.728   5.918  0.1763 -0.6347  0.0499
    1aaa    H13   21   2.125   1.780   5.823  0.7241 -0.3586  0.1195
    1aaa    H14   22   2.067   1.768   5.991 -0.6343  1.2955 -1.7059
    1aaa     C8   23   2.338   1.143   6.069 -0.9853  0.1239 -0.0500
    1aaa    H15   24   2.308   1.048   6.023 -0.6349 -0.2031  0.3944
    1aaa    H16   25   2.445   1.143   6.093 -0.5425 -1.1856 -1.8365
    1aaa     C9   26   2.200   1.055   5.559 -1.0091  0.1954 -0.2205
    1aaa    H17   27   2.145   0.961   5.549 -0.6198  0.0208 -0.8015
    1aaa    H18   28   2.167   1.124   5.480  1.5368  1.0051 -0.6730
    2bbb     N1   29   2.667   2.030   6.010  0.3107  0.0337  0.6644
    2bbb     C1   30   2.739   1.961   6.127 -0.2887 -0.7898  0.3235
    2bbb     H1   31   2.771   1.860   6.100 -3.1259 -1.1108 -2.4319
    2bbb     H2   32   2.664   1.956   6.207 -1.7647  1.1545 -0.8280
    2bbb     C2   33   2.743   2.028   5.886 -0.5914 -0.6532  0.7347
    2bbb     H3   34   2.749   1.926   5.846  0.6519  0.5956 -2.6487
    2bbb     H4   35   2.846   2.061   5.905 -0.5047 -1.5735  2.0327
    2bbb     C3   36   2.520   2.013   6.006  0.8645 -0.4212  0.1900
    2bbb     H5   37   2.475   2.089   5.941 -0.6564 -0.0693  1.5956
    2bbb     H6   38   2.474   2.024   6.105 -0.2707 -2.7332  0.0053
    2bbb     C4   39   2.474   1.876   5.944  0.3488  0.8130  0.0438
    2bbb     H7   40   2.509   1.801   6.015  1.9795  0.9166 -0.6155
    2bbb     H8   41   2.534   1.853   5.855 -2.1804 -1.3531 -1.2591
    2bbb     C5   42   2.864   2.044   6.173 -0.2810  0.1393  0.5226
    2bbb     H9   43   2.857   2.150   6.147  1.6928  0.6554  1.8548
    2bbb    H10   44   2.945   2.012   6.106 -0.4896 -1.2399  0.9035
    2bbb     C6   45   2.686   2.113   5.767 -0.1836  0.0165  0.0427
    2bbb    H11   46   2.675   2.220   5.788  0.1694  0.0073  0.2933
    2bbb    H12   47   2.586   2.080   5.737 -0.5173  1.2613 -0.2874
    2bbb     C7   48   2.326   1.879   5.910 -0.4927  0.9245 -0.4682
    2bbb    H13   49   2.305   1.898   5.804  0.6428  0.1749 -0.8453
    2bbb    H14   50   2.275   1.965   5.955  0.0016  1.1539 -0.3333
    2bbb     C8   51   2.780   2.122   5.646 -0.8117  0.5976 -0.0188
    2bbb    H15   52   2.881   2.157   5.672  0.0365 -2.0313  0.5522
    2bbb    H16   53   2.731   2.189   5.574 -0.3242 -1.1276 -2.0635
    2bbb     C9   54   2.905   2.039   6.321  0.3128  0.1082  0.0049
    2bbb    H17   55   2.980   2.115   6.349  0.4044 -0.5369  1.6496
    2bbb    H18   56   2.947   1.942   6.351  0.2499  0.4877  1.4311
    2bbb     O1   57   2.274   1.748   5.954  0.6282  0.4087 -0.0390
    3bbb     N1   58   2.529   1.263   6.525  0.1565 -0.3783 -0.4570
    3bbb     C1   59   2.640   1.277   6.415  0.0001 -0.5550 -0.0563
    3bbb     H1   60   2.599   1.327   6.326  0.8531  1.2364  0.4973
    3bbb     H2   61   2.671   1.175   6.393  1.0519 -0.4012  0.6628
    3bbb     C2   62   2.567   1.173   6.641 -0.6059  0.2307 -0.6173
    3bbb     H3   63   2.658   1.207   6.692  0.4110 -1.8835 -0.9188
    3bbb     H4   64   2.586   1.071   6.603  1.9027  0.2275  0.4316
    3bbb     C3   65   2.402   1.237   6.454  0.0996  0.4801 -0.2500
    3bbb     H5   66   2.375   1.320   6.387  1.9581  1.9717  0.7464
    3bbb     H6   67   2.323   1.227   6.529  0.4620 -1.4827 -0.0737
    3bbb     C4   68   2.412   1.102   6.376  0.1830 -0.2489 -0.2184
    3bbb     H7   69   2.426   1.021   6.448 -1.4989 -0.7704 -0.4458
    3bbb     H8   70   2.492   1.097   6.300  0.0127 -3.0199 -0.3085
    3bbb     C5   71   2.763   1.344   6.479  0.1527  0.6810  0.0488
    3bbb     H9   72   2.825   1.272   6.535  2.8575  1.8594 -1.2282
    3bbb    H10   73   2.749   1.433   6.542 -1.0025  0.3002  0.3488
    3bbb     C6   74   2.456   1.178   6.743  0.0419  0.9114 -0.4613
    3bbb    H11   75   2.357   1.147   6.707  0.0991 -0.4147  0.4290
    3bbb    H12   76   2.451   1.283   6.776 -0.3508  0.9956 -0.7848
    3bbb     C7   77   2.274   1.077   6.305 -0.5148 -0.4601  0.1268
    3bbb    H13   78   2.203   1.087   6.388  1.3786  1.1757  1.6736
    3bbb    H14   79   2.276   0.976   6.264 -1.9953  0.3007 -1.9521
    3bbb     C8   80   2.474   1.093   6.874  0.2350 -0.2156  0.7409
    3bbb    H15   81   2.380   1.102   6.929 -1.4420 -0.9473 -1.8051
    3bbb    H16   82   2.563   1.137   6.921  1.6898  0.5470 -2.4511
    3bbb     C9   83   2.851   1.386   6.357  0.2732  0.6055 -0.2688
    3bbb    H17   84   2.933   1.449   6.392  0.9572 -1.7425  2.7194
    3bbb    H18   85   2.785   1.446   6.293 -2.0409 -0.1240  1.3011
    3bbb     O1   86   2.260   1.171   6.192 -0.7297 -0.2159  0.2241
    4bbb     N1   87   2.762   0.874   5.361 -0.1014 -0.2350 -0.1919
    4bbb     C1   88   2.793   0.769   5.468  0.2517 -0.0381 -0.2544
    4bbb     H1   89   2.755   0.811   5.562  1.1754 -1.3932  0.7636
    4bbb     H2   90   2.900   0.749   5.467  0.0501 -1.7199  2.3606
    4bbb     C2   91   2.844   1.001   5.368 -0.0569 -0.1099 -0.6659
    4bbb     H3   92   2.947   0.965   5.377 -0.8205 -2.0920  1.1498
    4bbb     H4   93   2.814   1.053   5.460 -2.1493 -1.9865 -0.1849
    4bbb     C3   94   2.617   0.901   5.335 -0.6239 -0.1248 -0.1932
    4bbb     H5   95   2.574   0.800   5.328  1.4093 -0.9506 -2.1706
    4bbb     H6   96   2.589   0.957   5.245  1.8981  1.4468 -0.1076
    4bbb     C4   97   2.550   0.979   5.456 -0.2013 -0.7702 -0.3590
    4bbb     H7   98   2.593   1.080   5.455 -1.9638  0.0353  0.0084
    4bbb     H8   99   2.575   0.938   5.554 -2.4895 -0.5968  0.3758
    4bbb     C5  100   2.721   0.631   5.456  0.3343 -0.3554 -0.5990
    4bbb     H9  101   2.737   0.606   5.351  0.8834 -0.1735 -0.5624
    4bbb    H10  102   2.612   0.636   5.473  0.5292  0.0754  0.6211
    4bbb     C6  103   2.834   1.100   5.254  0.5870  1.2270 -0.1846
    4bbb    H11  104   2.855   1.200   5.293  5.5702  0.6791 -0.7867
    4bbb    H12  105   2.730   1.103   5.220 -0.2807 -0.5684  2.0369
    4bbb     C7  106   2.399   0.990   5.437 -0.7081 -0.2601 -0.0950
    4bbb    H13  107   2.359   0.891   5.411 -1.4467 -0.5567  2.0131
    4bbb    H14  108   2.369   1.063   5.360  2.1516  0.4796 -0.6186
    4bbb     C8  109   2.926   1.071   5.132  0.3408  0.6603 -0.2166
    4bbb    H15  110   2.901   0.970   5.097 -0.4472  0.6787  0.2760
    4bbb    H16  111   3.030   1.067   5.168  0.0413  0.6463  0.6825
    4bbb     C9  112   2.793   0.526   5.541  0.0664  0.7845 -0.2767
    4bbb    H17  113   2.901   0.518   5.523  0.1287 -2.0496  0.7832
    4bbb    H18  114   2.755   0.428   5.509 -0.4572  0.5951  0.8836
    4bbb     O1  115   2.345   1.034   5.562 -0.1900 -0.2047  0.0032
    5bbb     N1  116   2.724   1.544   5.518 -0.0138 -1.0335 -0.0438
    5bbb     C1  117   2.816   1.511   5.405  0.5271  0.1614 -0.5045
    5bbb     H1  118   2.804   1.580   5.320  0.5707 -0.7068 -1.2241
    5bbb     H2  119   2.781   1.416   5.364 -1.8054 -0.5059  2.5805
    5bbb     C2  120   2.710   1.449   5.625 -0.5429  0.1731  0.1292
    5bbb     H3  121   2.635   1.490   5.693  0.0645  1.3915  0.0897
    5bbb     H4  122   2.803   1.448   5.683 -0.6261  0.4455  0.2720
    5bbb     C3  123   2.740   1.684   5.572 -0.2990 -0.0928  0.8825
    5bbb     H5  124   2.842   1.703   5.608 -0.1328  3.3576 -0.9575
    5bbb     H6  125   2.680   1.704   5.662  0.6480  0.6234  1.3818
    5bbb     C4  126   2.697   1.796   5.464 -0.3875  0.3178  0.0488
    5bbb     H7  127   2.615   1.758   5.402  0.7080  1.4990 -2.2532
    5bbb     H8  128   2.776   1.792   5.388 -0.3907  1.4351 -0.0205
    5bbb     C5  129   2.964   1.481   5.443  0.2258  0.2243  0.5122
    5bbb     H9  130   2.963   1.383   5.492 -1.9114 -0.6141 -1.0518
    5bbb    H10  131   3.001   1.551   5.519  0.2397  0.7246  0.0508
    5bbb     C6  132   2.646   1.312   5.591  0.1578 -0.2640  0.5191
    5bbb    H11  133   2.693   1.273   5.500  1.0519 -0.5390  1.0870
    5bbb    H12  134   2.539   1.321   5.571  0.2887 -0.0389 -0.1098
    5bbb     C7  135   2.676   1.938   5.518  0.1112 -0.4764  0.4536
    5bbb    H13  136   2.583   1.943   5.576 -0.9722 -0.3057 -1.2236
    5bbb    H14  137   2.662   2.006   5.433 -0.7496 -2.5906 -1.1991
    5bbb     C8  138   2.662   1.214   5.706 -0.7986 -0.2898  0.3963
    5bbb    H15  139   2.595   1.127   5.699 -0.5157 -0.5182  0.4779
    5bbb    H16  140   2.625   1.271   5.792 -2.2403 -2.0470  1.0195
    5bbb     C9  141   3.058   1.475   5.320 -0.3968  0.4597 -0.4513
    5bbb    H17  142   3.076   1.575   5.277  1.5367  0.6384  0.6592
    5bbb    H18  143   3.029   1.416   5.232  0.5664  1.8046 -1.7225
    5bbb     O1  144   2.789   1.988   5.590 -0.5993 -0.1015  0.0534
    6bbb     N1  145   2.541   1.740   6.553  0.0809 -0.5318 -0.1693
    6bbb     C1  146   2.410   1.720   6.622 -0.5439 -0.2269 -0.8235
    6bbb     H1  147   2.326   1.768   6.570 -1.5531  0.1934  1.0945
    6bbb     H2  148   2.423   1.769   6.719 -0.3460 -1.5517 -0.1549
    6bbb     C2  149   2.570   1.653   6.435 -0.2893  0.1069 -0.3820
    6bbb     H3  150   2.561   1.548   6.466 -2.9263  0.2646 -0.4186
    6bbb     H4  151   2.674   1.659   6.400  0.6493 -1.8907  1.7868
    6bbb     C3  152   2.589   1.879   6.539  0.3023  0.3242  0.3540
    6bbb     H5  153   2.553   1.936   6.626  0.7321 -2.5326  2.5286
    6bbb     H6  154   2.543   1.913   6.445  1.2234 -1.6143 -0.8630
    6bbb     C4  155   2.744   1.885   6.535 -0.3252 -0.3268  0.2469
    6bbb     H7  156   2.782   1.831   6.447 -0.9448 -2.1505  1.0529
    6bbb     H8  157   2.782   1.847   6.631  0.1714 -0.4572  0.0042
    6bbb     C5  158   2.377   1.577   6.662 -0.2788 -0.2217  0.0197
    6bbb     H9  159   2.463   1.535   6.714 -0.8612  1.3450  2.4534
    6bbb    H10  160   2.360   1.521   6.569  2.2856  1.5775 -1.6677
    6bbb     C6  161   2.475   1.665   6.319 -0.7378 -0.2521 -0.1150
    6bbb    H11  162   2.456   1.769   6.290 -0.0847  0.2098  1.0778
    6bbb    H12  163   2.375   1.626   6.343 -1.8866  1.0334 -2.4414
    6bbb     C7  164   2.797   2.033   6.533  0.2174 -0.2882 -0.1422
    6bbb    H13  165   2.903   2.038   6.560 -0.0005 -0.3572  0.7673
    6bbb    H14  166   2.736   2.097   6.598  0.0034  1.3320 -1.8784
    6bbb     C8  167   2.514   1.584   6.194  0.3590 -0.0604 -0.5114
    6bbb    H15  168   2.430   1.586   6.122 -0.1494 -1.5291  0.0009
    6bbb    H16  169   2.522   1.480   6.229 -1.2450  0.2616  0.9636
    6bbb     C9  170   2.253   1.574   6.757 -0.7372  0.4385  0.2325
    6bbb    H17  171   2.167   1.617   6.705 -0.8626 -2.1089 -1.8336
    6bbb    H18  172   2.278   1.622   6.853  0.2510 -1.6777  1.0900
    6bbb     O1  173   2.785   2.070   6.394 -0.2237 -0.0345  0.4535
    7bbb     N1  174   2.675   0.506   6.878 -0.5507 -0.2961  0.2831
    7bbb     C1  175   2.740   0.498   6.745 -0.2845 -0.1809 -0.1544
    7bbb     H1  176   2.677   0.544   6.667  0.9642  1.3739 -0.2922
    7bbb     H2  177   2.723   0.393   6.718 -1.3823 -0.8071  2.6241
    7bbb     C2  178   2.732   0.410   6.980 -0.1074  0.4426 -0.3675
    7bbb     H3  179   2.692   0.429   7.080  3.4142 -1.9871  1.7274
    7bbb     H4  180   2.841   0.416   6.990  0.0570  0.2433 -1.8342
    7bbb     C3  181   2.669   0.636   6.934  0.1890 -0.2660  0.0008
    7bbb     H5  182   2.762   0.684   6.966  1.4863 -1.0816 -2.2719
    7bbb     H6  183   2.610   0.623   7.026 -1.6201 -0.0531 -1.0758
    7bbb     C4  184   2.578   0.737   6.855 -0.3517  0.2257 -0.2016
    7bbb     H7  185   2.485   0.687   6.825 -0.8556  0.7103  0.5264
    7bbb     H8  186   2.628   0.763   6.761  1.9512 -0.7694  0.6828
    7bbb     C5  187   2.890   0.542   6.741  0.5078 -0.1645 -0.1064
    7bbb     H9  188   2.953   0.481   6.808  2.1294  1.1791 -0.3336
    7bbb    H10  189   2.905   0.645   6.776 -1.5104  0.3562 -0.6655
    7bbb     C6  190   2.704   0.263   6.949 -0.8876  0.6708  0.1179
    7bbb    H11  191   2.621   0.255   6.878  1.0171  0.9213 -2.2479
    7bbb    H12  192   2.684   0.212   7.044  2.0777 -0.4234  0.2397
    7bbb     C7  193   2.547   0.871   6.927  0.0870  0.6723  0.1076
    7bbb    H13  194   2.638   0.920   6.964  0.6867  0.2101 -0.7120
    7bbb    H14  195   2.480   0.871   7.014  0.7990  1.5746  0.6678
    7bbb     C8  196   2.820   0.181   6.876  0.0797 -1.0559 -0.6940
    7bbb    H15  197   2.890   0.147   6.954 -0.3589 -0.0117  0.1974
    7bbb    H16  198   2.860   0.259   6.811 -0.6382 -0.0258  0.0571
    7bbb     C9  199   2.963   0.524   6.602  0.0921 -0.0108 -0.8100
    7bbb    H17  200   3.072   0.539   6.605 -0.0250  1.1942 -1.4909
    7bbb    H18  201   2.941   0.604   6.529 -0.2673  0.3414 -0.3236
    7bbb     O1  202   2.484   0.953   6.830  0.2768  0.5961 -0.5580
    8bbb     N1  203   2.974   0.851   6.358 -0.1552 -0.4574 -0.4477
    8bbb     C1  204   2.990   0.887   6.505 -0.1252  0.7446  0.5665
    8bbb     H1  205   3.068   0.963   6.523  0.2448  0.2856  0.9280
    8bbb     H2  206   3.022   0.796   6.557 -1.6185 -0.6580 -0.8563
    8bbb     C2  207   3.090   0.773   6.317  0.2536  0.6263 -0.9172
    8bbb     H3  208   3.124   0.707   6.397  1.3885  0.8508 -1.1961
    8bbb     H4  209   3.180   0.832   6.295  1.7718 -1.2731 -0.1193
    8bbb     C3  210   2.944   0.967   6.273 -0.6449  0.3989 -0.3775
    8bbb     H5  211   2.853   1.011   6.314  0.0294  0.9529  0.5655
    8bbb     H6  212   2.927   0.935   6.170 -0.7445 -0.8570  0.0126
    8bbb     C4  213   3.049   1.085   6.262 -0.2632  0.1358  0.5497
    8bbb     H7  214   3.058   1.114   6.157 -1.7225  0.7909  0.5750
    8bbb     H8  215   3.150   1.056   6.292 -0.7402 -0.6921  1.4234
    8bbb     C5  216   2.862   0.938   6.570  0.5555 -0.3293  0.2780
    8bbb     H9  217   2.783   0.862   6.578  0.7946 -0.4254  2.2504
    8bbb    H10  218   2.831   1.025   6.512 -0.3038 -0.3591  0.6799
    8bbb     C6  219   3.060   0.694   6.188 -0.5306 -0.1574  0.3555
    8bbb    H11  220   3.033   0.753   6.100 -0.7822 -0.0601  0.4990
    8bbb    H12  221   2.966   0.638   6.197 -1.3340  1.4222  2.5229
    8bbb     C7  222   3.010   1.204   6.353  0.2194 -0.1140  0.1093
    8bbb    H13  223   3.092   1.276   6.366  1.6522 -2.0366  2.7637
    8bbb    H14  224   2.992   1.171   6.456  1.7731 -2.2719 -0.2377
    8bbb     C8  225   3.174   0.595   6.154  0.1008 -0.0999  0.7175
    8bbb    H15  226   3.161   0.506   6.216  1.6108 -0.0718  1.0963
    8bbb    H16  227   3.272   0.641   6.171 -0.0917  0.5096  0.2473
    8bbb     C9  228   2.873   0.993   6.717  0.1752 -0.8840  0.2500
    8bbb    H17  229   2.888   0.911   6.789  2.4532 -1.5221 -0.8555
    8bbb    H18  230   2.777   1.041   6.739  1.7118  2.2642  0.5711
    8bbb     O1  231   2.901   1.269   6.289  0.2765  0.3512 -0.2750
    9bbb     N1  232   3.082   1.514   4.852  0.6577 -0.4609  0.3784
    9bbb     C1  233   3.105   1.635   4.939  0.1239 -0.0437 -0.3066
    9bbb     H1  234   3.147   1.721   4.886 -1.6547  0.7881 -0.4362
    9bbb     H2  235   3.161   1.614   5.031 -2.9502 -0.4480  1.6163
    9bbb     C2  236   3.167   1.502   4.734  0.0023 -0.6014 -0.0062
    9bbb     H3  237   3.194   1.601   4.696  1.6822 -1.6036 -1.6202
    9bbb     H4  238   3.119   1.452   4.649 -1.1805 -3.4610  2.1668
    9bbb     C3  239   3.048   1.398   4.922  0.3856  0.9989 -0.5086
    9bbb     H5  240   2.974   1.426   4.998  2.2476  1.5936  1.1917
    9bbb     H6  241   3.141   1.368   4.973 -1.2896  2.6307  4.0973
    9bbb     C4  242   2.985   1.286   4.835  0.3719 -0.6357  0.1064
    9bbb     H7  243   3.045   1.276   4.744  0.1838  1.3618 -0.2947
    9bbb     H8  244   2.894   1.325   4.787  4.1541  2.8279 -5.3959
    9bbb     C5  245   2.976   1.696   4.995  0.1630  0.0215  0.2309
    9bbb     H9  246   2.928   1.626   5.064 -0.3617  1.3428  1.2648
    9bbb    H10  247   2.908   1.713   4.910 -2.6759  0.9691  2.5231
    9bbb     C6  248   3.302   1.437   4.755 -0.0414  0.4133 -0.1988
    9bbb    H11  249   3.353   1.427   4.658  0.8870 -1.6921  0.4359
    9bbb    H12  250   3.287   1.330   4.777 -1.3928  0.6963  0.3257
    9bbb     C7  251   2.981   1.154   4.917  0.5957 -0.5427  0.6146
    9bbb    H13  252   3.080   1.133   4.960  0.6417 -0.2855  0.6343
    9bbb    H14  253   2.953   1.075   4.847  0.8367  1.1881 -1.5425
    9bbb     C8  254   3.402   1.494   4.861 -0.5862  0.3162 -0.1681
    9bbb    H15  255   3.336   1.524   4.943 -2.1305 -1.3145 -0.7495
    9bbb    H16  256   3.441   1.592   4.829 -0.3370 -0.0501 -1.0109
    9bbb     C9  257   3.000   1.819   5.086  0.4160  0.2289  0.5606
    9bbb    H17  258   2.902   1.852   5.122 -0.9985 -1.8789 -1.0915
    9bbb    H18  259   3.033   1.898   5.018 -0.9301 -0.3146 -0.7896
    9bbb     O1  260   2.896   1.163   5.025 -0.0298  0.8063  0.0208
   10bbb     N1  261   2.647   0.657   6.073  0.3814 -0.1591  0.0133
   10bbb     C1  262   2.704   0.760   6.158 -0.2160  0.3957  0.4585
   10bbb     H1  263   2.721   0.856   6.107  0.4300  0.1376  0.1822
   10bbb     H2  264   2.793   0.715   6.204 -0.1270 -1.9891 -1.8632
   10bbb     C2  265   2.503   0.676   6.027 -0.3109 -1.2134  0.6327
   10bbb     H3  266   2.446   0.687   6.120  0.1064  0.7578  0.7096
   10bbb     H4  267   2.458   0.596   5.967 -1.8859  0.3268 -0.3401
   10bbb     C3  268   2.740   0.614   5.967 -0.1020 -0.1755 -0.5454
   10bbb     H5  269   2.840   0.597   6.009 -0.6875 -0.6186  0.7011
   10bbb     H6  270   2.746   0.694   5.892  1.7321 -0.2505 -0.5198
   10bbb     C4  271   2.724   0.476   5.894 -0.4121  0.0233 -0.0017
   10bbb     H7  272   2.623   0.441   5.872  0.5434 -2.9835 -0.0416
   10bbb     H8  273   2.767   0.395   5.954  1.2551 -1.0052 -2.3790
   10bbb     C5  274   2.623   0.808   6.278 -0.1155 -0.7183 -0.1622
   10bbb     H9  275   2.538   0.854   6.226 -0.1670 -2.2020 -1.4599
   10bbb    H10  276   2.674   0.888   6.334 -1.4910 -0.2750  0.4939
   10bbb     C6  277   2.480   0.801   5.941 -0.3595 -0.1037 -0.0209
   10bbb    H11  278   2.547   0.802   5.854  0.1157  0.9891  0.3356
   10bbb    H12  279   2.501   0.896   5.992  0.2134 -0.8470  1.1514
   10bbb     C7  280   2.812   0.464   5.768  0.5393 -0.0224  0.0902
   10bbb    H13  281   2.805   0.359   5.736 -1.2156  0.1744 -0.2836
   10bbb    H14  282   2.910   0.510   5.785 -0.2358  1.5518  0.5123
   10bbb     C8  283   2.337   0.802   5.879  0.1633  0.3295 -0.0420
   10bbb    H15  284   2.330   0.878   5.800 -1.1211  0.3689  0.0849
   10bbb    H16  285   2.258   0.827   5.951  0.3726  0.5430  0.1131
   10bbb     C9  286   2.570   0.702   6.375  0.3021  0.1038  0.2499
   10bbb    H17  287   2.652   0.658   6.432 -1.9205 -1.3389  2.5650
   10bbb    H18  288   2.527   0.623   6.311  0.0427  1.1366 -0.8956
   10bbb     O1  289   2.755   0.552   5.671 -0.3420  0.4007  0.4298
   11ccc     C3  290   2.809   1.040   5.766  0.3724  0.6757  0.2587
   11ccc     H5  291   2.723   1.010   5.827 -2.2161 -1.8517 -4.1674
   11ccc     H6  292   2.805   0.987   5.670 -0.7250  0.6384  0.3115
   11ccc     C2  293   2.945   1.020   5.833  0.6104  0.1751 -0.1317
   11ccc     H3  294   2.944   0.915   5.864 -0.8427 -0.4557 -2.1234
   11ccc     H4  295   2.973   1.079   5.921  0.7356 -1.1853  0.7781
   11ccc     C1  296   3.061   1.034   5.737 -1.0300 -0.3610  0.1190
   11ccc     H1  297   3.091   1.137   5.715 -3.6553  0.4612  0.0742
   11ccc     H2  298   3.034   0.997   5.637 -1.9342  1.7129 -0.4609
   11ccc     N1  299   3.178   0.957   5.783  0.7869  0.2856  0.1146
   11ccc     C4  300   3.254   1.029   5.884  0.5100 -0.2401  0.1076
   11ccc     H7  301   3.193   1.071   5.965 -0.4521 -0.6076 -0.4153
   11ccc     H8  302   3.303   1.118   5.843 -0.2929  0.9954  1.7080
   11ccc     C5  303   3.352   0.936   5.952  0.3037  0.2863 -0.1303
   11ccc     H9  304   3.302   0.844   5.986  0.4655 -0.0836 -0.8847
   11ccc    H10  305   3.427   0.896   5.883 -3.3006 -3.5098 -2.2829
   11ccc     C6  306   3.404   0.997   6.076  0.7230 -0.1507 -0.0528
   11ccc     O2  307   3.499   1.071   6.071 -0.6430 -0.1008 -0.2643
   11ccc     O3  308   3.350   0.986   6.185 -0.7174 -0.3571 -0.1530
   11ccc     C7  309   3.251   0.898   5.674  0.0893 -0.3634  0.2577
   11ccc    H11  310   3.223   0.945   5.579 -0.1667 -0.1013  0.4618
   11ccc    H12  311   3.357   0.916   5.699  0.0822 -1.3537  1.0707
   11ccc     C8  312   3.241   0.751   5.678 -0.1677  0.0779  0.0966
   11ccc    H13  313   3.221   0.722   5.782 -2.8893 -0.1592 -0.4032
   11ccc    H14  314   3.148   0.712   5.635  0.5403  0.0439 -1.4426
   11ccc     C9  315   3.357   0.692   5.607 -0.0004 -0.2976 -0.5836
   11ccc     O4  316   3.457   0.667   5.671  0.5615  0.2211 -0.7370
   11ccc     O5  317   3.355   0.679   5.489 -0.4018  0.5053 -0.0123
   11ccc     O1  318   2.801   1.176   5.731  0.3255  0.6949  0.4769
   12ccc     C3  319   3.277   1.392   5.259  0.0600  0.5712 -1.0205
   12ccc     H5  320   3.227   1.320   5.192  0.7103 -0.3470 -0.5422
   12ccc     H6  321   3.291   1.481   5.196 -2.1302  0.3889 -1.8597
   12ccc     C2  322   3.411   1.337   5.301  0.1805  0.4313 -0.2855
   12ccc     H3  323   3.438   1.388   5.394 -0.1286  1.2308 -0.6301
   12ccc     H4  324   3.482   1.358   5.221  0.6036  0.0230 -0.0237
   12ccc     C1  325   3.398   1.182   5.324 -0.0932  0.2733  0.4824
   12ccc     H1  326   3.366   1.123   5.237  0.0504  1.4108 -0.3632
   12ccc     H2  327   3.321   1.172   5.401  1.2129  0.1276  1.8035
   12ccc     N1  328   3.526   1.123   5.379 -0.2478  0.0157 -0.2882
   12ccc     C4  329   3.527   0.979   5.394 -0.2925  0.4517 -0.1633
   12ccc     H7  330   3.484   0.936   5.303 -2.1022 -0.8073  1.2106
   12ccc     H8  331   3.467   0.955   5.483 -1.9674 -1.0032 -1.6200
   12ccc     C5  332   3.665   0.915   5.393 -0.5387 -0.6527 -1.2785
   12ccc     H9  333   3.714   0.927   5.296  2.8290  0.1222  0.3761
   12ccc    H10  334   3.731   0.968   5.463 -1.9304 -1.7468  0.9932
   12ccc     C6  335   3.677   0.771   5.433 -0.8422 -1.1752  0.4546
   12ccc     O2  336   3.692   0.743   5.548 -0.6925 -0.6724 -0.6294
   12ccc     O3  337   3.620   0.689   5.363  0.3397 -0.4563 -1.3918
   12ccc     C7  338   3.581   1.198   5.494  0.1889 -0.4700 -0.0516
   12ccc    H11  339   3.678   1.151   5.515  0.6207  0.8194  0.9748
   12ccc    H12  340   3.609   1.302   5.471 -1.0231 -0.8025 -3.5796
   12ccc     C8  341   3.508   1.193   5.633  0.2166 -0.1993 -0.2708
   12ccc    H13  342   3.415   1.250   5.625  2.1048  3.1013 -0.6987
   12ccc    H14  343   3.487   1.089   5.659  0.5077 -0.3341 -0.5607
   12ccc     C9  344   3.580   1.262   5.740 -0.0730 -0.3474 -0.7836
   12ccc     O4  345   3.559   1.379   5.761  0.0026  0.1628  0.0047
   12ccc     O5  346   3.656   1.195   5.810 -0.7010 -0.4299 -0.2216
   12ccc     O1  347   3.191   1.415   5.368  0.5989 -0.1135 -0.4645
   13ccc     C3  348   2.671   1.534   6.028  0.1116 -0.3952  0.8247
   13ccc     H5  349   2.674   1.428   6.057 -1.3907 -0.2395  1.6361
   13ccc     H6  350   2.607   1.551   5.941  2.2069  0.5179 -0.6010
   13ccc     C2  351   2.807   1.573   5.967 -0.2789  0.0839 -0.1338
   13ccc     H3  352   2.782   1.666   5.914 -0.7862 -0.3561 -0.6720
   13ccc     H4  353   2.840   1.503   5.889  0.0374 -0.7434  0.7204
   13ccc     C1  354   2.920   1.596   6.069 -0.9226 -0.0934 -0.2938
   13ccc     H1  355   2.929   1.518   6.145 -0.0397  0.4637  0.1921
   13ccc     H2  356   2.899   1.682   6.133  1.5715  1.8154 -1.8548
   13ccc     N1  357   3.057   1.622   6.012  0.2319 -0.4756 -0.2371
   13ccc     C4  358   3.178   1.571   6.085 -0.3412 -0.1075 -0.2921
   13ccc     H7  359   3.186   1.596   6.191  0.8644 -1.4043 -0.0416
   13ccc     H8  360   3.268   1.614   6.041 -1.7500  3.1702 -0.2485
   13ccc     C5  361   3.181   1.423   6.068 -0.5173  0.3024 -0.1726
   13ccc     H9  362   3.117   1.382   6.147 -0.7154  0.5796 -0.1876
   13ccc    H10  363   3.147   1.381   5.973  2.0975  3.8380 -3.0170
   13ccc     C6  364   3.320   1.372   6.104 -0.1276 -0.0991 -0.1504
   13ccc     O2  365   3.407   1.369   6.012 -0.2039  0.2311 -0.5617
   13ccc     O3  366   3.339   1.325   6.212  0.0270  0.0063 -0.1431
   13ccc     C7  367   3.073   1.760   5.965  0.0527 -0.2465  0.1913
   13ccc    H11  368   2.970   1.783   5.936  0.3621 -0.0099 -0.7253
   13ccc    H12  369   3.096   1.823   6.052 -0.7248 -2.8474  2.4352
   13ccc     C8  370   3.167   1.784   5.848  0.1276 -0.4796  0.4916
   13ccc    H13  371   3.159   1.695   5.785 -1.3328 -1.2372  1.6878
   13ccc    H14  372   3.139   1.875   5.794 -0.8211 -1.4704 -0.7357
   13ccc     C9  373   3.309   1.796   5.898  0.4198 -0.6032 -0.3419
   13ccc     O4  374   3.339   1.881   5.984  0.1164 -0.1991  0.1264
   13ccc     O5  375   3.397   1.714   5.869  0.2875 -0.0980  0.5085
   13ccc     O1  376   2.638   1.622   6.138 -0.2863 -0.3810  0.4399
   14ccc     C3  377   2.111   1.409   6.835  0.1908 -0.0704  1.1963
   14ccc     H5  378   2.130   1.455   6.932  0.8936  0.9027  0.6226
   14ccc     H6  379   2.021   1.454   6.791 -0.8832 -2.7165  0.4866
   14ccc     C2  380   2.087   1.255   6.842 -0.1528 -0.2202 -0.4239
   14ccc     H3  381   2.000   1.245   6.908  0.2660 -2.6597 -0.1648
   14ccc     H4  382   2.173   1.209   6.892 -0.3357  0.1578  0.2560
   14ccc     C1  383   2.057   1.193   6.703 -0.7807 -0.3270 -0.7166
   14ccc     H1  384   2.144   1.185   6.636  0.4467 -0.8872  0.8767
   14ccc     H2  385   1.975   1.257   6.669  0.2949  0.9922 -0.9620
   14ccc     N1  386   2.001   1.056   6.716  0.5114  0.1930 -0.3066
   14ccc     C4  387   1.955   1.012   6.581 -0.0974  0.5116  0.6251
   14ccc     H7  388   1.923   0.907   6.579  1.6791 -0.0436 -1.0875
   14ccc     H8  389   2.032   1.000   6.504 -0.8464 -1.2718  0.1022
   14ccc     C5  390   1.834   1.092   6.543  1.3016  1.2770  0.9801
   14ccc     H9  391   1.766   1.104   6.628  2.2709  3.0137  1.5689
   14ccc    H10  392   1.848   1.196   6.513 -0.5012  1.5349  0.9166
   14ccc     C6  393   1.772   1.015   6.426 -0.1013  0.5204 -0.9587
   14ccc     O2  394   1.821   1.013   6.317  0.1126 -0.1555 -0.0667
   14ccc     O3  395   1.660   0.974   6.436  0.0780 -0.0849 -1.0058
   14ccc     C7  396   2.105   0.969   6.771  0.4206  0.4485  0.8893
   14ccc    H11  397   2.200   0.958   6.717  0.1792 -1.0642  0.7092
   14ccc    H12  398   2.132   1.003   6.871  1.5591 -1.0980  1.1515
   14ccc     C8  399   2.045   0.830   6.808  0.1567 -0.1533 -0.2428
   14ccc    H13  400   2.023   0.761   6.726 -3.0984  1.7757 -1.1543
   14ccc    H14  401   2.118   0.786   6.877 -0.0127 -1.5512 -0.9296
   14ccc     C9  402   1.919   0.847   6.886 -0.1474 -0.2510 -0.1782
   14ccc     O4  403   1.814   0.794   6.850 -0.3165 -0.1326  0.1781
   14ccc     O5  404   1.916   0.876   7.013 -0.5668 -0.1474  0.7113
   14ccc     O1  405   2.233   1.431   6.770 -0.0592  0.0114 -0.4264
   15ccc     C3  406   2.853   0.000   6.716 -0.2934  0.2466  0.4613
   15ccc     H5  407   2.882   0.063   6.631 -3.1202  2.8846  1.2491
   15ccc     H6  408   2.937  -0.030   6.779 -0.1568  1.2678  0.7809
   15ccc     C2  409   2.775  -0.119   6.657 -0.3210 -0.4571 -0.1070
   15ccc     H3  410   2.691  -0.152   6.719 -0.4808 -2.1982 -1.1973
   15ccc     H4  411   2.852  -0.196   6.649 -0.2579 -0.4518  0.4505
   15ccc     C1  412   2.714  -0.067   6.520 -0.3988  0.1690  0.1277
   15ccc     H1  413   2.787  -0.031   6.447 -1.7195  1.5340 -0.5727
   15ccc     H2  414   2.670   0.033   6.531 -0.1856  0.3277 -0.4192
   15ccc     N1  415   2.631  -0.168   6.464  0.2782  0.6838 -0.1925
   15ccc     C4  416   2.701  -0.298   6.429  0.6273 -0.2902 -0.0999
   15ccc     H7  417   2.625  -0.355   6.373 -0.1094  2.1551 -1.7733
   15ccc     H8  418   2.732  -0.352   6.519 -0.7025 -2.3207 -0.7685
   15ccc     C5  419   2.826  -0.284   6.340 -0.4110 -0.4571  0.6424
   15ccc     H9  420   2.803  -0.243   6.242 -0.3237 -1.1928  0.3063
   15ccc    H10  421   2.906  -0.219   6.378  1.8460 -2.4563 -0.4461
   15ccc     C6  422   2.874  -0.425   6.313  0.0925  0.7065 -0.3256
   15ccc     O2  423   2.882  -0.465   6.201  0.0250 -0.1432 -0.2068
   15ccc     O3  424   2.876  -0.508   6.402  0.0085 -0.6419 -0.3109
   15ccc     C7  425   2.560  -0.117   6.348 -0.7418 -0.3508  0.3578
   15ccc    H11  426   2.522  -0.017   6.373  0.6071  0.6208 -1.2754
   15ccc    H12  427   2.623  -0.092   6.262 -0.8667  0.7902  0.5759
   15ccc     C8  428   2.441  -0.195   6.297  0.0924  0.0652 -1.0135
   15ccc    H13  429   2.474  -0.279   6.234 -0.4822 -0.0996 -1.0941
   15ccc    H14  430   2.380  -0.225   6.383  0.6654  2.7167  0.4298
   15ccc     C9  431   2.349  -0.111   6.213  0.3711  0.2421 -0.6415
   15ccc     O4  432   2.310  -0.001   6.249  0.5748 -0.2391  0.4809
   15ccc     O5  433   2.303  -0.146   6.105 -0.8393  0.3901  0.3958
   15ccc     O1  434   2.764   0.071   6.803 -0.1457 -0.1176  0.1191
   16ccc     C3  435   2.998   0.371   6.417 -0.0387  0.4127  0.5110
   16ccc     H5  436   2.986   0.451   6.343  1.4933 -0.5263 -0.8355
   16ccc     H6  437   3.105   0.356   6.438  0.6270 -1.8506 -3.3307
   16ccc     C2  438   2.953   0.237   6.356 -0.0313 -0.0145 -0.8673
   16ccc     H3  439   2.843   0.233   6.355 -0.0726  0.4030  0.5805
   16ccc     H4  440   2.990   0.158   6.422  0.1464  1.3515  0.7098
   16ccc     C1  441   3.011   0.219   6.213 -0.6354 -0.0784 -0.1905
   16ccc     H1  442   3.118   0.208   6.237 -0.6786  0.5132  0.3048
   16ccc     H2  443   2.987   0.313   6.163 -0.8225  0.8454  1.5659
   16ccc     N1  444   2.964   0.104   6.130  0.1447  0.1495 -0.1934
   16ccc     C4  445   3.056  -0.007   6.165  0.2335  0.3368 -0.3195
   16ccc     H7  446   3.007  -0.098   6.128 -1.8497  1.8457 -1.4639
   16ccc     H8  447   3.061  -0.018   6.274 -1.5367 -1.6048 -0.3913
   16ccc     C5  448   3.187   0.008   6.090  1.2139  0.6432  0.0288
   16ccc     H9  449   3.172   0.009   5.981 -2.2605 -2.3532  0.2949
   16ccc    H10  450   3.248   0.091   6.127  2.0333  0.1735 -0.2269
   16ccc     C6  451   3.268  -0.109   6.125 -0.1797 -0.6352  0.5823
   16ccc     O2  452   3.250  -0.227   6.091 -0.9269 -0.1397  0.6095
   16ccc     O3  453   3.353  -0.101   6.206 -0.8656  0.1419  0.0256
   16ccc     C7  454   2.819   0.081   6.135  0.8009 -0.3686 -0.1079
   16ccc    H11  455   2.822  -0.015   6.189  2.3211 -1.0632 -1.3470
   16ccc    H12  456   2.763   0.160   6.188  2.3215 -0.6142  1.9727
   16ccc     C8  457   2.756   0.067   6.007 -0.0827 -0.3474 -0.1690
   16ccc    H13  458   2.740   0.161   5.953 -0.6492  0.1906  0.9215
   16ccc    H14  459   2.818   0.001   5.944 -0.7644  0.2096 -1.4658
   16ccc     C9  460   2.629  -0.015   6.029 -0.1908  0.5152 -0.6443
   16ccc     O4  461   2.525   0.047   6.052 -0.6130  0.0305  0.5041
   16ccc     O5  462   2.610  -0.116   5.962  0.1653  0.0301  0.1535
   16ccc     O1  463   2.938   0.394   6.545  0.5882  0.2746 -0.1000
   17ccc     C3  464   3.241   0.458   5.976  0.6270  0.4847  0.2441
   17ccc     H5  465   3.339   0.499   5.949  1.4322 -1.6057 -0.2176
   17ccc     H6  466   3.260   0.372   6.042  0.8523  0.5700  0.2934
   17ccc     C2  467   3.180   0.411   5.836  0.1009  0.2784  0.5687
   17ccc     H3  468   3.176   0.497   5.768 -0.3068 -0.0944  0.1133
   17ccc     H4  469   3.078   0.374   5.850 -0.1918  1.1066  0.6915
   17ccc     C1  470   3.260   0.293   5.774 -0.4752  0.5028 -0.5030
   17ccc     H1  471   3.250   0.206   5.839  1.5194 -0.1613 -1.0160
   17ccc     H2  472   3.362   0.329   5.794 -0.0955 -0.1124 -1.2510
   17ccc     N1  473   3.242   0.260   5.629 -0.5192  0.0818 -0.2276
   17ccc     C4  474   3.107   0.225   5.589 -0.2849 -0.6075  0.3350
   17ccc     H7  475   3.118   0.206   5.482  0.0981  1.6698 -0.0917
   17ccc     H8  476   3.051   0.319   5.599  2.4352  1.2390 -0.6392
   17ccc     C5  477   3.053   0.098   5.653 -0.9578 -0.5577  0.8864
   17ccc     H9  478   3.129   0.020   5.646  0.2367  0.7335 -2.2103
   17ccc    H10  479   3.042   0.108   5.762  0.1260 -1.1652  1.0705
   17ccc     C6  480   2.930   0.052   5.586 -0.1857  0.3827 -0.3712
   17ccc     O2  481   2.893   0.071   5.471  0.2776 -0.1210 -0.1333
   17ccc     O3  482   2.859  -0.023   5.649  0.7589 -0.1818  0.1670
   17ccc     C7  483   3.312   0.347   5.536  0.0174 -0.2284 -0.2015
   17ccc    H11  484   3.252   0.434   5.509 -0.2539 -0.3470  0.0166
   17ccc    H12  485   3.402   0.382   5.588 -0.2452 -0.3174  0.3234
   17ccc     C8  486   3.348   0.292   5.399 -0.4135  0.3164 -0.3244
   17ccc    H13  487   3.421   0.210   5.401  0.5954  1.1683 -0.9572
   17ccc    H14  488   3.261   0.247   5.349 -0.6150 -0.5860  0.7835
   17ccc     C9  489   3.408   0.403   5.322 -0.4349 -0.3804 -0.3130
   17ccc     O4  490   3.515   0.448   5.361 -0.1141 -0.1581  0.2342
   17ccc     O5  491   3.340   0.472   5.248  0.5751  0.1494  0.4585
   17ccc     O1  492   3.151   0.554   6.022 -0.5005  0.0072 -0.2898
   18ccc     C3  493   3.001   1.157   6.842  0.6346  0.7319  0.1218
   18ccc     H5  494   2.926   1.236   6.851  0.7966  0.7958  1.0103
   18ccc     H6  495   2.992   1.090   6.929  1.5530  1.1663  0.5650
   18ccc     C2  496   3.135   1.222   6.838 -0.4937  0.5168  0.0320
   18ccc     H3  497   3.198   1.133   6.838 -0.3774  0.5354  2.3543
   18ccc     H4  498   3.157   1.280   6.929 -0.6342  1.8883 -0.7794
   18ccc     C1  499   3.157   1.316   6.717 -0.0857  0.0143 -0.1763
   18ccc     H1  500   3.089   1.401   6.733  1.2848  1.5526 -2.1332
   18ccc     H2  501   3.135   1.273   6.618 -0.5646  0.2368 -0.1730
   18ccc     N1  502   3.297   1.367   6.700 -0.0401  0.3941  0.4617
   18ccc     C4  503   3.332   1.449   6.815  0.2158  0.0656 -0.2287
   18ccc     H7  504   3.344   1.386   6.903  0.6304  0.2966 -0.1200
   18ccc     H8  505   3.246   1.516   6.822  0.6222  0.4789  0.9438
   18ccc     C5  506   3.457   1.530   6.791  0.4509 -0.3353 -0.1528
   18ccc     H9  507   3.550   1.473   6.785  0.8951  0.4173 -0.5917
   18ccc    H10  508   3.453   1.586   6.697 -0.7575 -0.0748  0.0342
   18ccc     C6  509   3.480   1.622   6.910 -0.1872  0.1210 -0.4176
   18ccc     O2  510   3.527   1.584   7.013 -0.3319 -0.4525 -0.4884
   18ccc     O3  511   3.411   1.719   6.925  0.1144 -0.4005 -0.2125
   18ccc     C7  512   3.393   1.261   6.657 -0.3080 -0.4810 -0.1273
   18ccc    H11  513   3.469   1.323   6.608 -0.4052 -0.8236 -0.7294
   18ccc    H12  514   3.432   1.215   6.748  0.9257  0.0151 -0.3925
   18ccc     C8  515   3.346   1.149   6.561 -0.5987  0.0747  0.7239
   18ccc    H13  516   3.276   1.082   6.613 -1.7991  1.5329  1.0675
   18ccc    H14  517   3.292   1.178   6.470  1.6644  1.4266 -0.2562
   18ccc     C9  518   3.462   1.059   6.529 -0.0417 -0.0366 -0.3779
   18ccc     O4  519   3.472   0.952   6.584  0.1849 -0.2125 -0.4390
   18ccc     O5  520   3.525   1.087   6.428  0.0652 -0.3660  0.2544
   18ccc     O1  521   2.981   1.086   6.718 -0.2585 -0.0226 -0.0389
   19ccc     C3  522   3.606   1.373   4.831 -0.0167 -0.7017  0.1166
   19ccc     H5  523   3.573   1.377   4.726 -0.3648  1.7618  0.2550
   19ccc     H6  524   3.675   1.457   4.849  1.4378 -1.5357 -1.2444
   19ccc     C2  525   3.680   1.240   4.867 -0.1130 -0.3501  0.0108
   19ccc     H3  526   3.717   1.251   4.970 -1.8955  2.2699  0.4631
   19ccc     H4  527   3.770   1.230   4.805 -0.6539 -2.5963 -0.5022
   19ccc     C1  528   3.596   1.111   4.845  0.5481 -0.0908 -0.2977
   19ccc     H1  529   3.532   1.129   4.758 -1.0662 -1.8548  0.4385
   19ccc     H2  530   3.534   1.112   4.936  2.2444 -1.3304  0.9545
   19ccc     N1  531   3.669   0.983   4.846  0.6786  0.7052  0.2826
   19ccc     C4  532   3.582   0.873   4.890 -0.3612  0.2268 -0.0262
   19ccc     H7  533   3.616   0.782   4.839 -2.1684 -0.3514 -0.2702
   19ccc     H8  534   3.480   0.887   4.854 -0.0615  0.6980 -0.7005
   19ccc     C5  535   3.581   0.850   5.040 -0.6299  0.3015  0.1231
   19ccc     H9  536   3.683   0.843   5.080 -0.1194  0.7600 -1.0460
   19ccc    H10  537   3.525   0.926   5.095 -2.1452  0.1036 -1.0640
   19ccc     C6  538   3.508   0.717   5.065 -0.1615  0.2016 -0.4337
   19ccc     O2  539   3.391   0.727   5.099  0.0503  0.3994 -0.0670
   19ccc     O3  540   3.567   0.618   5.095 -0.1389  0.2351  0.3768
   19ccc     C7  541   3.720   0.957   4.710 -0.7164  0.1128 -0.1950
   19ccc    H11  542   3.635   0.945   4.640 -0.1839 -2.1906 -0.5217
   19ccc    H12  543   3.773   1.050   4.687 -2.0440  0.9463 -0.0123
   19ccc     C8  544   3.829   0.847   4.712  0.0013  0.1487 -0.2534
   19ccc    H13  545   3.916   0.896   4.758 -0.1823  1.0436 -0.8140
   19ccc    H14  546   3.811   0.749   4.758  2.1375 -0.5954 -0.9058
   19ccc     C9  547   3.877   0.815   4.577  0.4802 -0.6247  0.3778
   19ccc     O4  548   3.990   0.786   4.558  0.4736  0.4540 -0.3678
   19ccc     O5  549   3.797   0.809   4.485  0.1509  0.3822 -0.0779
   19ccc     O1  550   3.489   1.394   4.909 -0.0329  0.1261  0.0599
   20ccc     C3  551   3.095   1.897   5.292 -0.0805  0.7497  0.1036
   20ccc     H5  552   3.131   1.996   5.263 -0.2829  1.1839  1.2572
   20ccc     H6  553   2.992   1.905   5.329  0.0796  0.2530  0.6712
   20ccc     C2  554   3.184   1.845   5.409  0.4275 -1.0057  0.3591
   20ccc     H3  555   3.135   1.754   5.445 -1.6687 -0.0764  0.0013
   20ccc     H4  556   3.192   1.926   5.483 -1.4959  0.2197 -0.6655
   20ccc     C1  557   3.321   1.819   5.353 -0.4789  0.4763  0.3430
   20ccc     H1  558   3.367   1.918   5.345 -0.6052  0.7422  2.3593
   20ccc     H2  559   3.305   1.771   5.256 -1.4682 -2.0724  1.6736
   20ccc     N1  560   3.418   1.753   5.444 -0.3439 -0.4184  0.5362
   20ccc     C4  561   3.439   1.823   5.569 -0.5184 -0.2809 -0.2019
   20ccc     H7  562   3.496   1.752   5.631 -0.3248 -0.0783 -0.1492
   20ccc     H8  563   3.340   1.833   5.617 -0.3554 -2.0043  0.5773
   20ccc     C5  564   3.522   1.949   5.562 -0.4073  0.1736 -0.5765
   20ccc     H9  565   3.626   1.916   5.545 -1.5499 -2.9104 -2.3445
   20ccc    H10  566   3.499   2.014   5.477  0.7534  0.0399 -1.0243
   20ccc     C6  567   3.525   2.014   5.692 -0.0719  0.2479  0.1855
   20ccc     O2  568   3.596   1.974   5.776  0.3951  0.0464 -0.6090
   20ccc     O3  569   3.476   2.122   5.717 -0.6041  0.6878  0.1988
   20ccc     C7  570   3.542   1.712   5.381 -0.4582 -0.3998 -0.4214
   20ccc    H11  571   3.512   1.656   5.292 -3.5426 -1.8626  1.3733
   20ccc    H12  572   3.596   1.801   5.346 -3.2162  1.5221 -0.1175
   20ccc     C8  573   3.627   1.611   5.471 -0.3046 -0.2988 -0.1469
   20ccc    H13  574   3.679   1.673   5.545 -2.2149  0.6106  0.5091
   20ccc    H14  575   3.563   1.541   5.526  0.1976  1.7189  3.3316
   20ccc     C9  576   3.730   1.537   5.391 -0.5097 -0.7831 -0.4038
   20ccc     O4  577   3.837   1.502   5.432  0.2449 -0.6530  0.0745
   20ccc     O5  578   3.711   1.501   5.271 -0.0438 -0.3966  0.3885
   20ccc     O1  579   3.090   1.790   5.190  0.1036  0.1859 -0.3579
   21ccc     C3  580   2.343   0.672   5.679  0.3263  0.2420  0.3173
   21ccc     H5  581   2.292   0.755   5.629 -2.5632 -0.2522  2.2081
   21ccc     H6  582   2.450   0.690   5.664  0.1048 -0.3461 -2.4181
   21ccc     C2  583   2.305   0.539   5.618 -0.0212  0.3464 -0.0591
   21ccc     H3  584   2.355   0.524   5.522 -0.5035  2.1373 -0.6289
   21ccc     H4  585   2.197   0.535   5.601 -0.3411 -0.2271  1.8467
   21ccc     C1  586   2.342   0.425   5.715 -0.2433  0.4847  0.3453
   21ccc     H1  587   2.291   0.433   5.812 -0.2864 -2.4835  0.6500
   21ccc     H2  588   2.448   0.423   5.745 -0.5603 -0.3064  1.5126
   21ccc     N1  589   2.309   0.285   5.663 -0.1105 -0.2551 -0.0945
   21ccc     C4  590   2.374   0.234   5.545 -1.3087 -0.4511  0.2269
   21ccc     H7  591   2.358   0.302   5.462  0.4694  1.8042  1.6105
   21ccc     H8  592   2.345   0.132   5.515  1.2019 -1.0027 -0.5781
   21ccc     C5  593   2.526   0.223   5.558 -0.2241 -0.6325  0.8389
   21ccc     H9  594   2.570   0.209   5.459  1.6876 -0.0348  1.5665
   21ccc    H10  595   2.567   0.310   5.611 -1.2166 -1.0773  2.3951
   21ccc     C6  596   2.567   0.106   5.636 -0.3826  0.2772 -0.2795
   21ccc     O2  597   2.556   0.104   5.761  0.2007  0.1628  0.3400
   21ccc     O3  598   2.587  -0.002   5.584  0.1721 -0.9182 -0.0230
   21ccc     C7  599   2.170   0.244   5.669 -0.0967  0.1314  0.1083
   21ccc    H11  600   2.109   0.306   5.737  1.6564  2.2795 -0.1790
   21ccc    H12  601   2.129   0.270   5.571 -0.3076  2.9763  0.8661
   21ccc     C8  602   2.155   0.097   5.701 -0.5703  0.9045 -0.5582
   21ccc    H13  603   2.051   0.063   5.685 -1.1687  1.3034  2.0576
   21ccc    H14  604   2.211   0.026   5.639 -0.9123  1.0871 -1.0868
   21ccc     C9  605   2.174   0.051   5.843 -0.4681  0.5991 -0.9921
   21ccc     O4  606   2.078   0.013   5.914 -0.1258 -0.1161  0.3025
   21ccc     O5  607   2.284   0.054   5.897 -0.1246 -0.4224 -0.0633
   21ccc     O1  608   2.307   0.675   5.817  0.7934 -0.2126  0.0321
   22ccc     C3  609   2.404   0.671   6.549 -0.1657 -0.0898 -0.0243
   22ccc     H5  610   2.469   0.598   6.599  1.3958  2.0896  1.2831
   22ccc     H6  611   2.367   0.738   6.628 -0.7470 -1.6134  1.0512
   22ccc     C2  612   2.299   0.596   6.475  0.1900  0.1977 -0.1208
   22ccc     H3  613   2.236   0.556   6.556  0.2652 -0.8461 -0.5701
   22ccc     H4  614   2.342   0.501   6.443  0.5620  0.1048  0.6205
   22ccc     C1  615   2.221   0.684   6.383  0.6014 -0.0159  0.2710
   22ccc     H1  616   2.281   0.715   6.296 -2.3371  0.6615 -1.6538
   22ccc     H2  617   2.187   0.767   6.446 -0.9170 -2.1498  2.4631
   22ccc     N1  618   2.102   0.625   6.321 -0.3154  0.5071  0.2155
   22ccc     C4  619   2.115   0.486   6.266  0.0883  0.7823  0.8748
   22ccc     H7  620   2.028   0.454   6.207  0.7194 -2.4998  1.5752
   22ccc     H8  621   2.142   0.420   6.349 -0.9045 -0.7187  0.0480
   22ccc     C5  622   2.218   0.463   6.150  0.0847  0.3802 -0.1294
   22ccc     H9  623   2.202   0.532   6.066  2.6800  1.3935  0.1274
   22ccc    H10  624   2.314   0.502   6.185 -0.6273  0.9543  1.2783
   22ccc     C6  625   2.238   0.326   6.100  0.0544 -0.1031  0.0670
   22ccc     O2  626   2.347   0.303   6.050 -0.2052  0.4476  0.1000
   22ccc     O3  627   2.174   0.232   6.145 -0.2084 -0.1132  0.1374
   22ccc     C7  628   1.980   0.645   6.403 -0.0520  0.4164  0.2626
   22ccc    H11  629   1.986   0.576   6.488  1.1414 -0.0075 -0.1374
   22ccc    H12  630   1.979   0.746   6.446 -1.9991  0.1992  0.8165
   22ccc     C8  631   1.856   0.630   6.318 -0.2806  0.4179 -0.3384
   22ccc    H13  632   1.860   0.693   6.228  1.0127  0.2408 -0.4202
   22ccc    H14  633   1.822   0.529   6.294 -1.7317  0.1515  2.4505
   22ccc     C9  634   1.740   0.677   6.402 -0.4451 -0.2748  0.0641
   22ccc     O4  635   1.639   0.718   6.351  1.0100  0.6487 -0.1055
   22ccc     O5  636   1.736   0.680   6.523  0.4803 -0.2167 -0.2153
   22ccc     O1  637   2.479   0.760   6.461  0.5719  0.3090 -0.6944
   23SOL     OW  638   1.155   5.021   4.717  0.2711  0.4138 -0.5206
   23SOL    HW1  639   1.068   5.028   4.756  0.2395  0.3863 -0.5854
   23SOL    HW2  640   1.143   4.961   4.643  0.3773  0.2821 -0.4323
   24SOL     OW  641   0.683   4.332   0.582 -0.3185 -0.1690 -0.3995
   24SOL    HW1  642   0.686   4.283   0.664 -1.1633  1.8324  0.9029
   24SOL    HW2  643   0.620   4.284   0.528 -0.5697 -0.9263  0.5377
   25SOL     OW  644   5.505   7.274   5.040 -0.0796  0.2729  0.3436
   25SOL    HW1  645   5.490   7.211   4.970 -1.0972 -0.2939  1.0400
   25SOL    HW2  646   5.596   7.300   5.030  0.1127 -0.6612 -0.4853
   26SOL     OW  647   1.903   6.960   2.522  0.0734  0.4402 -0.0012
   26SOL    HW1  648   1.993   6.941   2.499 -0.0240 -0.3158  0.1990
   26SOL    HW2  649   1.871   7.017   2.452  0.6253  0.5146 -0.1967
   27SOL     OW  650   6.887   3.643   2.936 -0.2169 -0.0843  0.3764
   27SOL    HW1  651   6.946   3.621   2.864 -1.0052  0.5141 -0.4719
   27SOL    HW2  652   6.808   3.676   2.893 -1.6476 -1.9351  1.4514
   28SOL     OW  653   2.361   3.155   1.554 -0.2545  0.0187  0.0948
   28SOL    HW1  654   2.414   3.129   1.629  0.3816  2.0862  0.4446
   28SOL    HW2  655   2.396   3.104   1.481 -0.1177 -1.1759  0.9783
   29SOL     OW  656   5.229   5.642   5.161  0.2842  0.2505  0.4419
   29SOL    HW1  657   5.151   5.694   5.181 -1.0752 -1.4623 -0.1827
   29SOL    HW2  658   5.197   5.552   5.157  2.3722 -0.5328  0.4553
   30SOL     OW  659   1.842   0.281   0.789 -0.6349 -0.2790 -0.2167
   30SOL    HW1  660   1.890   0.198   0.798 -1.0706 -0.3372  2.3441
   30SOL    HW2  661   1.908   0.349   0.802 -0.7836 -0.3141  0.8065
   31SOL     OW  662   3.924   1.092   0.382  0.0833 -0.2287 -0.4189
   31SOL    HW1  663   3.925   1.024   0.315  3.2131  0.2614 -1.0144
   31SOL    HW2  664   3.996   1.151   0.358 -0.2879  1.3493  1.9987
   32SOL     OW  665   0.992   1.895   5.975 -0.0748  0.5373  0.1135
   32SOL    HW1  666   1.041   1.965   6.018  0.2971  0.0854  0.4238
   32SOL    HW2  667   0.937   1.941   5.911 -0.5106  1.1964  0.9381
   33SOL     OW  668   0.447   2.107   4.229 -0.1466  0.6677 -1.1884
   33SOL    HW1  669   0.480   2.194   4.205  0.4468  1.8998  3.2164
   33SOL    HW2  670   0.518   2.068   4.281 -2.6026  0.2901  2.2118
   34SOL     OW  671   2.473   4.136   6.566 -0.4871 -0.0832  0.4809
   34SOL    HW1  672   2.406   4.150   6.633 -1.2532 -0.8613 -0.1007
   34SOL    HW2  673   2.457   4.205   6.502 -2.2783 -1.6089 -0.8303
   35SOL     OW  674   1.762   1.318   2.255  0.7597  0.0392 -0.6938
   35SOL    HW1  675   1.837   1.275   2.295  0.4054  0.8882  0.9713
   35SOL    HW2  676   1.794   1.405   2.232  0.0389  0.7950  1.0302
   36SOL     OW  677   7.238   2.188   0.536  0.0119  0.3519 -0.0199
   36SOL    HW1  678   7.168   2.145   0.487  0.4031 -0.1278 -0.1606
   36SOL    HW2  679   7.248   2.135   0.615 -0.0787  0.6699  0.2053
   37SOL     OW  680   1.999   1.678   5.262  0.2667  0.3281  0.1151
   37SOL    HW1  681   1.927   1.623   5.294  0.3937  0.8864  1.4360
   37SOL    HW2  682   2.056   1.618   5.215 -0.0491 -0.5077  0.7774
   38SOL     OW  683   4.238   0.689   7.041  0.3355 -0.2397 -0.0276
   38SOL    HW1  684   4.225   0.771   6.993  0.0086  1.7924  3.2352
   38SOL    HW2  685   4.333   0.683   7.052  0.2605  1.6584  2.5786
   39SOL     OW  686   5.874   7.385   0.228  0.2527 -0.3190 -0.5427
   39SOL    HW1  687   5.855   7.479   0.217  0.1531 -0.4904 -2.0833
   39SOL    HW2  688   5.934   7.381   0.302  0.1405  0.9463 -0.3553
   40SOL     OW  689   6.805   1.521   3.462  0.5537  0.1769 -0.4687
   40SOL    HW1  690   6.795   1.571   3.382  1.3807  1.0117 -0.0704
   40SOL    HW2  691   6.898   1.529   3.484  0.4129 -0.3434  0.3768
   41SOL     OW  692   3.122   2.299   4.792  0.3964  0.0860 -0.1060
   41SOL    HW1  693   3.196   2.243   4.769 -0.0952 -0.5513 -0.1507
   41SOL    HW2  694   3.090   2.263   4.874  1.7097  1.9242  1.2958
   42SOL     OW  695   6.181   6.981   0.713  0.6606  0.1859 -0.0380
   42SOL    HW1  696   6.227   6.932   0.645  1.2021 -0.0707  0.5076
   42SOL    HW2  697   6.120   6.918   0.751  1.8671 -0.3128  1.1601
   43SOL     OW  698   4.141   4.681   7.196  0.0453  0.4570  0.1056
   43SOL    HW1  699   4.068   4.699   7.137 -2.1376  0.6614  2.6797
   43SOL    HW2  700   4.144   4.757   7.255  2.1355  0.2820  0.3189
   44SOL     OW  701   3.627   6.855   1.658 -0.1379  0.4446 -0.0074
   44SOL    HW1  702   3.623   6.873   1.565  0.7477  0.2438 -0.0922
   44SOL    HW2  703   3.684   6.923   1.694  1.9681 -1.1764 -0.0998
   45SOL     OW  704   3.290   4.647   7.106  0.1393  0.2615 -0.1689
   45SOL    HW1  705   3.248   4.644   7.021 -0.5366 -2.0762  0.1767
   45SOL    HW2  706   3.279   4.738   7.136 -0.9659  0.7209 -1.8663
   46SOL     OW  707   6.240   4.551   4.561  0.0294  0.0727  0.7538
   46SOL    HW1  708   6.307   4.615   4.583  0.1100  0.1967  0.1713
   46SOL    HW2  709   6.211   4.516   4.645  1.3219 -0.5015  0.9802
   47SOL     OW  710   1.264   5.303   4.711 -0.6872 -0.1094  0.3995
   47SOL    HW1  711   1.211   5.224   4.704  0.8834 -1.4904  2.6514
   47SOL    HW2  712   1.354   5.271   4.716 -0.0053  1.8070  1.4101
   48SOL     OW  713   1.605   2.904   7.215 -0.0058 -0.5574 -0.5120
   48SOL    HW1  714   1.589   2.828   7.271  2.4888  0.0229  1.1533
   48SOL    HW2  715   1.672   2.874   7.153  1.7374  0.4870  0.7927
   49SOL     OW  716   4.767   0.967   0.003  0.5844 -0.1460 -0.5364
   49SOL    HW1  717   4.728   0.924  -0.073  1.9515 -0.0653 -1.3096
   49SOL    HW2  718   4.833   1.026  -0.034  0.7247  0.4846  0.6693
   50SOL     OW  719   2.702   3.401   7.293 -0.4526 -0.3827 -0.2768
   50SOL    HW1  720   2.638   3.337   7.325 -0.5107 -0.3426 -0.3155
   50SOL    HW2  721   2.787   3.357   7.305 -0.4473 -0.2339  0.2584
   51SOL     OW  722   2.202   2.178   4.625  0.3134  0.3926  0.1386
   51SOL    HW1  723   2.293   2.152   4.639  0.3172  0.3998  0.1277
   51SOL    HW2  724   2.154   2.096   4.620  0.1899  0.4004  1.0025
   52SOL     OW  725   0.325   2.361   5.140  0.3570  0.1668  0.1237
   52SOL    HW1  726   0.325   2.294   5.209 -0.6001  0.6997  0.6713
   52SOL    HW2  727   0.233   2.369   5.115  0.5791  0.6482 -0.5650
   53SOL     OW  728   3.463   6.660   1.194  0.2716 -0.0866  0.8249
   53SOL    HW1  729   3.403   6.667   1.268  0.6452 -0.2415  1.1466
   53SOL    HW2  730   3.406   6.653   1.117 -0.1343  2.4131  0.8325
   54SOL     OW  731   2.483   5.403   7.185  0.5096 -0.6135 -0.1838
   54SOL    HW1  732   2.501   5.475   7.245  1.8628 -0.4737 -0.7097
   54SOL    HW2  733   2.398   5.425   7.146  0.7303  0.5137 -0.0687
   55SOL     OW  734   3.565   3.273   3.337 -0.4121 -0.5582 -0.0315
   55SOL    HW1  735   3.529   3.186   3.318 -1.4129 -0.2005  0.1448
   55SOL    HW2  736   3.499   3.334   3.304 -0.0687  0.1223  0.5173
   56SOL     OW  737   5.149   2.621   4.453  0.2034 -0.2343 -0.6505
   56SOL    HW1  738   5.150   2.621   4.357 -1.4186  0.3449 -0.7013
   56SOL    HW2  739   5.178   2.709   4.477 -0.7655  0.0993 -0.6674
   57SOL     OW  740   1.819   7.054   5.148 -0.5763  0.0430  0.4529
   57SOL    HW1  741   1.785   7.143   5.155 -4.9955 -1.1678 -1.7887
   57SOL    HW2  742   1.803   7.015   5.234  3.5789  1.7755  2.2775
   58SOL     OW  743   1.559   3.179   2.992 -0.2004  0.3598  0.5950
   58SOL    HW1  744   1.530   3.230   3.069  0.7514 -0.1159  1.2799
   58SOL    HW2  745   1.625   3.120   3.026  0.3762  0.2679 -0.6453
   59SOL     OW  746   2.756   0.592   0.682 -0.6718 -0.3845 -0.1760
   59SOL    HW1  747   2.679   0.539   0.662 -1.0428 -0.1525  0.5823
   59SOL    HW2  748   2.800   0.604   0.598 -0.8688 -1.4365 -0.4499
   60SOL     OW  749   5.208   3.441   0.644 -0.0417 -0.4056 -0.5143
   60SOL    HW1  750   5.298   3.458   0.618 -0.4580  1.1054 -1.0814
   60SOL    HW2  751   5.156   3.462   0.566 -0.9339 -0.5708  0.0197
   61SOL     OW  752   2.270   3.609   3.162  0.6868  0.0023  0.2517
   61SOL    HW1  753   2.196   3.571   3.211  0.7550  0.0396  0.3828
   61SOL    HW2  754   2.302   3.536   3.108  1.6717 -0.5194  1.4903
   62SOL     OW  755   6.732   7.368   5.739  0.1799  0.3700  0.3613
   62SOL    HW1  756   6.803   7.370   5.674 -0.3196  0.4336 -0.1971
   62SOL    HW2  757   6.663   7.421   5.699 -0.0323  0.6427  1.0789
   63SOL     OW  758   5.337   0.624   0.312 -0.0413 -0.1868 -0.1928
   63SOL    HW1  759   5.403   0.589   0.372 -1.1921 -0.0500  1.2160
   63SOL    HW2  760   5.324   0.715   0.342 -0.8589 -0.2183 -0.4322
   64SOL     OW  761   4.370   0.407   1.181 -0.1732  0.4002  0.2264
   64SOL    HW1  762   4.426   0.412   1.258 -1.0207  0.9483  0.8416
   64SOL    HW2  763   4.345   0.498   1.164  0.8973  0.4239 -1.3971
   65SOL     OW  764   4.282   5.454   2.843 -0.4210  0.0845  0.1101
   65SOL    HW1  765   4.204   5.430   2.892 -0.0799 -0.1893  0.5252
   65SOL    HW2  766   4.350   5.394   2.874  0.3006  1.1933  0.7502
   66SOL     OW  767   2.715   3.806   1.027 -0.2259 -0.8370 -0.4750
   66SOL    HW1  768   2.620   3.806   1.015 -0.0875  0.6046 -1.9126
   66SOL    HW2  769   2.728   3.850   1.111 -0.8095 -0.5484 -0.5297
   67SOL     OW  770   2.890   3.889   0.050  0.4215  0.2062  0.0556
   67SOL    HW1  771   2.811   3.836   0.055  1.6740 -1.6421  1.7119
   67SOL    HW2  772   2.943   3.848  -0.018 -0.0081  1.4750 -1.0943
   68SOL     OW  773   6.965   2.156   5.130  0.4062  0.6693  0.5707
   68SOL    HW1  774   6.989   2.244   5.101  0.1826  0.8699  0.9882
   68SOL    HW2  775   6.999   2.098   5.062 -0.1936  1.1350 -0.1332
   69SOL     OW  776   5.574   6.279   2.826 -0.0675 -0.3950  0.0476
   69SOL    HW1  777   5.548   6.195   2.864  0.2655 -0.0798  1.0176
   69SOL    HW2  778   5.578   6.338   2.901  2.1731 -0.1244 -0.2393
   70SOL     OW  779   5.381   3.139   6.024  0.2826 -0.0886  0.2133
   70SOL    HW1  780   5.317   3.081   5.983 -1.2219  1.2056  0.6454
   70SOL    HW2  781   5.463   3.120   5.979 -0.5117 -1.3771 -0.7569
   71SOL     OW  782   2.389   0.666   4.156 -0.2128 -0.0950  0.0298
   71SOL    HW1  783   2.325   0.598   4.135 -1.8060  1.6214 -0.9163
   71SOL    HW2  784   2.339   0.747   4.157  1.7540  1.1814  0.4139
   72SOL     OW  785   3.544   2.594   1.863  0.7046  0.0439  1.7681
   72SOL    HW1  786   3.472   2.643   1.903  1.4223  2.6721  0.0945
   72SOL    HW2  787   3.614   2.658   1.855  1.7906 -1.3241 -0.4338
   73SOL     OW  788   7.361   4.713   1.538 -0.3798 -0.2571 -0.3816
   73SOL    HW1  789   7.415   4.775   1.588 -0.8095  0.0272 -0.2642
   73SOL    HW2  790   7.414   4.690   1.462 -0.6620  1.1191 -1.0156
   74SOL     OW  791   1.001   6.521   0.028  0.1917  0.1111  0.0195
   74SOL    HW1  792   0.940   6.580  -0.016  0.5686  1.3358  1.0873
   74SOL    HW2  793   1.038   6.573   0.099  0.0782 -1.6031  1.4043
   75SOL     OW  794   1.951   6.404   1.948 -0.4496 -0.1171 -0.0150
   75SOL    HW1  795   1.904   6.479   1.912  0.9163  1.7755  1.9409
   75SOL    HW2  796   1.882   6.348   1.985 -1.3591  2.7945  3.2104
   76SOL     OW  797   7.438   0.755   3.337  0.3685 -0.0128 -0.2619
   76SOL    HW1  798   7.417   0.773   3.245  0.0652 -0.0705 -0.2029
   76SOL    HW2  799   7.463   0.663   3.339 -0.2327 -0.1787 -0.1803
   77SOL     OW  800   7.365   2.134   2.442 -0.3693  0.0886 -0.0610
   77SOL    HW1  801   7.391   2.121   2.351  0.1650 -0.1423  0.1219
   77SOL    HW2  802   7.335   2.225   2.446 -0.8713 -0.0493 -0.5803
   78SOL     OW  803   6.904   4.644   3.337 -0.0321  0.3473  0.0735
   78SOL    HW1  804   6.910   4.738   3.321 -0.7985  0.2536 -0.8477
   78SOL    HW2  805   6.809   4.627   3.337  0.0200 -0.1437  1.9483
   79SOL     OW  806   6.206   0.109   2.110 -0.1443  0.6303  0.3148
   79SOL    HW1  807   6.221   0.051   2.036 -0.3795  1.7526 -0.6468
   79SOL    HW2  808   6.115   0.139   2.100 -0.2425  0.6440  1.1657
   80SOL     OW  809   4.858   0.875   3.266 -0.8471 -0.1928 -0.1801
   80SOL    HW1  810   4.847   0.823   3.186  1.0944 -0.7856 -0.0948
   80SOL    HW2  811   4.768   0.895   3.293 -1.6288 -2.3476 -0.9629
   81SOL     OW  812   3.025   4.688   5.578  0.2550 -0.3384 -0.7915
   81SOL    HW1  813   3.009   4.632   5.503  1.6568 -0.0422 -1.3312
   81SOL    HW2  814   3.120   4.703   5.578  0.0393  1.2672 -0.1328
   82SOL     OW  815   3.848   3.126   5.946 -0.0067 -0.1730 -0.5404
   82SOL    HW1  816   3.925   3.074   5.971  0.2076  0.4885  0.2268
   82SOL    HW2  817   3.806   3.075   5.876  2.6084  0.7023 -2.9632
   83SOL     OW  818   2.275   6.813   4.329 -0.2307  0.1248  0.0775
   83SOL    HW1  819   2.224   6.810   4.409 -0.8297 -0.7719 -0.3209
   83SOL    HW2  820   2.284   6.906   4.309 -2.3760  0.3048 -0.2436
   84SOL     OW  821   1.418   4.207   3.482 -0.6733 -0.4098  0.3724
   84SOL    HW1  822   1.415   4.130   3.425 -0.1738 -0.6592  0.6686
   84SOL    HW2  823   1.496   4.255   3.452 -0.7189 -0.2619  0.4906
   85SOL     OW  824   3.420   5.877   1.050  0.0359 -0.2447 -0.3837
   85SOL    HW1  825   3.384   5.949   0.998  1.2441 -0.3415 -1.3902
   85SOL    HW2  826   3.419   5.911   1.140  2.2331  1.7789 -1.0178
   86SOL     OW  827   1.165   3.960   5.130  0.2408  0.3760  0.6848
   86SOL    HW1  828   1.250   3.928   5.159  0.2286  0.4646  0.8197
   86SOL    HW2  829   1.142   3.904   5.056 -0.4513 -0.9089  1.8287
   87SOL     OW  830   0.275   0.872   6.067  0.0984  0.2788  0.4099
   87SOL    HW1  831   0.258   0.949   6.013 -1.1326 -1.1254 -1.3318
   87SOL    HW2  832   0.211   0.878   6.138 -1.0519  0.1158 -0.5795
   88SOL     OW  833   5.902   6.572   1.923  0.1682 -0.0732 -0.0213
   88SOL    HW1  834   5.979   6.627   1.913 -1.5645  2.3519 -1.0794
   88SOL    HW2  835   5.884   6.574   2.017  1.1203 -0.3267  0.1795
   89SOL     OW  836   2.564   4.793   5.900  0.4546 -0.0506  0.1190
   89SOL    HW1  837   2.469   4.788   5.893  0.5252 -1.1577 -0.1677
   89SOL    HW2  838   2.597   4.740   5.828  1.2730 -0.7689  0.9968
   90SOL     OW  839   1.761   6.324   7.014 -0.2312 -0.6489  0.1806
   90SOL    HW1  840   1.676   6.343   7.051 -0.2538 -1.1515  0.3968
   90SOL    HW2  841   1.762   6.229   7.002 -0.7136 -0.4305 -2.2676
   91SOL     OW  842   0.767   6.372   2.065  0.8993 -0.0159 -0.3325
   91SOL    HW1  843   0.691   6.429   2.077 -1.0501 -2.5620  0.3051
   91SOL    HW2  844   0.755   6.333   1.978 -0.0878 -2.4336  0.7869
   92SOL     OW  845   0.795   6.849   3.550  0.1927  0.2847  0.0339
   92SOL    HW1  846   0.720   6.795   3.576  0.1573 -0.4280 -1.4877
   92SOL    HW2  847   0.757   6.936   3.534 -0.4387 -0.2151 -1.3133
   93SOL     OW  848   5.967   3.176   5.923 -0.1950 -0.4619 -0.7415
   93SOL    HW1  849   5.987   3.147   6.012  0.1558 -1.7846 -1.2404
   93SOL    HW2  850   5.897   3.241   5.935  2.2079  2.1149  0.7925
   94SOL     OW  851   6.475   3.837   1.683  0.0118 -0.3623  0.2587
   94SOL    HW1  852   6.534   3.780   1.634  0.6719  1.1452 -0.7584
   94SOL    HW2  853   6.452   3.786   1.761  0.2246 -2.1797 -0.8096
   95SOL     OW  854   2.547   0.327   3.258  0.1764  0.1889 -0.2788
   95SOL    HW1  855   2.583   0.398   3.205 -1.0733  0.2352 -1.1247
   95SOL    HW2  856   2.474   0.293   3.205 -2.0118  1.1087  1.9933
   96SOL     OW  857   7.251   0.359   6.951 -0.3318  0.3775  0.4488
   96SOL    HW1  858   7.172   0.318   6.988 -0.8274  1.2079  0.3402
   96SOL    HW2  859   7.323   0.319   6.999 -0.6579 -1.7343 -0.6641
   97SOL     OW  860   1.220   3.478   0.204  0.3077  0.0064 -0.1221
   97SOL    HW1  861   1.147   3.460   0.263 -0.4055  0.8464 -0.7151
   97SOL    HW2  862   1.196   3.435   0.122  0.4874  0.2540 -0.3071
   98SOL     OW  863   5.706   1.525   3.276 -0.0075 -0.8312 -0.4131
   98SOL    HW1  864   5.649   1.527   3.353 -0.2331 -1.1498 -0.5702
   98SOL    HW2  865   5.720   1.617   3.254 -0.4831 -0.7503 -0.3833
   99SOL     OW  866   0.340   6.706   6.571 -0.7679 -0.0486  0.1352
   99SOL    HW1  867   0.268   6.768   6.556 -0.5547  0.0767 -0.3769
   99SOL    HW2  868   0.418   6.751   6.537 -0.4320 -0.1556  0.7475
  100SOL     OW  869   3.886   0.674   7.069  0.1487 -0.0761 -0.1584
  100SOL    HW1  870   3.936   0.596   7.094 -0.9780 -0.9230 -0.4521
  100SOL    HW2  871   3.808   0.639   7.027 -1.3547  1.1606  1.4894
  101SOL     OW  872   4.533   0.631   6.883 -0.4340 -0.2482  0.1162
  101SOL    HW1  873   4.549   0.724   6.898 -0.4307 -0.5147  1.9276
  101SOL    HW2  874   4.479   0.629   6.804 -0.0003  1.2448 -0.2539
  102SOL     OW  875   3.427   3.934   5.619 -0.1344 -0.7266 -0.7359
  102SOL    HW1  876   3.387   3.950   5.534 -0.2703  0.2429 -0.5046
  102SOL    HW2  877   3.354   3.907   5.675 -0.1116 -0.9696 -0.8209
  103SOL     OW  878   4.586   7.134   4.129  0.6758  0.3886 -0.1652
  103SOL    HW1  879   4.561   7.146   4.221  1.2136 -0.7643  0.1486
  103SOL    HW2  880   4.663   7.189   4.118  1.3912 -0.4506  0.4551
  104SOL     OW  881   4.000   5.269   7.108  0.5252 -0.4485  0.5994
  104SOL    HW1  882   3.973   5.254   7.017  0.9063 -1.4720  0.6459
  104SOL    HW2  883   4.090   5.301   7.102  0.4220 -0.1503  0.6059
  105SOL     OW  884   1.506   3.693   4.377 -0.3696  0.2916  0.0274
  105SOL    HW1  885   1.552   3.679   4.460  3.2308  0.5175 -1.7317
  105SOL    HW2  886   1.500   3.789   4.370  1.4157  0.3859 -0.8825
  106SOL     OW  887   4.116   2.830   7.010 -0.2174  0.4128 -0.0207
  106SOL    HW1  888   4.186   2.792   6.957  0.4986 -0.4117  1.4498
  106SOL    HW2  889   4.073   2.894   6.952 -0.5938 -1.6493 -2.1398
  107SOL     OW  890   6.681   2.808   4.514  0.4008 -0.3494  0.4890
  107SOL    HW1  891   6.751   2.857   4.469  1.1945 -0.3729  1.6586
  107SOL    HW2  892   6.679   2.724   4.469  0.6744 -0.1130  0.0194
  108SOL     OW  893   5.583   0.934   5.778 -0.4493  0.1647 -0.2314
  108SOL    HW1  894   5.554   0.852   5.737 -0.3214 -1.0591  2.0073
  108SOL    HW2  895   5.575   0.999   5.708 -0.6478 -1.7131 -2.0621
  109SOL     OW  896   4.025   2.364   0.864 -0.6606 -0.0546 -0.3503
  109SOL    HW1  897   4.102   2.421   0.864  0.4640 -1.4283 -2.8265
  109SOL    HW2  898   3.970   2.398   0.935  1.7126  1.6310  0.8047
  110SOL     OW  899   5.145   1.023   6.385  0.2231 -0.0641  0.1339
  110SOL    HW1  900   5.232   0.987   6.401  0.2615 -0.5529 -1.0371
  110SOL    HW2  901   5.135   1.021   6.290 -1.9188 -2.1332  0.2990
  111SOL     OW  902   0.846   2.999   5.654 -0.2132 -0.6374 -0.0284
  111SOL    HW1  903   0.881   3.038   5.574  0.5468 -1.1488  0.0396
  111SOL    HW2  904   0.765   2.956   5.626 -0.5936  0.2212 -0.2706
  112SOL     OW  905   1.749   4.844   7.083  0.5393  0.2901 -0.1345
  112SOL    HW1  906   1.809   4.885   7.145 -0.5536  2.2872 -0.3174
  112SOL    HW2  907   1.662   4.875   7.110 -0.4139 -2.0954 -0.1947
  113SOL     OW  908   2.175   0.939   3.281  0.4010  0.5500 -0.3776
  113SOL    HW1  909   2.263   0.960   3.311  0.4049 -1.2022  1.0219
  113SOL    HW2  910   2.122   0.937   3.361 -0.4131 -0.6095 -0.9032
  114SOL     OW  911   5.643   1.495   5.370  0.1361 -0.0129  0.3313
  114SOL    HW1  912   5.613   1.557   5.305  1.6490  2.0760  1.4915
  114SOL    HW2  913   5.574   1.495   5.437  0.3428  0.7997  0.5496
  115SOL     OW  914   4.409   6.265   3.409  0.0637  0.1258 -0.4218
  115SOL    HW1  915   4.345   6.258   3.481  0.5626  0.2802  0.0420
  115SOL    HW2  916   4.409   6.359   3.387  0.4117  0.1881 -0.1604
  116SOL     OW  917   4.936   0.702   4.719 -0.0511  0.2537  0.2914
  116SOL    HW1  918   5.019   0.681   4.676  1.0265  3.9006  0.2758
  116SOL    HW2  919   4.879   0.729   4.647  0.2595  1.9930  0.6623
  117SOL     OW  920   1.661   3.654   4.598  0.1975  0.3503  0.3514
  117SOL    HW1  921   1.731   3.692   4.651 -0.6382  0.4046  1.4422
  117SOL    HW2  922   1.705   3.622   4.520  1.3004  1.2549  0.5734
  118SOL     OW  923   7.341   5.351   3.858 -0.5181 -0.2429  0.9267
  118SOL    HW1  924   7.400   5.343   3.933 -0.1038 -0.6400  0.5692
  118SOL    HW2  925   7.331   5.445   3.845  0.6392 -0.1613  0.5319
  119SOL     OW  926   2.994   2.202   1.306 -0.0282  0.4920  0.4716
  119SOL    HW1  927   3.059   2.143   1.345  0.7350  1.7956  1.2218
  119SOL    HW2  928   2.913   2.181   1.351  0.2464  0.0592  0.7782
  120SOL     OW  929   1.820   4.491   6.046 -0.7384  0.1570 -0.0759
  120SOL    HW1  930   1.750   4.555   6.036 -0.4331  0.5371  0.2237
  120SOL    HW2  931   1.868   4.519   6.123  0.4973  0.6027 -0.9784
  121SOL     OW  932   4.093   4.385   6.488 -0.3669 -0.4562  0.4071
  121SOL    HW1  933   4.117   4.293   6.479 -2.9289 -1.1361 -0.1217
  121SOL    HW2  934   4.129   4.411   6.573  0.0174 -2.0484  0.7601
  122SOL     OW  935   2.072   4.427   1.715 -0.4358  0.5336  0.4986
  122SOL    HW1  936   2.003   4.485   1.747 -0.1000  1.3217 -0.1745
  122SOL    HW2  937   2.100   4.466   1.633 -1.8120 -1.8676 -1.2174
  123SOL     OW  938   6.322   2.175   3.790  0.1303 -0.0607 -0.1915
  123SOL    HW1  939   6.405   2.160   3.835  0.5397  0.8222 -0.6365
  123SOL    HW2  940   6.300   2.090   3.752  0.6911 -0.3662  0.1437
  124SOL     OW  941   3.597   1.061   2.385  0.0933 -0.1290 -0.0223
  124SOL    HW1  942   3.542   1.124   2.339  0.0961 -0.3365 -0.3158
  124SOL    HW2  943   3.537   0.990   2.410  0.3772 -0.7778 -1.1230
  125SOL     OW  944   6.796   5.128   1.256 -0.6822 -0.1530  0.0731
  125SOL    HW1  945   6.719   5.093   1.212  0.2842  0.2747 -2.0672
  125SOL    HW2  946   6.762   5.200   1.309 -1.6859  0.4011 -1.2730
  126SOL     OW  947   0.065   6.964   6.362 -0.7141  0.2917  0.2289
  126SOL    HW1  948   0.015   7.044   6.345 -1.6697  0.0163  1.5572
  126SOL    HW2  949   0.086   6.968   6.455  2.3911  0.7094 -0.3836
  127SOL     OW  950   0.332   0.029   4.196 -0.1064 -1.0992  0.7133
  127SOL    HW1  951   0.305   0.085   4.268 -0.3736 -0.9791  0.5218
  127SOL    HW2  952   0.291  -0.055   4.214 -1.0508 -0.7747  0.1543
  128SOL     OW  953   5.642   2.949   0.515  0.3775  0.0410 -0.0310
  128SOL    HW1  954   5.612   3.032   0.551  3.2857  0.6094  1.4230
  128SOL    HW2  955   5.668   2.970   0.425  0.2532  0.4889  0.0340
  129SOL     OW  956   2.679   0.905   2.352  0.4959 -0.0133 -0.2289
  129SOL    HW1  957   2.632   0.866   2.278  1.5912 -2.3112  0.1729
  129SOL    HW2  958   2.746   0.960   2.312  0.8966 -1.0049 -0.9669
  130SOL     OW  959   0.380   4.961   1.141 -0.1208  0.3158  0.0612
  130SOL    HW1  960   0.412   4.984   1.054 -1.3495  2.2684  0.0637
  130SOL    HW2  961   0.434   4.887   1.168 -1.2573 -1.9763 -3.3282
  131SOL     OW  962   4.664   4.171   3.200 -0.0762 -0.4245 -0.0725
  131SOL    HW1  963   4.616   4.118   3.136 -1.2756 -1.0275  1.2671
  131SOL    HW2  964   4.598   4.196   3.265  0.9018  1.0041  0.4122
  132SOL     OW  965   2.349   4.366   1.055 -0.2487 -0.0713 -0.6961
  132SOL    HW1  966   2.416   4.376   1.123 -1.5521  3.1808  0.2694
  132SOL    HW2  967   2.269   4.345   1.103 -1.1904  2.2911 -1.1103
  133SOL     OW  968   2.320   4.763   0.534 -0.1959 -0.1914  0.4206
  133SOL    HW1  969   2.370   4.687   0.564  1.3668  0.6300 -0.0034
  133SOL    HW2  970   2.262   4.728   0.466 -0.8270 -1.3091  1.4791
  134SOL     OW  971   3.843   1.468   6.096 -0.3176 -0.0420 -0.4094
  134SOL    HW1  972   3.859   1.507   6.182 -1.1242 -1.0960  0.2294
  134SOL    HW2  973   3.856   1.541   6.035  0.6547  0.6330  0.5542
  135SOL     OW  974   2.048   3.691   5.917 -0.4088 -0.1121  0.4153
  135SOL    HW1  975   2.032   3.765   5.975 -1.3629  0.7663 -0.9180
  135SOL    HW2  976   2.105   3.633   5.968  0.7166  1.7170  1.3591
  136SOL     OW  977   7.385   1.487   5.580  0.6218 -0.1797  0.0569
  136SOL    HW1  978   7.369   1.407   5.530 -0.7488  0.1458 -0.0565
  136SOL    HW2  979   7.298   1.521   5.600  1.1679  0.6527  1.1384
  137SOL     OW  980   4.348   6.833   1.913 -0.4114 -0.1737  0.2559
  137SOL    HW1  981   4.406   6.840   1.838 -0.2019 -2.1535  0.2043
  137SOL    HW2  982   4.407   6.832   1.989 -0.4695 -0.5746  0.2974
  138SOL     OW  983   0.293   0.793   6.470  0.6821 -0.3715 -0.0227
  138SOL    HW1  984   0.244   0.824   6.546 -1.0732  1.6273 -1.8245
  138SOL    HW2  985   0.339   0.870   6.437 -0.1176 -0.6702 -2.0117
  139SOL     OW  986   4.618   3.602   7.239  0.4691  0.8843 -0.3647
  139SOL    HW1  987   4.565   3.649   7.175  0.1173  1.5315  0.3921
  139SOL    HW2  988   4.557   3.580   7.309  1.3086  2.1573  0.8005
  140SOL     OW  989   6.718   4.482   7.225  0.4705 -0.1307 -0.2276
  140SOL    HW1  990   6.751   4.570   7.208  2.3953 -0.7202  0.2852
  140SOL    HW2  991   6.701   4.480   7.319  1.2183 -0.5408 -0.0927
  141SOL     OW  992   2.812   6.818   5.885  0.0205  0.1902  0.3940
  141SOL    HW1  993   2.830   6.877   5.958 -0.8878  0.5317  0.3519
  141SOL    HW2  994   2.725   6.784   5.902 -1.1697  1.9577 -1.6079
  142SOL     OW  995   3.449   3.799   2.542  0.0096 -0.2867  0.0297
  142SOL    HW1  996   3.508   3.873   2.555  2.2889 -1.7821 -1.0882
  142SOL    HW2  997   3.418   3.808   2.452 -1.7582  0.6124  0.6795
  143SOL     OW  998   6.906   1.730   1.601 -0.1233  0.2335  0.0863
  143SOL    HW1  999   6.845   1.657   1.601 -1.3315  1.1780  1.7720
  143SOL    HW2 1000   6.959   1.717   1.680 -1.8380  2.2652  1.6886
  144SOL     OW 1001   1.365   1.460   2.322  0.1384 -0.2242 -0.3033
  144SOL    HW1 1002   1.426   1.450   2.249  1.8019  3.0080  0.4899
  144SOL    HW2 1003   1.396   1.397   2.387  0.7407 -0.7206 -1.0428
  145SOL     OW 1004   1.087   4.366   0.845 -0.5188 -0.2876 -0.1578
  145SOL    HW1 1005   1.060   4.391   0.756 -1.4211 -1.2998 -0.1783
  145SOL    HW2 1006   1.175   4.402   0.853 -0.4683 -0.0648 -1.4220
  146SOL     OW 1007   4.784   7.203   0.832 -0.0559 -0.1344  0.3798
  146SOL    HW1 1008   4.774   7.254   0.752 -2.0224 -0.3839  0.4122
  146SOL    HW2 1009   4.834   7.126   0.806  1.6838  1.0574  0.0214
  147SOL     OW 1010   5.202   5.646   1.102 -0.9427 -0.3276 -0.1255
  147SOL    HW1 1011   5.111   5.673   1.091 -1.6432 -1.7287  1.7275
  147SOL    HW2 1012   5.221   5.661   1.194  1.6737  2.5177 -0.9675
  148SOL     OW 1013   0.654   6.506   6.876  0.2021 -0.3657 -0.1446
  148SOL    HW1 1014   0.567   6.542   6.893 -0.1549 -1.1995 -0.1869
  148SOL    HW2 1015   0.714   6.579   6.896 -0.3838 -0.3031  1.6283
  149SOL     OW 1016   3.067   3.834   2.837  0.5347 -1.0230 -0.0861
  149SOL    HW1 1017   3.030   3.821   2.925 -0.3098 -1.5609 -0.5162
  149SOL    HW2 1018   3.002   3.797   2.778  2.3426 -3.2456 -0.8234
  150SOL     OW 1019   5.088   5.192   7.435 -0.3088  0.4498 -0.0022
  150SOL    HW1 1020   5.086   5.273   7.486  1.4596  0.1463  0.6250
  150SOL    HW2 1021   5.069   5.123   7.499  0.8141  0.1679  0.0614
  151SOL     OW 1022   3.469   2.211   0.255  0.3133 -0.4250  0.4227
  151SOL    HW1 1023   3.542   2.152   0.274  0.6176 -0.8281 -1.7495
  151SOL    HW2 1024   3.509   2.281   0.203 -0.6760 -0.1295  0.0473
  152SOL     OW 1025   0.403   3.789   3.385 -0.2892  0.2866  0.2094
  152SOL    HW1 1026   0.386   3.752   3.471 -2.5587 -0.1367 -0.3553
  152SOL    HW2 1027   0.442   3.716   3.335  0.3775  0.3278  0.6565
  153SOL     OW 1028   2.294   6.670   2.848 -0.1792 -0.1094  0.1459
  153SOL    HW1 1029   2.256   6.599   2.796  0.5974  0.1747 -0.8383
  153SOL    HW2 1030   2.221   6.702   2.902 -0.1030 -2.9175  2.0960
  154SOL     OW 1031   2.440   0.304   0.192  0.0782  0.7164 -0.1887
  154SOL    HW1 1032   2.522   0.307   0.242  0.3154  0.8260 -0.5836
  154SOL    HW2 1033   2.395   0.227   0.225  0.1413  0.8998  0.3452
  155SOL     OW 1034   3.645   1.254   0.333 -0.0948  0.4919 -0.0912
  155SOL    HW1 1035   3.709   1.267   0.403 -0.9208  0.0273  0.7769
  155SOL    HW2 1036   3.624   1.161   0.336  0.7006  0.2233 -1.7300
  156SOL     OW 1037   5.814   3.086   2.987  0.5497  0.0861 -0.1707
  156SOL    HW1 1038   5.870   3.146   3.036 -0.2008  0.4091  0.3178
  156SOL    HW2 1039   5.805   3.010   3.043 -1.4671  1.0272  0.9122
  157SOL     OW 1040   6.462   0.247   7.101  0.1994 -0.0483  0.1955
  157SOL    HW1 1041   6.376   0.207   7.086  0.1217  0.5240 -0.9774
  157SOL    HW2 1042   6.514   0.177   7.141 -0.7298 -0.4748  0.7019
  158SOL     OW 1043   3.807   3.318   2.496 -0.3748 -0.1123  0.8443
  158SOL    HW1 1044   3.881   3.260   2.478 -1.0377 -1.2937  1.7546
  158SOL    HW2 1045   3.789   3.362   2.413  2.2254  1.2915  0.9329
  159SOL     OW 1046   6.616   1.529   0.129 -0.2188 -0.3462  0.0738
  159SOL    HW1 1047   6.623   1.477   0.049 -1.5675  0.5575 -0.6758
  159SOL    HW2 1048   6.540   1.493   0.174 -0.6927  0.4404 -0.0755
  160SOL     OW 1049   3.396   6.677   5.193  0.3704 -0.5376  0.6152
  160SOL    HW1 1050   3.422   6.627   5.270 -1.4791 -2.2096  0.2417
  160SOL    HW2 1051   3.368   6.610   5.130  0.3548  0.8637 -0.9251
  161SOL     OW 1052   7.356   6.505   3.870  0.3513  0.3433 -0.3578
  161SOL    HW1 1053   7.346   6.580   3.929  0.6506 -0.5348  0.8439
  161SOL    HW2 1054   7.437   6.522   3.823  1.2928  0.0167  1.0854
  162SOL     OW 1055   2.880   4.663   1.919 -0.1317  0.1471 -0.2366
  162SOL    HW1 1056   2.825   4.644   1.995 -1.3272  0.7152 -0.9323
  162SOL    HW2 1057   2.968   4.673   1.955 -0.1720 -2.2611  0.7300
  163SOL     OW 1058   3.399   0.918   3.109  0.4738  0.0839 -0.0596
  163SOL    HW1 1059   3.396   0.841   3.165 -0.5208  1.7162  2.3135
  163SOL    HW2 1060   3.492   0.936   3.096  0.7196 -0.5756  0.7498
  164SOL     OW 1061   5.160   2.460   7.293 -0.3785  0.3023 -0.0226
  164SOL    HW1 1062   5.125   2.500   7.213  0.4606 -2.7399 -2.0570
  164SOL    HW2 1063   5.238   2.512   7.314 -0.6948  1.2283 -1.0682
  165SOL     OW 1064   2.753   2.622   5.669  0.3868 -0.0210  0.2156
  165SOL    HW1 1065   2.818   2.552   5.663  0.3004  0.0599 -2.6882
  165SOL    HW2 1066   2.675   2.579   5.702  0.1182 -1.5285 -2.2074
  166SOL     OW 1067   5.857   5.148   6.456  0.3808  0.0002  0.1923
  166SOL    HW1 1068   5.874   5.123   6.547  0.4675  1.0242  0.4673
  166SOL    HW2 1069   5.903   5.082   6.404  0.0527 -0.7944  0.8771
  167SOL     OW 1070   3.879   5.084   0.993 -0.4769 -0.6850  0.0021
  167SOL    HW1 1071   3.929   5.163   1.013  1.3775 -1.5138 -1.1340
  167SOL    HW2 1072   3.894   5.027   1.069 -1.2229 -0.2504  0.4901
  168SOL     OW 1073   1.251   1.620   0.165  0.5003 -0.0966 -0.3002
  168SOL    HW1 1074   1.337   1.621   0.208 -1.0921 -0.9876  3.3541
  168SOL    HW2 1075   1.198   1.679   0.218 -1.6334 -1.1229 -1.1986
  169SOL     OW 1076   5.200   4.991   6.790  0.5518  0.7704  0.0039
  169SOL    HW1 1077   5.130   4.984   6.725 -1.2678  0.2840  1.9029
  169SOL    HW2 1078   5.257   4.917   6.771 -0.3105  0.2450 -0.6419
  170SOL     OW 1079   0.161   6.515   3.732  0.1041  0.2730 -0.1857
  170SOL    HW1 1080   0.154   6.492   3.639  0.6563  0.3634 -0.2550
  170SOL    HW2 1081   0.186   6.433   3.775  0.2546  0.3246 -0.1747
  171SOL     OW 1082   3.877   5.343   3.423 -0.2481  0.8369  0.4351
  171SOL    HW1 1083   3.846   5.301   3.342 -1.5820  1.9654  0.3136
  171SOL    HW2 1084   3.884   5.435   3.400  2.5791  0.7714  0.7100
  172SOL     OW 1085   4.379   0.726   6.659 -0.0245 -0.6301 -0.0248
  172SOL    HW1 1086   4.360   0.820   6.660  0.6935 -0.4664  1.7594
  172SOL    HW2 1087   4.425   0.712   6.576 -1.7268  0.2026 -1.1993
  173SOL     OW 1088   5.964   0.152   6.931 -0.9881 -0.2721  0.4667
  173SOL    HW1 1089   6.040   0.122   6.981  0.5554  0.3428 -1.4185
  173SOL    HW2 1090   5.963   0.098   6.853 -1.5319  0.8197 -0.3075
  174SOL     OW 1091   6.569   3.795   4.806 -0.4660  0.1687 -0.3927
  174SOL    HW1 1092   6.565   3.804   4.901  1.8494  1.0279 -0.3280
  174SOL    HW2 1093   6.519   3.715   4.788 -1.9799  0.6368  1.3846
  175SOL     OW 1094   7.360   5.083   0.819  0.1111  0.1881 -0.0045
  175SOL    HW1 1095   7.304   5.154   0.851  0.2890  0.3611 -0.0738
  175SOL    HW2 1096   7.437   5.127   0.784 -0.0459 -0.0105 -0.6050
  176SOL     OW 1097   6.761   5.657   3.675 -0.3111 -0.1372  0.4758
  176SOL    HW1 1098   6.693   5.630   3.614 -1.5786  0.1528  1.7323
  176SOL    HW2 1099   6.843   5.643   3.626 -1.1684 -1.6916 -0.5968
  177SOL     OW 1100   7.201   0.575   1.408 -0.1212  0.1927 -0.0046
  177SOL    HW1 1101   7.247   0.599   1.489 -0.7623 -1.6495  0.9623
  177SOL    HW2 1102   7.158   0.492   1.428  0.1036 -0.5935 -2.3961
  178SOL     OW 1103   4.685   1.839   6.816 -0.2404 -0.5243 -0.2735
  178SOL    HW1 1104   4.631   1.760   6.810 -1.0708  0.0013  0.1793
  178SOL    HW2 1105   4.775   1.807   6.808 -0.5888 -1.4603 -0.5713
  179SOL     OW 1106   4.124   0.175   4.427 -0.2445  0.4388  0.3531
  179SOL    HW1 1107   4.199   0.144   4.375 -0.1056 -2.2899  1.9761
  179SOL    HW2 1108   4.047   0.145   4.378 -0.1788  0.1120  0.4475
  180SOL     OW 1109   6.510   0.041   5.549  0.1387 -0.4139 -0.4294
  180SOL    HW1 1110   6.465  -0.042   5.568  0.5961 -1.6305 -3.9550
  180SOL    HW2 1111   6.450   0.088   5.491 -0.1693  1.9085  1.6291
  181SOL     OW 1112   0.995   5.158   4.403  0.5375 -0.2875 -0.4647
  181SOL    HW1 1113   1.029   5.233   4.452 -1.2980  1.0859 -1.1958
  181SOL    HW2 1114   1.063   5.140   4.338 -0.0367  2.4612 -1.9776
  182SOL     OW 1115   5.307   4.138   1.190  0.3877  0.1210 -1.2806
  182SOL    HW1 1116   5.398   4.148   1.161  0.6696  2.2949  0.1562
  182SOL    HW2 1117   5.313   4.081   1.267  0.5619  0.4304 -1.0637
  183SOL     OW 1118   2.324   6.398   2.177 -0.0232 -0.4434 -0.6355
  183SOL    HW1 1119   2.390   6.364   2.116  0.3119 -0.1829 -0.4195
  183SOL    HW2 1120   2.302   6.324   2.232  1.1105 -0.1864  0.1961
  184SOL     OW 1121   6.269   4.010   2.961  0.2092 -0.2621  0.3953
  184SOL    HW1 1122   6.243   4.028   3.051  1.4363  0.5577  0.6037
  184SOL    HW2 1123   6.362   3.988   2.966  0.2081 -0.5662 -0.6315
  185SOL     OW 1124   5.254   4.528   6.178  0.7547 -0.0229  0.2828
  185SOL    HW1 1125   5.222   4.573   6.256 -1.2578  1.3583 -1.2463
  185SOL    HW2 1126   5.201   4.448   6.173  1.3158 -0.4253  0.6402
  186SOL     OW 1127   6.082   5.044   6.768  0.3711  0.3954  0.2390
  186SOL    HW1 1128   6.103   5.006   6.683 -1.0036  2.3632 -1.0663
  186SOL    HW2 1129   5.986   5.051   6.769  0.1872 -1.2562  2.7522
  187SOL     OW 1130   7.356   4.315   2.624  0.3570  0.2901 -0.9329
  187SOL    HW1 1131   7.293   4.367   2.575  1.0155  1.7576 -0.2934
  187SOL    HW2 1132   7.402   4.263   2.558 -0.2850  0.5459 -1.5936
  188SOL     OW 1133   6.667   5.298   6.883  0.6434 -0.4239  0.4235
  188SOL    HW1 1134   6.606   5.229   6.906 -0.9949  0.4784 -0.9858
  188SOL    HW2 1135   6.707   5.269   6.801 -0.7999  0.6487 -0.7322
  189SOL     OW 1136   3.224   6.247   5.436  0.1069  0.3901  0.1705
  189SOL    HW1 1137   3.241   6.288   5.521 -0.3972  2.1360 -0.5293
  189SOL    HW2 1138   3.149   6.295   5.401  0.6925  0.1241 -1.5329
  190SOL     OW 1139   0.372   0.607   5.825  0.3729 -0.7288  0.2468
  190SOL    HW1 1140   0.348   0.591   5.917  1.3055  0.6752  0.7649
  190SOL    HW2 1141   0.302   0.663   5.792  0.0306 -1.2440  0.0839
  191SOL     OW 1142   5.324   4.390   0.297 -0.1358 -0.0694  0.3125
  191SOL    HW1 1143   5.370   4.468   0.329 -1.3632  0.6265  0.4298
  191SOL    HW2 1144   5.369   4.369   0.215 -1.1152  2.0853 -0.8683
  192SOL     OW 1145   4.939   0.593   7.095 -0.6050  0.4434  0.3325
  192SOL    HW1 1146   4.934   0.549   7.179  0.1061  0.2245  0.2673
  192SOL    HW2 1147   4.872   0.550   7.041  0.8819 -1.4571 -0.1262
  193SOL     OW 1148   1.470   2.612   6.629 -0.0230 -0.2906 -0.1637
  193SOL    HW1 1149   1.493   2.703   6.610  0.5879 -0.5008 -0.4246
  193SOL    HW2 1150   1.525   2.560   6.571  0.8654 -0.8958  1.1806
  194SOL     OW 1151   3.082   4.939   5.358 -0.0798 -0.1672  0.1261
  194SOL    HW1 1152   3.089   5.019   5.411 -0.6298  0.8499 -1.2941
  194SOL    HW2 1153   3.058   4.969   5.271 -0.4551 -1.9083 -0.4158
  195SOL     OW 1154   5.172   4.990   0.918  0.0930 -0.1166 -0.4332
  195SOL    HW1 1155   5.150   4.908   0.874  1.7932 -0.8625  0.0286
  195SOL    HW2 1156   5.148   4.976   1.010  1.2485 -0.4522 -0.1774
  196SOL     OW 1157   5.261   0.258   6.729  0.0760  0.0322  0.0851
  196SOL    HW1 1158   5.352   0.255   6.758  0.5083 -0.3740 -1.2555
  196SOL    HW2 1159   5.210   0.243   6.809  1.2420 -2.8997  0.4291
  197SOL     OW 1160   6.024   7.221   6.718  0.2339  0.8037 -0.0599
  197SOL    HW1 1161   6.106   7.170   6.712  0.1268  0.7108 -0.9077
  197SOL    HW2 1162   5.991   7.222   6.628 -0.2546  1.5808  0.1271
  198SOL     OW 1163   2.463   6.846   6.707  0.0190  0.2430  0.5441
  198SOL    HW1 1164   2.382   6.861   6.756 -0.4784  0.8904 -0.4287
  198SOL    HW2 1165   2.531   6.838   6.773 -0.8612 -0.4933  1.3932
  199SOL     OW 1166   4.741   6.429   4.457 -0.2537  0.1571  0.4472
  199SOL    HW1 1167   4.735   6.522   4.480 -2.3836  0.6465 -1.6381
  199SOL    HW2 1168   4.818   6.422   4.401 -0.0229  0.6480  0.7001
  200SOL     OW 1169   4.044   3.787   0.197 -0.5840  0.2293  0.0967
  200SOL    HW1 1170   4.089   3.708   0.227  1.4423  1.4253  0.3632
  200SOL    HW2 1171   4.044   3.845   0.274 -1.9713  0.5455 -0.1172
  201SOL     OW 1172   7.227   7.333   4.846 -0.5682  0.5009 -0.1404
  201SOL    HW1 1173   7.247   7.242   4.869 -0.2611  0.6101  0.0302
  201SOL    HW2 1174   7.217   7.332   4.751 -0.5103  0.2979 -0.1453
  202SOL     OW 1175   2.548   3.667   6.681  0.0746  0.2979 -0.1888
  202SOL    HW1 1176   2.597   3.605   6.627  0.3164 -0.3118  0.7104
  202SOL    HW2 1177   2.459   3.631   6.684  0.1285  0.1832  0.0426
  203SOL     OW 1178   3.963   3.140   7.226 -0.2450 -0.1684 -0.3267
  203SOL    HW1 1179   4.015   3.072   7.269 -1.4920 -0.9232  0.0516
  203SOL    HW2 1180   4.016   3.167   7.151  0.4690 -1.2379 -0.2299
  204SOL     OW 1181   0.602   2.457   6.921  0.1193  0.6144 -0.2961
  204SOL    HW1 1182   0.637   2.373   6.890 -0.2361  1.1981 -2.4179
  204SOL    HW2 1183   0.510   2.456   6.895 -0.0838  1.3620  0.3559
  205SOL     OW 1184   3.220   5.041   1.626  0.7044 -0.9532 -0.1667
  205SOL    HW1 1185   3.303   5.022   1.583  0.2910 -1.9387 -0.5525
  205SOL    HW2 1186   3.241   5.110   1.689  1.3107  0.6758 -2.0164
  206SOL     OW 1187   7.249   5.047   6.215 -0.3197 -0.2841 -0.3566
  206SOL    HW1 1188   7.315   5.042   6.284 -0.1278  0.9303 -0.4344
  206SOL    HW2 1189   7.170   5.079   6.259 -0.3827 -0.1260 -0.5835
  207SOL     OW 1190   1.407   4.647   2.500 -0.4493  0.2150  0.2459
  207SOL    HW1 1191   1.312   4.649   2.515 -0.4694 -2.3815  0.9030
  207SOL    HW2 1192   1.444   4.695   2.573 -1.2197  0.3243  0.5784
  208SOL     OW 1193   1.071   1.612   2.965  0.3834 -0.0127 -0.3046
  208SOL    HW1 1194   1.146   1.594   2.909  0.0440 -1.5686 -0.3046
  208SOL    HW2 1195   0.995   1.600   2.908  0.0831  3.1927 -0.7741
  209SOL     OW 1196   2.346   6.442   6.621  1.0782 -0.4700  0.5276
  209SOL    HW1 1197   2.403   6.376   6.661  2.1128 -0.6230 -1.1222
  209SOL    HW2 1198   2.406   6.503   6.577  0.0292  0.1864 -0.0428
  210SOL     OW 1199   0.434   3.154   3.743 -0.1972  0.2724  0.2250
  210SOL    HW1 1200   0.466   3.201   3.821  1.7324 -1.2968  0.4568
  210SOL    HW2 1201   0.353   3.112   3.771  1.6740 -2.2883  2.2846
  211SOL     OW 1202   1.473   5.974   1.794 -0.3784 -0.3327  0.2062
  211SOL    HW1 1203   1.454   5.977   1.888  0.1643  1.6450  0.2885
  211SOL    HW2 1204   1.391   5.944   1.754 -1.3709  1.0144  1.1414
  212SOL     OW 1205   4.064   0.264   3.264  0.6460  0.3896  0.3672
  212SOL    HW1 1206   4.132   0.329   3.247  0.7124  0.4423  0.8214
  212SOL    HW2 1207   4.017   0.298   3.340  1.7987 -0.9628  1.7452
  213SOL     OW 1208   6.726   6.974   6.273 -0.6194 -0.2538  0.5882
  213SOL    HW1 1209   6.697   7.033   6.342 -0.9855  1.0260 -0.6209
  213SOL    HW2 1210   6.810   7.009   6.244 -0.6780 -0.5142  0.0855
  214SOL     OW 1211   6.104   1.744   4.965  0.2179  0.3576 -0.5857
  214SOL    HW1 1212   6.012   1.765   4.947  0.6031  0.1397 -3.2237
  214SOL    HW2 1213   6.135   1.817   5.019 -2.2084 -1.0975  3.2182
  215SOL     OW 1214   0.718   7.025   0.178 -0.3933 -0.3769  0.2170
  215SOL    HW1 1215   0.724   6.958   0.246 -0.2548 -2.3972 -1.7022
  215SOL    HW2 1216   0.631   7.063   0.189  0.0364  0.1618  2.1923
  216SOL     OW 1217   1.391   6.285   0.812 -0.1341 -0.1359  0.2386
  216SOL    HW1 1218   1.405   6.192   0.795 -0.6600 -0.0271 -0.8490
  216SOL    HW2 1219   1.298   6.293   0.831 -0.0625  0.1508  0.4806
  217SOL     OW 1220   3.203   5.002   2.989 -0.6118 -0.5297  0.2199
  217SOL    HW1 1221   3.198   5.060   2.913  1.9719 -0.6711 -0.1486
  217SOL    HW2 1222   3.136   4.936   2.974 -0.6198 -0.1543 -1.5835
  218SOL     OW 1223   5.678   3.717   2.052 -0.2017 -0.3038 -0.4015
  218SOL    HW1 1224   5.650   3.673   2.132  1.1287 -1.2952 -0.4349
  218SOL    HW2 1225   5.759   3.671   2.027  0.2504  1.0018 -1.4523
  219SOL     OW 1226   2.748   3.903   5.003  0.3538  0.4050 -0.0760
  219SOL    HW1 1227   2.673   3.880   5.057  0.6710 -1.5543 -0.3935
  219SOL    HW2 1228   2.744   3.998   4.995 -1.3378  0.4564  0.9838
  220SOL     OW 1229   6.409   2.262   1.861 -0.7823  0.4980 -0.2163
  220SOL    HW1 1230   6.437   2.331   1.920 -0.4608  0.0381  0.1764
  220SOL    HW2 1231   6.335   2.299   1.813 -1.4500  0.6609  0.9154
  221SOL     OW 1232   4.767   0.527   0.366 -0.4697  0.1433 -0.3805
  221SOL    HW1 1233   4.796   0.513   0.456 -1.7997  1.1036  0.2271
  221SOL    HW2 1234   4.819   0.601   0.335  0.5961 -0.7160 -0.7293
  222SOL     OW 1235   3.759   5.964   6.546  0.0612  0.4334  0.6511
  222SOL    HW1 1236   3.799   6.039   6.590  0.3433 -0.1194  1.3590
  222SOL    HW2 1237   3.713   6.002   6.471 -0.1567  1.3574  1.2396
  223SOL     OW 1238   2.161   3.860   0.377  0.1718 -1.1473  0.3273
  223SOL    HW1 1239   2.238   3.845   0.431  0.3069 -1.2965  0.0931
  223SOL    HW2 1240   2.176   3.809   0.298 -0.5307 -1.8152  0.6136
  224SOL     OW 1241   3.844   3.984   4.905 -0.2305  0.1522  0.1316
  224SOL    HW1 1242   3.845   4.060   4.963  0.7423 -0.0349  0.3691
  224SOL    HW2 1243   3.933   3.978   4.870  0.1891 -1.8002  1.3435
  225SOL     OW 1244   5.913   0.023   4.132 -0.0730 -0.2701  0.1351
  225SOL    HW1 1245   5.848   0.093   4.143 -0.0203 -0.2176  0.1143
  225SOL    HW2 1246   5.864  -0.050   4.095  0.1522  0.2314 -1.2255
  226SOL     OW 1247   4.151   6.157   6.463 -0.1050  0.5478 -0.0603
  226SOL    HW1 1248   4.227   6.110   6.497 -1.2953 -2.6232 -1.3748
  226SOL    HW2 1249   4.183   6.197   6.381  0.0386 -1.5135 -1.0790
  227SOL     OW 1250   6.048   6.722   2.795 -0.1666 -0.4386  0.3008
  227SOL    HW1 1251   6.067   6.713   2.702 -0.9906 -1.1071  0.1983
  227SOL    HW2 1252   5.963   6.680   2.808 -0.9442  1.2370  1.0201
  228SOL     OW 1253   3.594   1.697   0.085 -0.2421  0.5279  0.1150
  228SOL    HW1 1254   3.588   1.778   0.034  1.4000  0.8799  0.4190
  228SOL    HW2 1255   3.604   1.727   0.175 -1.3207 -0.0555  0.4360
  229SOL     OW 1256   4.703   4.937   4.999  0.0745  0.1250 -0.0552
  229SOL    HW1 1257   4.798   4.930   5.009 -0.0241  0.2734  1.1260
  229SOL    HW2 1258   4.667   4.884   5.070 -0.7169  1.1286  0.3201
  230SOL     OW 1259   3.947   3.252   6.352 -0.5927 -0.2719 -0.6082
  230SOL    HW1 1260   3.864   3.230   6.395 -0.5450 -1.1654 -0.9337
  230SOL    HW2 1261   4.005   3.280   6.423 -1.1098  0.1610 -0.3533
  231SOL     OW 1262   4.003   0.545   6.000 -0.4101 -0.5401  0.5198
  231SOL    HW1 1263   3.919   0.555   6.044 -0.4849 -0.5445  0.3806
  231SOL    HW2 1264   4.067   0.584   6.060 -0.6613  0.5735  0.1057
  232SOL     OW 1265   7.019   1.459   1.128 -0.0092 -0.9508  0.6485
  232SOL    HW1 1266   7.023   1.399   1.203  1.0262 -0.2120  1.2147
  232SOL    HW2 1267   6.999   1.544   1.167  1.2265 -0.4259  0.2055
  233SOL     OW 1268   5.986   2.211   1.446 -0.2518  0.1748 -0.2062
  233SOL    HW1 1269   6.026   2.196   1.360 -1.1742  1.2773 -0.8684
  233SOL    HW2 1270   5.892   2.197   1.432 -0.3715 -0.0283  0.7234
  234SOL     OW 1271   1.759   4.334   4.884 -0.2341 -0.0503 -0.0593
  234SOL    HW1 1272   1.692   4.281   4.928  1.3307 -2.1628 -0.0844
  234SOL    HW2 1273   1.743   4.319   4.791  0.1304 -0.3736 -0.0699
  235SOL     OW 1274   7.137   1.744   4.014 -0.9722  0.1807 -0.4152
  235SOL    HW1 1275   7.101   1.690   4.084 -0.2279  1.0743  0.6873
  235SOL    HW2 1276   7.196   1.685   3.966 -1.5388 -0.4538 -0.3418
  236SOL     OW 1277   6.459   7.224   0.014  0.3140 -0.0790 -0.2885
  236SOL    HW1 1278   6.379   7.179  -0.013  0.3553  0.4298 -1.3127
  236SOL    HW2 1279   6.447   7.240   0.108 -0.5948 -0.3941 -0.3421
  237SOL     OW 1280   0.072   6.019   3.047  0.0227  0.0938  0.2294
  237SOL    HW1 1281   0.116   5.947   3.001 -1.5614  0.3569 -1.8238
  237SOL    HW2 1282   0.007   5.975   3.102  1.4034 -0.1819  1.7027
  238SOL     OW 1283   3.199   1.824   6.797 -0.3727  0.5582 -0.2130
  238SOL    HW1 1284   3.279   1.786   6.833  0.4272  0.6065 -1.8700
  238SOL    HW2 1285   3.128   1.778   6.844  0.5263  1.9385  2.7544
  239SOL     OW 1286   2.793   2.518   4.499  0.7687 -0.5861  0.3063
  239SOL    HW1 1287   2.844   2.591   4.467 -0.4769  0.0920 -0.2112
  239SOL    HW2 1288   2.769   2.543   4.589 -0.2765  0.0044 -0.1213
  240SOL     OW 1289   4.753   6.135   2.437 -0.0172  0.1185 -0.2926
  240SOL    HW1 1290   4.687   6.133   2.368 -1.4815 -1.4038  1.0755
  240SOL    HW2 1291   4.704   6.156   2.516  1.2811 -0.2825  0.6433
  241SOL     OW 1292   6.739   1.043   0.911 -0.2813 -0.0592  0.3691
  241SOL    HW1 1293   6.772   1.132   0.915  1.3056 -0.5659 -0.5529
  241SOL    HW2 1294   6.665   1.047   0.851 -0.8028  0.7774  1.0496
  242SOL     OW 1295   1.998   2.299   6.632  0.4346  0.3513  0.4486
  242SOL    HW1 1296   1.945   2.374   6.661  0.9324  0.6396  0.6234
  242SOL    HW2 1297   2.083   2.336   6.611  0.1551  0.1073 -1.2147
  243SOL     OW 1298   0.580   4.558   5.556 -0.0251 -0.5105  0.3491
  243SOL    HW1 1299   0.601   4.464   5.557  4.2103  0.2024 -1.1439
  243SOL    HW2 1300   0.627   4.594   5.632 -0.5341  0.5682  0.1683
  244SOL     OW 1301   0.681   1.254   1.416 -0.4846 -1.2712  0.2782
  244SOL    HW1 1302   0.684   1.279   1.508 -1.5567 -1.4480  0.3751
  244SOL    HW2 1303   0.766   1.280   1.381  0.1923 -1.8400  1.4727
  245SOL     OW 1304   3.957   6.128   0.396  0.3395  0.0266  0.6185
  245SOL    HW1 1305   4.034   6.181   0.380  0.2406 -0.2683 -1.0012
  245SOL    HW2 1306   3.991   6.039   0.407  0.2353 -0.1677 -0.4790
  246SOL     OW 1307   1.903   2.911   5.454 -0.9163  0.2064 -0.5485
  246SOL    HW1 1308   1.840   2.979   5.431 -0.4424  1.0278  0.4905
  246SOL    HW2 1309   1.902   2.851   5.379 -3.5805 -0.3216 -0.1823
  247SOL     OW 1310   4.237   5.226   5.679 -0.3155 -0.0815  0.1982
  247SOL    HW1 1311   4.310   5.203   5.620 -0.6120  0.1884 -0.2814
  247SOL    HW2 1312   4.180   5.281   5.626 -1.7090 -1.5923  0.0552
  248SOL     OW 1313   0.145   3.555   4.078 -0.1160  0.2003  0.3503
  248SOL    HW1 1314   0.051   3.567   4.089 -0.2750 -1.0461  0.4984
  248SOL    HW2 1315   0.154   3.522   3.988  0.4479  2.7995 -0.6302
  249SOL     OW 1316   2.737   3.715   4.822  0.5754 -0.4204 -0.0059
  249SOL    HW1 1317   2.765   3.781   4.885 -1.5872 -1.2990  2.0385
  249SOL    HW2 1318   2.804   3.647   4.827  2.0832  0.9101 -1.0933
  250SOL     OW 1319   2.248   2.288   7.247 -0.8403  0.0944 -0.1818
  250SOL    HW1 1320   2.251   2.328   7.334  3.7200  2.0687 -0.9523
  250SOL    HW2 1321   2.235   2.361   7.187 -0.4116 -0.7280 -1.3022
  251SOL     OW 1322   0.623   1.434   0.721 -0.4523  0.2382  0.1012
  251SOL    HW1 1323   0.574   1.427   0.639  0.0174 -0.2803 -0.1447
  251SOL    HW2 1324   0.569   1.489   0.777 -1.1335 -0.0158 -0.2964
  252SOL     OW 1325   4.886   4.521   2.897 -0.0958 -0.2165 -0.3727
  252SOL    HW1 1326   4.816   4.570   2.854 -1.4844 -0.3709  1.6066
  252SOL    HW2 1327   4.842   4.471   2.966  1.5974 -2.4292 -0.7739
  253SOL     OW 1328   3.678   1.993   7.440 -0.4684  0.2785 -0.3428
  253SOL    HW1 1329   3.661   2.083   7.413 -1.2502  0.0046 -0.8102
  253SOL    HW2 1330   3.724   2.001   7.523 -0.2945  1.1110 -0.5077
  254SOL     OW 1331   3.522   5.344   1.656  0.1829  0.3118  0.2927
  254SOL    HW1 1332   3.607   5.366   1.693  0.4377  1.7803 -1.0417
  254SOL    HW2 1333   3.522   5.384   1.569 -1.8651  0.3678  0.2507
  255SOL     OW 1334   4.228   3.089   1.289  0.0291  0.0991  0.6327
  255SOL    HW1 1335   4.166   3.162   1.296 -0.1134  0.0131  0.3154
  255SOL    HW2 1336   4.186   3.018   1.337 -0.4161 -0.1483 -0.1028
  256SOL     OW 1337   5.014   1.703   1.165 -0.0548 -0.1014 -0.1782
  256SOL    HW1 1338   5.075   1.663   1.103  1.5336 -0.1729  1.3723
  256SOL    HW2 1339   5.011   1.642   1.239  0.3604  1.3664  1.0840
  257SOL     OW 1340   6.701   5.355   1.367 -0.4368  0.3596  0.2672
  257SOL    HW1 1341   6.765   5.419   1.397 -0.0398  0.4650 -0.7427
  257SOL    HW2 1342   6.666   5.392   1.286  0.5525 -1.1439 -0.8990
  258SOL     OW 1343   7.118   3.240   7.168  0.3681  0.0219  0.3544
  258SOL    HW1 1344   7.057   3.175   7.202 -0.4166 -0.0833 -1.1907
  258SOL    HW2 1345   7.204   3.196   7.172  0.5817  0.5143  3.4302
  259SOL     OW 1346   3.698   2.404   6.175  0.3483  0.4455 -0.0707
  259SOL    HW1 1347   3.762   2.377   6.240  2.1173  1.9467 -1.0797
  259SOL    HW2 1348   3.687   2.327   6.118 -0.5366 -0.5694  1.4080
  260SOL     OW 1349   1.480   2.627   2.521  0.7397 -0.4578 -0.0054
  260SOL    HW1 1350   1.421   2.569   2.472 -0.1126  0.2364  0.1767
  260SOL    HW2 1351   1.566   2.611   2.484  0.5357 -1.9045  0.0911
  261SOL     OW 1352   3.727   3.838   6.484  0.3045 -0.0476 -0.2589
  261SOL    HW1 1353   3.777   3.768   6.526  0.2534  1.3103  2.3069
  261SOL    HW2 1354   3.661   3.862   6.549  1.1076  3.1576 -0.4580
  262SOL     OW 1355   7.164   6.155   1.918  0.0798 -0.6558  0.7054
  262SOL    HW1 1356   7.257   6.134   1.907  0.8136  2.0348  1.0825
  262SOL    HW2 1357   7.149   6.149   2.012  1.0331  2.7494  1.2129
  263SOL     OW 1358   4.684   7.130   1.789 -0.2868  0.2295  0.0820
  263SOL    HW1 1359   4.724   7.043   1.789  1.0777  0.8301  0.6323
  263SOL    HW2 1360   4.729   7.177   1.718  0.2966  1.0364  0.9560
  264SOL     OW 1361   7.059   2.747   5.816  0.2069 -0.2705  0.2370
  264SOL    HW1 1362   7.006   2.803   5.759  0.5491 -0.2261 -0.0437
  264SOL    HW2 1363   7.084   2.673   5.760  1.0088  0.0471  0.1599
  265SOL     OW 1364   6.217   1.457   6.061  0.4111  0.1880 -0.3235
  265SOL    HW1 1365   6.161   1.387   6.093  1.6674  0.0178  1.7494
  265SOL    HW2 1366   6.288   1.412   6.015  1.2545  0.0186  1.0662
  266SOL     OW 1367   4.493   5.546   7.314 -0.0507 -0.3779 -0.2448
  266SOL    HW1 1368   4.424   5.484   7.339  0.8986 -0.4922  2.3756
  266SOL    HW2 1369   4.494   5.610   7.385  1.2713  0.7213 -1.2073
  267SOL     OW 1370   4.738   4.320   4.726 -0.8497  0.0033  0.4374
  267SOL    HW1 1371   4.785   4.389   4.772  0.1632 -0.8301  0.7058
  267SOL    HW2 1372   4.670   4.365   4.676  0.6785  1.3298 -0.5107
  268SOL     OW 1373   6.302   6.339   1.487 -0.1951 -0.0657 -0.2638
  268SOL    HW1 1374   6.299   6.432   1.508 -0.1419  0.0422 -0.7140
  268SOL    HW2 1375   6.285   6.294   1.570  0.8286  0.3303  0.1802
  269SOL     OW 1376   3.343   3.810   5.135  0.0681 -0.2777  0.3280
  269SOL    HW1 1377   3.311   3.771   5.054 -1.2230  1.6400 -0.1374
  269SOL    HW2 1378   3.359   3.735   5.193  0.2190 -1.6212 -1.3830
  270SOL     OW 1379   6.395   3.432   5.715  0.0986 -0.8379  0.5502
  270SOL    HW1 1380   6.425   3.367   5.652 -1.0461 -0.7583 -0.1076
  270SOL    HW2 1381   6.328   3.387   5.766 -1.1502 -0.0181 -0.3240
  271SOL     OW 1382   3.178   6.019   7.199  0.6125 -0.0890  0.3788
  271SOL    HW1 1383   3.101   6.027   7.256  0.2746 -0.6494  0.0216
  271SOL    HW2 1384   3.210   6.108   7.189 -1.2285  0.4943 -1.1136
  272SOL     OW 1385   4.750   6.422   6.085  0.7412 -0.0573 -0.4637
  272SOL    HW1 1386   4.661   6.446   6.057  0.6771 -0.5981 -0.7278
  272SOL    HW2 1387   4.799   6.413   6.004  0.9796  0.0137 -0.3266
  273SOL     OW 1388   2.886   3.685   3.795  0.5957 -0.0579  0.4556
  273SOL    HW1 1389   2.852   3.651   3.712 -0.7413  0.0614  0.9380
  273SOL    HW2 1390   2.902   3.606   3.847 -0.2978 -0.0583  0.7362
  274SOL     OW 1391   3.804   7.253   5.561 -0.0931 -0.2234 -0.3384
  274SOL    HW1 1392   3.894   7.276   5.537  0.4164 -0.9906  0.7678
  274SOL    HW2 1393   3.787   7.171   5.516 -0.3075  0.0227 -0.7044
  275SOL     OW 1394   0.008   5.655   4.434  0.0037  0.1177 -0.3296
  275SOL    HW1 1395   0.085   5.602   4.452 -0.0835 -0.0307 -0.3897
  275SOL    HW2 1396  -0.036   5.610   4.361 -0.2453  0.0853 -0.1626
  276SOL     OW 1397   3.855   1.086   1.522 -0.3775  0.1241  0.1724
  276SOL    HW1 1398   3.884   1.036   1.446 -1.8930  0.2199 -0.4948
  276SOL    HW2 1399   3.932   1.090   1.578  0.4416 -0.9477 -0.8203
  277SOL     OW 1400   1.637   2.432   6.479 -0.7673  0.3987  0.0604
  277SOL    HW1 1401   1.601   2.440   6.391 -1.3736 -0.1253  0.2492
  277SOL    HW2 1402   1.639   2.337   6.495  0.2126  0.4407  0.2558
  278SOL     OW 1403   6.554   6.298   4.020  0.0249 -0.3589 -0.4855
  278SOL    HW1 1404   6.604   6.252   4.087  2.1851  0.4434 -1.4704
  278SOL    HW2 1405   6.481   6.338   4.069  0.5145 -1.2505  1.0643
  279SOL     OW 1406   5.419   4.145   0.362  0.3728 -0.4061  0.0984
  279SOL    HW1 1407   5.373   4.229   0.355  0.7009 -0.2782 -0.5240
  279SOL    HW2 1408   5.491   4.163   0.423  0.3886 -0.2637  0.0375
  280SOL     OW 1409   0.295   4.555   0.863  0.7300 -0.3565  0.0988
  280SOL    HW1 1410   0.340   4.611   0.926  2.1307 -0.2626 -0.9289
  280SOL    HW2 1411   0.345   4.473   0.865  0.6193 -0.4495 -0.6675
  281SOL     OW 1412   4.390   3.696   1.441 -0.1204  0.6123  0.1543
  281SOL    HW1 1413   4.408   3.633   1.511 -0.0215 -0.2144 -0.6006
  281SOL    HW2 1414   4.360   3.642   1.367 -0.3222  1.4789 -0.4073
  282SOL     OW 1415   3.003   1.645   6.619  0.2321  0.3762 -0.2647
  282SOL    HW1 1416   2.913   1.627   6.646  0.2613  1.4709  0.6049
  282SOL    HW2 1417   3.058   1.612   6.690  0.3997  1.5115  0.1626
  283SOL     OW 1418   4.538   7.184   3.235  0.5401 -0.0287  0.7468
  283SOL    HW1 1419   4.607   7.165   3.172  1.2827  0.1182  1.4970
  283SOL    HW2 1420   4.459   7.145   3.197  0.8357  0.5978 -0.5713
  284SOL     OW 1421   1.794   2.765   6.749 -0.3256 -0.3445 -0.1502
  284SOL    HW1 1422   1.821   2.678   6.720  0.7157 -0.2365  0.4435
  284SOL    HW2 1423   1.812   2.822   6.674  0.0967 -0.4573 -0.1389
  285SOL     OW 1424   5.184   0.807   2.624  0.0870  0.5110  0.2584
  285SOL    HW1 1425   5.209   0.894   2.594  1.4585  0.2610  0.5947
  285SOL    HW2 1426   5.244   0.788   2.696 -0.1759 -0.7153  0.1879
  286SOL     OW 1427   6.243   3.812   2.480 -0.2946  0.0570 -0.0320
  286SOL    HW1 1428   6.167   3.765   2.445 -0.4870  0.5295 -0.2567
  286SOL    HW2 1429   6.307   3.743   2.499  0.3551 -0.1228 -2.5791
  287SOL     OW 1430   7.376   5.432   3.152  0.3096 -0.4079 -0.2687
  287SOL    HW1 1431   7.302   5.483   3.119 -0.1672  0.2711  1.6727
  287SOL    HW2 1432   7.353   5.415   3.244  2.8542  0.4427  0.6001
  288SOL     OW 1433   4.399   0.700   4.829  0.2825  0.4245  0.3055
  288SOL    HW1 1434   4.356   0.658   4.903  1.5704 -1.2750  0.1573
  288SOL    HW2 1435   4.447   0.629   4.786  0.8267  1.6704 -1.2401
  289SOL     OW 1436   4.953   3.845   1.455  0.2105 -0.1249  0.4165
  289SOL    HW1 1437   4.994   3.765   1.421 -0.9926  0.8033 -3.8782
  289SOL    HW2 1438   4.863   3.841   1.423  0.3597  3.2533 -0.8581
  290SOL     OW 1439   4.408   4.513   3.802 -0.0835  0.5324 -0.1266
  290SOL    HW1 1440   4.346   4.452   3.843 -0.1494  0.5176 -0.2490
  290SOL    HW2 1441   4.494   4.475   3.820 -0.1399  0.2410 -0.4690
  291SOL     OW 1442   0.799   3.615   1.767 -0.2280  0.7668  0.3789
  291SOL    HW1 1443   0.887   3.620   1.730 -0.5465 -0.8221 -0.7191
  291SOL    HW2 1444   0.746   3.670   1.710 -0.4446 -0.5566 -0.7724
  292SOL     OW 1445   1.913   3.814   0.886  0.0051  0.1177 -0.2728
  292SOL    HW1 1446   1.963   3.881   0.838  0.7817 -0.5097 -0.3649
  292SOL    HW2 1447   1.854   3.777   0.821  0.0153  0.2809 -0.3758
  293SOL     OW 1448   6.808   6.498   5.920  0.4643 -0.1384 -0.6409
  293SOL    HW1 1449   6.850   6.578   5.952 -0.0822 -0.1515  0.1196
  293SOL    HW2 1450   6.858   6.427   5.961 -0.9162 -0.1527  1.1556
  294SOL     OW 1451   3.158   6.532   4.388  0.1579  0.5629 -0.4517
  294SOL    HW1 1452   3.082   6.513   4.443  0.8563  2.5708  1.3859
  294SOL    HW2 1453   3.135   6.613   4.342  0.6201  0.3695 -1.0353
  295SOL     OW 1454   4.789   1.913   4.303 -0.0612  0.8523 -0.0768
  295SOL    HW1 1455   4.730   1.981   4.270 -0.4486  0.7546  0.4087
  295SOL    HW2 1456   4.757   1.895   4.391 -1.3969 -1.5545 -0.9570
  296SOL     OW 1457   5.526   7.144   1.302 -0.2115  0.8746 -0.1679
  296SOL    HW1 1458   5.604   7.185   1.265  0.8860 -0.6597  0.3367
  296SOL    HW2 1459   5.461   7.149   1.231  0.3443  2.1084 -0.6237
  297SOL     OW 1460   6.093   4.368   1.290  0.6120 -0.4480  0.1536
  297SOL    HW1 1461   6.179   4.329   1.282  0.0210 -2.7929  3.3470
  297SOL    HW2 1462   6.032   4.298   1.265 -0.4775  1.0641 -1.7675
  298SOL     OW 1463   5.418   1.540   4.339 -0.0864  0.2235 -0.5898
  298SOL    HW1 1464   5.342   1.544   4.397 -1.4420 -0.3120 -2.2707
  298SOL    HW2 1465   5.468   1.465   4.371  0.1623  1.0130  0.9799
  299SOL     OW 1466   6.998   2.916   2.502  0.3700 -0.2150 -0.5494
  299SOL    HW1 1467   7.060   2.861   2.454 -0.9575 -2.8533  0.5685
  299SOL    HW2 1468   6.919   2.917   2.448  0.7868  1.7769 -1.1892
  300SOL     OW 1469   5.797   2.867   4.435  0.1654  0.0587 -0.4605
  300SOL    HW1 1470   5.760   2.905   4.356 -0.5420  0.9142  0.2564
  300SOL    HW2 1471   5.888   2.899   4.437 -0.3868  1.7077  0.0801
  301SOL     OW 1472   7.259   4.519   5.294 -0.2741 -0.0757 -0.0712
  301SOL    HW1 1473   7.250   4.528   5.389 -0.8818  0.6320 -0.1860
  301SOL    HW2 1474   7.276   4.426   5.280 -0.8580 -0.3072  0.6777
  302SOL     OW 1475   7.154   1.253   2.446 -0.4210  0.5870 -0.4718
  302SOL    HW1 1476   7.193   1.186   2.391 -0.3544  0.1345  0.1141
  302SOL    HW2 1477   7.227   1.311   2.468 -0.5832  1.1737 -1.4186
  303SOL     OW 1478   1.303   0.236   5.514 -0.6335  0.1437  0.0096
  303SOL    HW1 1479   1.297   0.243   5.609  0.3990 -0.5282  0.1430
  303SOL    HW2 1480   1.274   0.321   5.481 -0.9709  0.3924  0.9242
  304SOL     OW 1481   4.231   4.880   5.250 -0.3315 -0.0394  0.3798
  304SOL    HW1 1482   4.245   4.786   5.248 -0.2532 -0.0533  1.2389
  304SOL    HW2 1483   4.198   4.901   5.163 -0.3541 -0.8572  0.1823
  305SOL     OW 1484   5.127   0.164   0.328 -0.2321 -0.6238 -0.2930
  305SOL    HW1 1485   5.222   0.168   0.320 -0.1316  0.1046  0.9206
  305SOL    HW2 1486   5.097   0.121   0.248  0.9352  1.1504 -1.7682
  306SOL     OW 1487   3.320   1.863   1.754  0.0980  0.4930  0.6653
  306SOL    HW1 1488   3.238   1.876   1.708 -0.2470  0.2418  1.1941
  306SOL    HW2 1489   3.332   1.943   1.806  0.3979  0.7017  0.2834
  307SOL     OW 1490   4.333   5.981   1.364  0.2394 -0.2565 -0.3071
  307SOL    HW1 1491   4.253   5.986   1.416  1.2287  1.1575  1.1418
  307SOL    HW2 1492   4.389   5.919   1.411 -0.2846 -2.0224 -1.8373
  308SOL     OW 1493   3.828   4.308   6.441  0.0728 -0.4072  0.1627
  308SOL    HW1 1494   3.913   4.348   6.458  0.9787 -1.3447 -1.8248
  308SOL    HW2 1495   3.777   4.378   6.400  0.4446 -0.2954 -0.1114
  309SOL     OW 1496   0.525   0.088   2.961 -0.4820  0.2894  0.5849
  309SOL    HW1 1497   0.437   0.058   2.986 -1.2512  1.9953  0.0881
  309SOL    HW2 1498   0.566   0.010   2.923 -2.3250 -0.2158 -0.5465
  310SOL     OW 1499   6.490   6.961   5.515  0.1793  0.0026 -0.0944
  310SOL    HW1 1500   6.582   6.976   5.538  0.6177  0.4617 -1.9257
  310SOL    HW2 1501   6.482   6.866   5.509  0.9614 -0.0151 -1.3263
  311SOL     OW 1502   3.494   5.490   1.437 -0.3429  0.1098  0.1045
  311SOL    HW1 1503   3.444   5.569   1.459 -0.4117 -0.1481  0.8910
  311SOL    HW2 1504   3.443   5.448   1.368 -0.5553  0.5047  0.0166
  312SOL     OW 1505   1.573   4.881   1.602 -0.6304 -0.5794 -0.5059
  312SOL    HW1 1506   1.543   4.847   1.518 -0.3609 -0.2928 -0.7171
  312SOL    HW2 1507   1.603   4.803   1.649 -1.3711 -0.8283 -0.4206
  313SOL     OW 1508   6.169   1.889   0.792  0.5506 -0.5575  0.1154
  313SOL    HW1 1509   6.165   1.905   0.698 -1.8821  1.3287  0.4491
  313SOL    HW2 1510   6.139   1.799   0.802  0.9744 -0.8292 -0.8970
  314SOL     OW 1511   6.832   1.040   3.664  0.4433 -0.2881 -0.4143
  314SOL    HW1 1512   6.917   1.048   3.621  0.3268  0.3584 -0.5359
  314SOL    HW2 1513   6.779   1.109   3.624 -0.6669 -1.7402 -1.5641
  315SOL     OW 1514   0.248   3.077   1.712 -0.1255 -0.0536  0.5147
  315SOL    HW1 1515   0.338   3.105   1.729  0.5595 -0.7845 -1.6725
  315SOL    HW2 1516   0.198   3.159   1.709  0.9213  0.5855 -0.6452
  316SOL     OW 1517   0.078   6.566   6.148 -0.2809 -0.2234  0.3866
  316SOL    HW1 1518   0.168   6.581   6.118 -1.4701  2.5986 -2.3184
  316SOL    HW2 1519   0.048   6.491   6.097  0.0755 -0.2504  0.2112
  317SOL     OW 1520   3.675   0.067   4.709 -0.1085  0.1048  0.0971
  317SOL    HW1 1521   3.643   0.052   4.620 -0.6918  0.6073  0.2158
  317SOL    HW2 1522   3.649   0.157   4.729  0.1056  0.0290  0.7421
  318SOL     OW 1523   0.099   5.747   1.828  0.8239 -0.2679  0.4585
  318SOL    HW1 1524   0.063   5.831   1.857 -0.2472 -1.0974  1.6662
  318SOL    HW2 1525   0.083   5.744   1.734  0.1516  0.5524  0.5384
  319SOL     OW 1526   1.312   2.471   2.161  0.8882  0.6607  0.0273
  319SOL    HW1 1527   1.385   2.479   2.100 -0.5447  2.2429 -1.6120
  319SOL    HW2 1528   1.234   2.466   2.104 -0.5437  2.4244  1.6849
  320SOL     OW 1529   3.498   4.936   0.997 -0.1900  0.3384  0.0368
  320SOL    HW1 1530   3.444   4.858   1.010 -0.7210  0.7927  0.6009
  320SOL    HW2 1531   3.435   5.005   0.974  0.4943 -0.0121 -3.4747
  321SOL     OW 1532   6.458   1.171   4.067 -0.2705  0.2854  0.2109
  321SOL    HW1 1533   6.430   1.260   4.087  0.9306  0.7565 -0.0783
  321SOL    HW2 1534   6.534   1.183   4.009 -1.0548 -0.9617 -1.1197
  322SOL     OW 1535   2.374   0.712   3.291  0.4367 -0.5063  0.2459
  322SOL    HW1 1536   2.316   0.780   3.258  0.3673 -0.2385  0.8933
  322SOL    HW2 1537   2.318   0.658   3.347  0.8356 -0.1314  1.0357
  323SOL     OW 1538   6.512   0.053   1.863  0.0984 -0.2628  0.0516
  323SOL    HW1 1539   6.494   0.120   1.797  1.6894  0.2261  0.0707
  323SOL    HW2 1540   6.429   0.005   1.873 -0.4062  0.2095 -1.6564
  324SOL     OW 1541   5.256   1.710   6.470  0.3697 -0.0925  0.1945
  324SOL    HW1 1542   5.323   1.723   6.403 -0.1342 -0.3796 -0.3767
  324SOL    HW2 1543   5.221   1.797   6.486  0.7224  0.0249  0.3258
  325SOL     OW 1544   1.550   1.593   1.214 -0.8590  1.0443  0.1318
  325SOL    HW1 1545   1.624   1.590   1.275 -0.2325 -0.0207 -0.6514
  325SOL    HW2 1546   1.582   1.641   1.138 -1.2519  1.3203  0.1355
  326SOL     OW 1547   6.353   2.718   0.511 -0.2757  0.2472  0.1029
  326SOL    HW1 1548   6.311   2.790   0.559 -2.4846 -1.5542  1.0589
  326SOL    HW2 1549   6.280   2.660   0.487  1.1569 -0.6278 -2.5452
  327SOL     OW 1550   6.521   5.534   6.848 -0.1081 -0.2534  0.8350
  327SOL    HW1 1551   6.586   5.466   6.863  0.8729  0.5195  0.2331
  327SOL    HW2 1552   6.494   5.561   6.935  0.6470 -0.3458  1.1037
  328SOL     OW 1553   3.800   5.029   0.745 -0.2073  0.0088  0.3815
  328SOL    HW1 1554   3.873   5.062   0.692  0.4570 -2.1697 -0.1530
  328SOL    HW2 1555   3.822   5.055   0.834  0.3743  0.8184  0.0139
  329SOL     OW 1556   1.243   4.521   5.669  0.2031 -0.0585  0.1250
  329SOL    HW1 1557   1.317   4.536   5.610  0.6912 -1.5970  0.2993
  329SOL    HW2 1558   1.256   4.432   5.701 -1.3560 -0.1044  0.7081
  330SOL     OW 1559   4.799   1.261   6.312  0.1253  0.3683 -0.0619
  330SOL    HW1 1560   4.772   1.221   6.230 -0.6673 -0.0715  0.4128
  330SOL    HW2 1561   4.895   1.264   6.306  0.0681  0.5278 -1.0819
  331SOL     OW 1562   4.936   7.256   6.759 -0.2695  0.2600  0.2629
  331SOL    HW1 1563   4.876   7.195   6.801 -0.6659  1.8132  2.1112
  331SOL    HW2 1564   4.882   7.332   6.738  0.6582  0.9186  0.2041
  332SOL     OW 1565   3.540   6.451   0.274 -0.1881 -0.1971 -0.7966
  332SOL    HW1 1566   3.521   6.420   0.363 -0.2460 -0.2129 -0.8139
  332SOL    HW2 1567   3.560   6.371   0.225  2.6954  0.0372 -0.1396
  333SOL     OW 1568   4.753   5.083   5.575  0.3048  0.3693 -0.0047
  333SOL    HW1 1569   4.790   4.994   5.577  0.2240  0.1906 -2.6626
  333SOL    HW2 1570   4.827   5.139   5.599  0.2303 -0.3734  2.2151
  334SOL     OW 1571   6.459   0.190   2.792 -0.3393 -0.3866 -0.2750
  334SOL    HW1 1572   6.551   0.177   2.770 -0.2998 -0.3657 -0.1180
  334SOL    HW2 1573   6.453   0.283   2.815 -0.9274  0.3545 -2.9918
  335SOL     OW 1574   1.119   1.952   7.334 -0.3594 -0.1137  0.2032
  335SOL    HW1 1575   1.196   1.896   7.326 -0.3917 -0.0208 -0.8545
  335SOL    HW2 1576   1.151   2.040   7.312 -0.5918  0.0679  0.5712
  336SOL     OW 1577   0.613   2.793   2.784 -0.1765 -0.1156 -0.1707
  336SOL    HW1 1578   0.683   2.776   2.847  0.2530  0.2237 -0.5531
  336SOL    HW2 1579   0.581   2.881   2.805 -0.1200 -0.0532 -0.3422
  337SOL     OW 1580   2.606   2.509   6.182 -0.1659  0.1178 -0.0224
  337SOL    HW1 1581   2.665   2.464   6.243 -0.0129  1.2940  0.7387
  337SOL    HW2 1582   2.650   2.592   6.164 -0.6099  0.1248 -1.1036
  338SOL     OW 1583   6.033   7.258   3.377  0.0508 -0.0921  1.3318
  338SOL    HW1 1584   6.061   7.167   3.388  0.5138 -0.1444 -0.1261
  338SOL    HW2 1585   6.021   7.268   3.283 -1.5801  0.9079  1.6128
  339SOL     OW 1586   6.522   4.848   6.131  0.3219 -0.1673 -0.5329
  339SOL    HW1 1587   6.560   4.898   6.058  0.6113  1.7224  0.8357
  339SOL    HW2 1588   6.431   4.877   6.136  0.6934  0.8987  0.7582
  340SOL     OW 1589   4.935   6.631   0.443  0.1112  0.7425 -0.2475
  340SOL    HW1 1590   4.915   6.715   0.403  0.0375  0.2651 -1.2381
  340SOL    HW2 1591   4.850   6.594   0.467  0.0982  0.6611 -0.4167
  341SOL     OW 1592   5.975   5.235   5.724 -0.2757  0.0910 -0.2537
  341SOL    HW1 1593   6.069   5.246   5.708 -0.2974 -2.2205 -2.7710
  341SOL    HW2 1594   5.935   5.249   5.638 -2.4400  2.3317  1.0287
  342SOL     OW 1595   0.084   0.381   0.780 -0.6599  0.1049  0.2873
  342SOL    HW1 1596   0.065   0.470   0.750  0.0131  1.1640  2.7819
  342SOL    HW2 1597   0.162   0.357   0.730 -0.4312  1.1880  0.0813
  343SOL     OW 1598   0.577   2.575   7.197  0.8075  0.9273 -0.2618
  343SOL    HW1 1599   0.546   2.538   7.114 -1.7432  1.1290  0.5270
  343SOL    HW2 1600   0.504   2.564   7.257  3.7059 -2.4977  3.1125
  344SOL     OW 1601   3.446   0.471   6.683 -0.5385  0.1231  1.4598
  344SOL    HW1 1602   3.511   0.541   6.687 -3.4843  3.0835  1.2048
  344SOL    HW2 1603   3.389   0.486   6.758 -0.7641 -2.6643  1.9631
  345SOL     OW 1604   0.384   2.399   4.875  0.0375 -0.9191 -0.2641
  345SOL    HW1 1605   0.378   2.315   4.828  0.0905 -1.4418  0.6355
  345SOL    HW2 1606   0.358   2.378   4.965 -1.3719  0.3310 -0.3483
  346SOL     OW 1607   1.129   2.144   6.889  0.3021  0.7945 -0.0844
  346SOL    HW1 1608   1.198   2.201   6.922  2.2044 -1.9322  0.9226
  346SOL    HW2 1609   1.119   2.170   6.797  0.2854  3.3831  0.5585
  347SOL     OW 1610   4.373   2.421   6.509  0.2119 -0.2139 -0.2581
  347SOL    HW1 1611   4.421   2.459   6.583  0.6899 -0.6074 -0.3624
  347SOL    HW2 1612   4.290   2.468   6.509  0.1647 -0.2745  0.5908
  348SOL     OW 1613   5.864   1.640   1.608 -0.3426  0.0389 -0.3340
  348SOL    HW1 1614   5.837   1.549   1.620  0.8211 -0.4422 -1.1947
  348SOL    HW2 1615   5.881   1.672   1.696 -0.4727 -0.6631 -0.0470
  349SOL     OW 1616   5.514   1.052   1.041  0.3181 -0.4637  0.3107
  349SOL    HW1 1617   5.456   1.104   1.096  2.5122  2.1329  0.4272
  349SOL    HW2 1618   5.517   0.966   1.082 -1.5925  0.0419  1.6074
  350SOL     OW 1619   1.488   2.750   2.908 -0.3283 -0.2265  0.3930
  350SOL    HW1 1620   1.554   2.714   2.966  0.5314  0.8553  0.1269
  350SOL    HW2 1621   1.529   2.829   2.871 -0.6012 -1.1896 -2.1498
  351SOL     OW 1622   6.207   2.605   1.117  0.5601 -0.0169  0.2955
  351SOL    HW1 1623   6.121   2.648   1.110  0.1605 -0.9934 -1.3534
  351SOL    HW2 1624   6.187   2.513   1.129  1.3985 -0.0861  1.2403
  352SOL     OW 1625   5.108   2.261   1.656  0.7269 -0.2063  0.0312
  352SOL    HW1 1626   5.040   2.210   1.699 -1.0206  0.5737 -1.6716
  352SOL    HW2 1627   5.114   2.341   1.708  1.3347 -0.8390  0.9621
  353SOL     OW 1628   6.559   5.450   5.498 -0.4579  0.2141 -0.6387
  353SOL    HW1 1629   6.483   5.393   5.484 -0.3325  0.4514 -2.4953
  353SOL    HW2 1630   6.550   5.519   5.433 -1.2622  3.1470  2.2823
  354SOL     OW 1631   3.265   4.671   3.736 -0.4657 -0.0860 -0.6976
  354SOL    HW1 1632   3.259   4.764   3.717 -1.5344 -0.0657 -0.2936
  354SOL    HW2 1633   3.199   4.655   3.803  1.1470 -0.7315  0.8275
  355SOL     OW 1634   5.237   3.056   0.160 -0.0795  0.1614 -0.4279
  355SOL    HW1 1635   5.261   3.035   0.251  1.0425  1.7335 -0.3317
  355SOL    HW2 1636   5.257   3.149   0.151 -1.3982  0.3348 -1.9273
  356SOL     OW 1637   5.567   5.878   6.625 -0.3517  0.7916  0.0280
  356SOL    HW1 1638   5.550   5.792   6.662 -0.7439  0.1816 -1.5128
  356SOL    HW2 1639   5.640   5.912   6.677 -1.3614  0.3309  1.8486
  357SOL     OW 1640   1.916   6.893   1.318  0.2423 -0.6404  0.0396
  357SOL    HW1 1641   1.899   6.807   1.281  3.6845 -0.3590 -2.6496
  357SOL    HW2 1642   1.983   6.878   1.384  0.3099 -0.0826  0.1061
  358SOL     OW 1643   3.896   6.063   1.239  0.2964  0.7402  0.3481
  358SOL    HW1 1644   3.942   6.002   1.296  0.4962  1.2580  0.7508
  358SOL    HW2 1645   3.941   6.056   1.155  0.6451  0.7053  0.5346
  359SOL     OW 1646   3.417   1.196   2.181 -0.5137  0.3706 -0.0270
  359SOL    HW1 1647   3.323   1.177   2.191 -0.2951 -0.1524  1.1496
  359SOL    HW2 1648   3.420   1.262   2.112 -1.8415  1.1669  0.6290
  360SOL     OW 1649   1.425   5.467   6.312 -0.1614  0.1736 -0.4246
  360SOL    HW1 1650   1.373   5.417   6.249 -0.4591 -0.6428  0.4340
  360SOL    HW2 1651   1.376   5.548   6.325  0.5600  0.9353 -2.1815
  361SOL     OW 1652   4.932   1.884   7.082  0.5617 -0.1079 -0.4101
  361SOL    HW1 1653   4.890   1.845   7.159  1.2400 -0.1377 -0.0411
  361SOL    HW2 1654   5.026   1.883   7.103  0.6990  0.5116 -0.9514
  362SOL     OW 1655   5.016   6.946   5.349 -0.5291  0.1978  0.0210
  362SOL    HW1 1656   5.064   6.921   5.270 -1.3317 -0.1613 -0.3680
  362SOL    HW2 1657   4.943   6.999   5.317 -1.2080 -0.4528  0.4510
  363SOL     OW 1658   0.458   2.407   4.193  0.1646 -0.0850  0.1675
  363SOL    HW1 1659   0.401   2.392   4.118 -0.8332 -0.1215  0.9174
  363SOL    HW2 1660   0.399   2.432   4.264  0.9897 -0.9043  1.1822
  364SOL     OW 1661   2.852   0.460   4.966  0.0423  0.4277 -0.1808
  364SOL    HW1 1662   2.798   0.462   4.887  2.1756  0.8758 -1.7172
  364SOL    HW2 1663   2.812   0.524   5.025 -1.6845 -0.0323 -0.7865
  365SOL     OW 1664   3.202   4.545   6.547  0.0039 -0.4419 -0.3769
  365SOL    HW1 1665   3.216   4.509   6.460  0.9240  0.6980 -0.7253
  365SOL    HW2 1666   3.283   4.526   6.594 -0.7595 -1.6966  0.4856
  366SOL     OW 1667   6.205   2.177   6.223 -0.4997 -0.1096 -0.1277
  366SOL    HW1 1668   6.133   2.152   6.166 -0.2888 -0.2418 -0.3366
  366SOL    HW2 1669   6.256   2.240   6.172 -1.1839  0.9873  0.4927
  367SOL     OW 1670   1.071   3.224   2.744  0.0894 -0.0862 -0.0772
  367SOL    HW1 1671   1.120   3.203   2.665 -2.9145 -0.8560 -1.9258
  367SOL    HW2 1672   1.025   3.142   2.765 -1.5691  0.9604  0.5759
  368SOL     OW 1673   6.003   3.183   1.881 -0.1470  0.0473  0.0277
  368SOL    HW1 1674   5.920   3.143   1.856 -0.9075  2.0282 -0.8575
  368SOL    HW2 1675   6.055   3.111   1.916 -2.2105 -1.2711  0.5917
  369SOL     OW 1676   1.154   3.980   3.592 -0.1282 -0.0671  0.8829
  369SOL    HW1 1677   1.073   3.991   3.640 -1.1630  0.9758 -0.9700
  369SOL    HW2 1678   1.211   4.051   3.622  0.0256 -0.6435  1.9913
  370SOL     OW 1679   5.897   6.149   0.440  0.2339  0.7724  0.5594
  370SOL    HW1 1680   5.851   6.127   0.521 -1.2799  0.6355 -0.3043
  370SOL    HW2 1681   5.979   6.099   0.445 -0.6859 -0.7601  1.1447
  371SOL     OW 1682   5.499   0.378   2.489 -0.0387 -0.2206  0.3533
  371SOL    HW1 1683   5.553   0.453   2.513 -1.6564  1.6880 -1.5267
  371SOL    HW2 1684   5.413   0.415   2.471 -1.4921 -2.8484  1.2678
  372SOL     OW 1685   5.247   3.591   1.830  0.1664  0.1279  0.5553
  372SOL    HW1 1686   5.175   3.583   1.892  1.0779  0.9939  1.7915
  372SOL    HW2 1687   5.240   3.514   1.774 -1.2429 -0.1949  1.1515
  373SOL     OW 1688   6.650   1.673   1.855  0.6344  0.0659  0.5378
  373SOL    HW1 1689   6.616   1.720   1.778 -1.3524  1.7668  2.3437
  373SOL    HW2 1690   6.677   1.742   1.915  0.1019 -1.1700  2.2652
  374SOL     OW 1691   1.061   4.855   7.066  0.0809  0.3552 -0.2402
  374SOL    HW1 1692   1.118   4.877   6.992  1.5834  1.0192  1.0728
  374SOL    HW2 1693   0.978   4.899   7.045  0.4841  0.5748 -1.4971
  375SOL     OW 1694   0.591   0.296   1.882  0.1988  0.3069  0.3610
  375SOL    HW1 1695   0.556   0.225   1.935 -0.5179 -0.1238 -0.6542
  375SOL    HW2 1696   0.565   0.376   1.928 -0.0348 -0.0636  0.8776
  376SOL     OW 1697   4.524   4.182   2.043 -0.1227 -0.0206  0.0885
  376SOL    HW1 1698   4.431   4.180   2.020 -0.4562  2.1923  1.0167
  376SOL    HW2 1699   4.546   4.275   2.047  2.2589 -0.4817 -0.5096
  377SOL     OW 1700   5.904   1.868   1.231  0.1005  0.3375 -0.2316
  377SOL    HW1 1701   5.876   1.793   1.178 -0.1723  1.0880 -1.1778
  377SOL    HW2 1702   5.827   1.924   1.235  0.3721  0.6786  0.2906
  378SOL     OW 1703   6.680   5.343   3.739  0.1559 -0.1298 -0.0997
  378SOL    HW1 1704   6.637   5.376   3.660  1.3588  1.8172 -0.0032
  378SOL    HW2 1705   6.612   5.348   3.806 -0.9260 -1.9463 -0.9930
  379SOL     OW 1706   0.057   7.116   3.660  0.1485 -0.3160  0.0590
  379SOL    HW1 1707   0.045   7.101   3.754  1.8709 -0.7658  0.2293
  379SOL    HW2 1708   0.048   7.029   3.621 -0.1993 -0.1836 -0.1615
  380SOL     OW 1709   7.283   3.307   4.897  0.7146 -0.2394  0.0881
  380SOL    HW1 1710   7.321   3.282   4.813  0.0901  1.8845 -0.8887
  380SOL    HW2 1711   7.193   3.274   4.893  0.7462 -0.3171  0.0144
  381SOL     OW 1712   5.592   2.931   5.264  0.3381 -0.3126  0.1721
  381SOL    HW1 1713   5.565   2.922   5.173  0.9662 -0.7058  0.0152
  381SOL    HW2 1714   5.551   2.857   5.309 -1.7210  1.0471  0.6576
  382SOL     OW 1715   4.997   3.295   6.613 -0.1455 -0.4610 -0.6414
  382SOL    HW1 1716   4.927   3.264   6.555 -0.4100  0.7784 -1.0168
  382SOL    HW2 1717   4.962   3.282   6.701 -0.8782  0.1317 -0.8238
  383SOL     OW 1718   2.806   4.292   2.417  0.0105 -0.4004 -0.1916
  383SOL    HW1 1719   2.889   4.281   2.464 -0.5181  0.7199  1.1034
  383SOL    HW2 1720   2.789   4.206   2.378  0.5326 -1.4009  1.6364
  384SOL     OW 1721   3.015   5.235   1.523 -0.3975 -0.0788 -0.2205
  384SOL    HW1 1722   3.059   5.167   1.574  1.5608  2.5899  1.9115
  384SOL    HW2 1723   2.971   5.289   1.588 -1.2736  1.1435 -1.7747
  385SOL     OW 1724   1.926   3.140   6.206  0.0725 -0.1158  0.2175
  385SOL    HW1 1725   1.912   3.053   6.167  0.0127 -0.1470  0.3079
  385SOL    HW2 1726   1.888   3.200   6.142  1.2810 -0.0536 -0.4736
  386SOL     OW 1727   1.804   2.847   5.002  0.5335  0.2460 -0.4249
  386SOL    HW1 1728   1.894   2.863   4.975  0.3100  2.1092 -0.1397
  386SOL    HW2 1729   1.813   2.800   5.085  1.2092 -0.5861 -0.9392
  387SOL     OW 1730   2.812   4.431   1.109 -0.1527  0.1687 -0.0484
  387SOL    HW1 1731   2.769   4.482   1.041  0.5205  0.2806 -0.3970
  387SOL    HW2 1732   2.887   4.485   1.136  0.7856 -0.7718 -0.6826
  388SOL     OW 1733   7.308   6.003   2.806 -0.3308 -0.6687  0.2435
  388SOL    HW1 1734   7.314   6.063   2.881 -1.1446 -0.1713 -0.0747
  388SOL    HW2 1735   7.333   5.918   2.841  1.3398 -0.0701  0.5959
  389SOL     OW 1736   5.001   4.152   0.818 -0.0959  0.4290  0.1750
  389SOL    HW1 1737   4.988   4.188   0.730 -0.4608  2.6871  1.0793
  389SOL    HW2 1738   5.096   4.148   0.829 -0.0502  0.0517 -0.3385
  390SOL     OW 1739   1.483   3.042   5.864 -0.7091 -0.2112 -0.3756
  390SOL    HW1 1740   1.486   3.074   5.774 -1.8275 -1.5630 -0.9500
  390SOL    HW2 1741   1.569   3.004   5.879 -0.9331 -1.1891 -1.3940
  391SOL     OW 1742   2.067   5.646   2.238  0.2155  0.3513 -0.5713
  391SOL    HW1 1743   1.991   5.690   2.277 -1.5892 -0.2697 -3.1908
  391SOL    HW2 1744   2.041   5.554   2.231  1.7607 -0.1294 -0.3294
  392SOL     OW 1745   3.996   2.490   3.831 -0.2348 -0.6867  0.2018
  392SOL    HW1 1746   4.056   2.436   3.781  0.7351  0.2408  0.3328
  392SOL    HW2 1747   4.014   2.579   3.802 -3.3052 -0.5172 -1.6331
  393SOL     OW 1748   4.614   6.755   5.180  0.3735  0.3689  0.7757
  393SOL    HW1 1749   4.552   6.701   5.132 -1.1280 -1.1772  4.1545
  393SOL    HW2 1750   4.698   6.709   5.173 -0.2217 -0.7887  1.0947
  394SOL     OW 1751   4.970   5.839   3.354  0.0437  0.0138 -0.2813
  394SOL    HW1 1752   5.025   5.846   3.276 -0.1333 -1.4309 -0.5709
  394SOL    HW2 1753   4.888   5.804   3.322  0.2539 -1.4143  0.6462
  395SOL     OW 1754   2.537   4.120   4.545  0.4874 -0.3741  0.1517
  395SOL    HW1 1755   2.448   4.120   4.510  0.0825 -0.9920  1.1305
  395SOL    HW2 1756   2.534   4.057   4.617  1.4317  0.4118  0.9056
  396SOL     OW 1757   0.427   3.774   5.716 -0.4523 -0.3200  0.0457
  396SOL    HW1 1758   0.434   3.777   5.621  1.4571  0.3236  0.1662
  396SOL    HW2 1759   0.466   3.856   5.746 -0.8015 -0.6220  1.3889
  397SOL     OW 1760   6.151   5.243   7.218 -0.7300  1.0036 -0.0844
  397SOL    HW1 1761   6.167   5.241   7.123  1.2765 -0.2875  0.2247
  397SOL    HW2 1762   6.134   5.151   7.241  0.3258  1.0645  1.0157
  398SOL     OW 1763   4.284   3.619   6.986 -0.0807  0.3647  0.4829
  398SOL    HW1 1764   4.208   3.600   6.931  0.0128  0.4466  0.3266
  398SOL    HW2 1765   4.334   3.537   6.986 -0.0897  0.3593  0.4612
  399SOL     OW 1766   1.533   0.575   4.073 -0.1672 -0.3830  0.3017
  399SOL    HW1 1767   1.513   0.576   3.979 -0.5620 -1.1656  0.3715
  399SOL    HW2 1768   1.527   0.666   4.100 -1.2615 -0.3030 -0.1787
  400SOL     OW 1769   6.677   6.824   4.209 -0.0732 -0.2647 -0.3166
  400SOL    HW1 1770   6.758   6.791   4.171  1.1837  2.0316  0.1925
  400SOL    HW2 1771   6.683   6.801   4.302  1.4532  2.3069  0.3281
  401SOL     OW 1772   3.292   4.593   5.741  0.3033 -0.2385 -0.8758
  401SOL    HW1 1773   3.292   4.585   5.645  0.1140  1.6144 -1.0561
  401SOL    HW2 1774   3.238   4.519   5.770  1.1430 -1.4013 -2.1116
  402SOL     OW 1775   6.701   1.118   3.053 -0.4747 -0.4493 -0.0174
  402SOL    HW1 1776   6.666   1.101   3.141 -0.0406 -0.8123  0.0932
  402SOL    HW2 1777   6.704   1.031   3.012 -0.5159 -0.3022 -0.3316
  403SOL     OW 1778   0.266   1.945   4.360 -0.0272  0.0942  0.2156
  403SOL    HW1 1779   0.337   1.984   4.308  1.1111 -0.1603  1.5197
  403SOL    HW2 1780   0.195   2.008   4.354  0.8725  1.1389  0.1667
  404SOL     OW 1781   3.878   0.405   1.577 -0.3328 -0.1010  0.3215
  404SOL    HW1 1782   3.941   0.473   1.552  0.1008 -0.7270 -0.3315
  404SOL    HW2 1783   3.804   0.454   1.614  0.1316  0.7003  0.2265
  405SOL     OW 1784   1.562   0.174   1.657 -0.4057 -0.0461 -0.2422
  405SOL    HW1 1785   1.545   0.133   1.742 -0.0691  0.0091 -0.1484
  405SOL    HW2 1786   1.492   0.141   1.601 -1.1740  0.6117  0.2851
  406SOL     OW 1787   0.089   0.402   0.256  1.0051 -0.5082 -0.5804
  406SOL    HW1 1788   0.022   0.335   0.265  1.4885 -0.7813  1.3466
  406SOL    HW2 1789   0.071   0.464   0.327  1.3520  0.7173 -1.5192
  407SOL     OW 1790   0.415   3.457   3.887 -0.1754  0.2573 -0.4511
  407SOL    HW1 1791   0.453   3.470   3.974  0.5102 -1.2788 -0.4779
  407SOL    HW2 1792   0.337   3.403   3.903 -1.5810  2.1748 -0.5500
  408SOL     OW 1793   2.760   4.392   6.872 -0.2308  0.0205  0.1633
  408SOL    HW1 1794   2.823   4.463   6.875 -0.5247  0.3358 -0.7872
  408SOL    HW2 1795   2.681   4.428   6.913 -0.3210  0.1768 -0.1500
  409SOL     OW 1796   6.608   1.842   3.555  0.1564 -0.6827  0.0109
  409SOL    HW1 1797   6.640   1.867   3.642 -0.4018 -2.7804  0.8879
  409SOL    HW2 1798   6.589   1.748   3.563 -1.4818 -0.5759 -1.9109
  410SOL     OW 1799   7.231   3.478   4.422 -0.0877  0.4339  0.4410
  410SOL    HW1 1800   7.162   3.479   4.356  1.7382  0.8277 -1.5733
  410SOL    HW2 1801   7.248   3.571   4.440  0.3050  0.3519  0.4954
  411SOL     OW 1802   5.026   5.896   5.254 -0.3778  0.7125  0.1282
  411SOL    HW1 1803   4.937   5.930   5.251  0.1392  2.0675 -0.6955
  411SOL    HW2 1804   5.081   5.969   5.226  0.7823 -0.8969 -2.0778
  412SOL     OW 1805   7.361   2.472   5.289 -0.5544  0.4266 -0.2054
  412SOL    HW1 1806   7.430   2.443   5.229 -1.5584  0.6754 -1.5231
  412SOL    HW2 1807   7.392   2.557   5.320 -0.3439  0.6418 -0.9651
  413SOL     OW 1808   5.622   3.441   1.663 -0.2751 -0.0571 -0.2391
  413SOL    HW1 1809   5.712   3.474   1.659 -0.4761  0.5621  0.1934
  413SOL    HW2 1810   5.579   3.497   1.728 -1.4793  0.8857 -1.7832
  414SOL     OW 1811   0.886   1.323   1.285  0.0518 -0.1327  0.6512
  414SOL    HW1 1812   0.866   1.413   1.260 -0.9469  0.3686  2.9809
  414SOL    HW2 1813   0.969   1.304   1.242 -0.4041  1.3836 -1.0242
  415SOL     OW 1814   4.197   4.632   6.385 -0.2525  0.0817  0.0485
  415SOL    HW1 1815   4.144   4.556   6.406 -0.7842  0.6188  0.7030
  415SOL    HW2 1816   4.136   4.706   6.392  0.8243  0.8463  1.9928
  416SOL     OW 1817   5.523   2.452   4.696 -0.2811  0.3412  0.0995
  416SOL    HW1 1818   5.580   2.438   4.620 -0.8803  0.4442 -0.3799
  416SOL    HW2 1819   5.557   2.531   4.736  0.5045 -0.1221  0.3786
  417SOL     OW 1820   1.389   0.025   0.397  0.3934  0.1906  0.0659
  417SOL    HW1 1821   1.302  -0.007   0.421  0.6467  0.7969  1.9393
  417SOL    HW2 1822   1.381   0.049   0.304 -0.6873 -2.1876 -0.5507
  418SOL     OW 1823   6.961   0.891   1.574 -0.1673  0.2202  0.1655
  418SOL    HW1 1824   6.983   0.972   1.621  0.4226  0.8300 -1.1086
  418SOL    HW2 1825   6.879   0.862   1.613  0.2073  0.8045  1.4355
  419SOL     OW 1826   1.099   3.147   6.064  0.4823 -0.0311  0.0102
  419SOL    HW1 1827   1.189   3.179   6.065 -0.0529  1.6119 -1.1177
  419SOL    HW2 1828   1.094   3.089   6.140  3.3286 -2.7200 -1.6271
  420SOL     OW 1829   4.070   5.749   2.835 -0.0698  0.2136  0.3440
  420SOL    HW1 1830   4.007   5.727   2.904 -0.4599  0.1375 -0.0286
  420SOL    HW2 1831   4.051   5.841   2.814 -1.0812 -0.2207 -0.7986
  421SOL     OW 1832   3.358   6.418   0.877  0.2926 -0.1811  0.1208
  421SOL    HW1 1833   3.375   6.324   0.869  0.5757 -0.0527 -1.1407
  421SOL    HW2 1834   3.431   6.451   0.929  0.9768 -0.4724 -0.6163
  422SOL     OW 1835   3.430   6.022   4.861  0.0210  0.3049  0.2029
  422SOL    HW1 1836   3.416   5.941   4.811  2.0176  0.4522 -0.7206
  422SOL    HW2 1837   3.344   6.044   4.896 -0.6018 -2.1956  0.4707
  423SOL     OW 1838   2.816   1.125   2.605  0.0091 -0.6242 -0.0136
  423SOL    HW1 1839   2.846   1.126   2.695  1.3850 -1.6454 -0.4426
  423SOL    HW2 1840   2.723   1.102   2.611  0.2078 -1.1862  1.1048
  424SOL     OW 1841   0.296   3.272   4.564  0.6309  0.1798 -0.1007
  424SOL    HW1 1842   0.276   3.323   4.485  0.5015 -1.4779 -1.1913
  424SOL    HW2 1843   0.328   3.336   4.627 -1.6400  1.9521 -0.6132
  425SOL     OW 1844   5.152   3.837   1.780  0.2546 -0.5119 -0.2447
  425SOL    HW1 1845   5.205   3.759   1.796  1.1565 -0.5042 -2.8126
  425SOL    HW2 1846   5.214   3.910   1.789  0.1541 -0.3373 -0.8986
  426SOL     OW 1847   3.613   2.643   2.480  0.2038  0.1472 -0.6186
  426SOL    HW1 1848   3.621   2.708   2.550  0.4945 -0.1441 -0.3756
  426SOL    HW2 1849   3.519   2.640   2.461  0.2199  0.8269 -0.8182
  427SOL     OW 1850   7.265   2.182   6.012 -0.5583 -0.9499 -0.2731
  427SOL    HW1 1851   7.300   2.243   6.077 -0.5924 -0.9284 -0.2745
  427SOL    HW2 1852   7.262   2.232   5.930 -2.1817 -0.4010  0.0794
  428SOL     OW 1853   1.206   0.853   7.150  0.0207  0.0146 -0.1602
  428SOL    HW1 1854   1.251   0.898   7.221  1.8339 -1.3275 -0.3850
  428SOL    HW2 1855   1.124   0.822   7.188  0.4396  0.3103  1.0035
  429SOL     OW 1856   3.866   4.904   5.301  0.4414  0.6370 -0.3883
  429SOL    HW1 1857   3.905   4.817   5.313 -0.6392  0.0211 -1.1547
  429SOL    HW2 1858   3.782   4.898   5.346 -0.6702  0.4885 -2.3539
  430SOL     OW 1859   4.612   4.031   4.181  0.7350  0.0907  0.2008
  430SOL    HW1 1860   4.569   4.068   4.103  0.0496 -2.0928 -0.5204
  430SOL    HW2 1861   4.576   4.082   4.254 -0.3383  0.6884 -0.7084
  431SOL     OW 1862   5.319   6.917   6.411  0.2864  0.3956  0.5309
  431SOL    HW1 1863   5.303   6.976   6.338 -2.4264  0.0408  0.7248
  431SOL    HW2 1864   5.401   6.873   6.390  0.1007  1.0475 -1.7960
  432SOL     OW 1865   5.452   5.417   3.940  0.2686  0.4181 -0.5110
  432SOL    HW1 1866   5.517   5.424   4.010 -0.1025 -1.8523  0.1612
  432SOL    HW2 1867   5.371   5.450   3.979  0.0492 -0.8965  0.2290
  433SOL     OW 1868   1.994   6.128   3.325  0.3862  0.7515 -0.0698
  433SOL    HW1 1869   2.037   6.169   3.250  2.2355  0.2834  0.7022
  433SOL    HW2 1870   2.054   6.060   3.354 -1.3282 -0.6335  0.4657
  434SOL     OW 1871   7.231   2.879   3.465  0.1260  0.0603 -0.9196
  434SOL    HW1 1872   7.157   2.842   3.513 -1.4438  2.4746 -1.3075
  434SOL    HW2 1873   7.301   2.887   3.530 -0.8904  0.3386  0.1594
  435SOL     OW 1874   4.992   6.372   5.310 -0.2033 -0.2345 -0.1058
  435SOL    HW1 1875   5.052   6.320   5.255  0.4812  0.9638 -0.5266
  435SOL    HW2 1876   5.024   6.462   5.302 -1.6964  0.3469  0.1590
  436SOL     OW 1877   1.966   4.593   3.392  0.3934 -0.2219  0.3257
  436SOL    HW1 1878   1.903   4.522   3.387  1.9914 -1.8523  1.6838
  436SOL    HW2 1879   2.048   4.555   3.361  1.1542  1.2461  0.4145
  437SOL     OW 1880   0.808   2.700   3.407 -0.0479  0.2945  0.6703
  437SOL    HW1 1881   0.815   2.651   3.325 -2.1144 -0.1972  0.7419
  437SOL    HW2 1882   0.898   2.701   3.441  0.6919 -0.3151 -1.1042
  438SOL     OW 1883   1.334   3.969   0.391 -0.6906 -0.3557  0.3474
  438SOL    HW1 1884   1.242   3.980   0.367 -0.5885 -1.7569 -0.8098
  438SOL    HW2 1885   1.336   3.987   0.485 -1.7301  1.8757 -0.0014
  439SOL     OW 1886   3.961   2.138   2.090  0.2580 -0.0219 -0.5036
  439SOL    HW1 1887   4.004   2.222   2.103  1.0986 -0.7630  2.3041
  439SOL    HW2 1888   4.021   2.074   2.129 -0.8719 -1.7874 -1.5113
  440SOL     OW 1889   2.105   1.839   3.798  0.2969  0.3109 -0.3134
  440SOL    HW1 1890   2.043   1.902   3.835  1.0607  0.0291  1.5560
  440SOL    HW2 1891   2.054   1.759   3.788  0.0089  0.4632 -0.1045
  441SOL     OW 1892   5.513   5.738   5.449 -0.4686 -0.4000  0.0279
  441SOL    HW1 1893   5.470   5.664   5.407  1.0301 -0.4237 -1.5609
  441SOL    HW2 1894   5.459   5.813   5.426  0.5176 -0.3474 -2.3900
  442SOL     OW 1895   4.603   4.825   3.612  0.3083  0.0708  0.3443
  442SOL    HW1 1896   4.609   4.829   3.708 -0.0329  0.5266  0.3471
  442SOL    HW2 1897   4.686   4.861   3.581  1.3206 -1.9567  0.4725
  443SOL     OW 1898   0.413   0.132   0.740  0.5353 -0.0340 -0.1113
  443SOL    HW1 1899   0.326   0.119   0.777 -0.3721 -0.0113 -2.1337
  443SOL    HW2 1900   0.473   0.105   0.810 -1.1145 -2.6448  0.4297
  444SOL     OW 1901   6.592   2.566   0.924 -0.2961  0.4771 -0.0014
  444SOL    HW1 1902   6.556   2.607   1.002 -1.0438  1.2972 -0.7506
  444SOL    HW2 1903   6.519   2.516   0.887 -0.2005  0.7755 -0.6153
  445SOL     OW 1904   4.248   7.047   5.727 -0.4071 -0.1725  0.3647
  445SOL    HW1 1905   4.194   6.968   5.721 -1.9277  0.8790 -0.3335
  445SOL    HW2 1906   4.207   7.099   5.795  1.0888 -0.3020  1.4247
  446SOL     OW 1907   3.826   6.092   1.995 -0.3424  0.2337 -0.4081
  446SOL    HW1 1908   3.841   6.104   2.089 -1.8013 -0.4566 -0.0641
  446SOL    HW2 1909   3.737   6.057   1.989  0.7769 -2.6333 -1.8709
  447SOL     OW 1910   5.925   6.201   2.309 -0.1004 -0.0758 -0.3340
  447SOL    HW1 1911   5.997   6.188   2.371 -0.9146  2.5469  1.2817
  447SOL    HW2 1912   5.857   6.141   2.338  0.3193 -0.4248 -0.0518
  448SOL     OW 1913   4.118   2.108   5.749 -0.3203  0.6368 -0.3395
  448SOL    HW1 1914   4.111   2.174   5.680  0.5078  0.6869 -0.3839
  448SOL    HW2 1915   4.033   2.065   5.750 -0.8894  1.7400 -0.2722
  449SOL     OW 1916   4.366   3.961   3.560 -0.4171  0.3777 -0.3578
  449SOL    HW1 1917   4.335   3.934   3.474 -0.4954  0.8936 -0.5000
  449SOL    HW2 1918   4.458   3.935   3.563 -0.0594  1.4692 -1.0954
  450SOL     OW 1919   1.836   7.356   0.575  0.1677  0.4217  0.1103
  450SOL    HW1 1920   1.899   7.422   0.601  0.3442  0.5091 -0.5307
  450SOL    HW2 1921   1.788   7.335   0.656  0.9841  0.3827  0.5906
  451SOL     OW 1922   2.293   2.153   1.513  0.2001  0.5764 -0.5217
  451SOL    HW1 1923   2.370   2.210   1.506  0.5731  0.1806  0.2121
  451SOL    HW2 1924   2.223   2.203   1.473  0.2860  2.0111  1.0093
  452SOL     OW 1925   5.283   4.114   6.104 -0.0614 -0.2072 -0.6149
  452SOL    HW1 1926   5.288   4.180   6.173  0.5646 -0.9243  0.0524
  452SOL    HW2 1927   5.191   4.113   6.077 -0.2076  0.4470 -0.1493
  453SOL     OW 1928   0.461   3.574   4.490 -0.2602  0.7897 -0.3638
  453SOL    HW1 1929   0.437   3.559   4.582 -2.0862 -0.2844 -0.9431
  453SOL    HW2 1930   0.426   3.661   4.470  0.4497  1.1737  0.0420
  454SOL     OW 1931   2.735   4.164   4.943  0.2719  0.2323 -0.1893
  454SOL    HW1 1932   2.652   4.207   4.924  0.8519  0.8716 -1.3418
  454SOL    HW2 1933   2.802   4.227   4.917  1.1407 -0.2405  0.7887
  455SOL     OW 1934   5.488   5.773   0.450  0.5092  0.1550 -0.3454
  455SOL    HW1 1935   5.517   5.702   0.393 -1.3219 -1.5450  0.7197
  455SOL    HW2 1936   5.523   5.853   0.409 -0.4349 -0.9751 -3.6455
  456SOL     OW 1937   1.526   2.236   0.166  0.1069  0.2530  0.7641
  456SOL    HW1 1938   1.450   2.256   0.111  0.0679  0.2849  0.8298
  456SOL    HW2 1939   1.595   2.294   0.134  0.0279  0.4100  0.8779
  457SOL     OW 1940   5.276   5.045   2.652 -0.3405 -0.2654  0.2798
  457SOL    HW1 1941   5.209   5.034   2.720  0.2015 -1.6680  0.6217
  457SOL    HW2 1942   5.230   5.031   2.570 -0.2649 -2.5440  0.5711
  458SOL     OW 1943   2.077   6.083   2.016  0.5391 -0.4386 -0.1876
  458SOL    HW1 1944   2.028   6.003   2.038 -0.5468  0.5128  1.0474
  458SOL    HW2 1945   2.088   6.127   2.100  2.0018  0.2491 -0.7095
  459SOL     OW 1946   4.077   2.572   5.726 -0.3006  0.1407  0.6939
  459SOL    HW1 1947   4.154   2.626   5.744 -1.0889  2.1366 -1.4598
  459SOL    HW2 1948   4.075   2.563   5.631 -0.1227 -4.0090  0.8957
  460SOL     OW 1949   0.801   2.603   6.567 -0.3730  0.5032  0.2053
  460SOL    HW1 1950   0.718   2.623   6.525 -0.7270  0.1955  0.7455
  460SOL    HW2 1951   0.783   2.527   6.622  0.3825  0.1403 -0.0302
  461SOL     OW 1952   5.295   4.359   6.480 -0.0582 -0.1635 -0.5630
  461SOL    HW1 1953   5.201   4.349   6.469 -0.0156  0.0858 -1.1814
  461SOL    HW2 1954   5.306   4.389   6.570 -0.5079 -1.0418 -0.1991
  462SOL     OW 1955   5.864   5.615   1.975  0.3478 -1.0105  0.6774
  462SOL    HW1 1956   5.924   5.661   1.917 -2.7785  1.5181 -0.8423
  462SOL    HW2 1957   5.908   5.617   2.060  2.3672  0.7639 -0.2863
  463SOL     OW 1958   4.215   5.258   5.171 -0.1168 -0.2757  0.1796
  463SOL    HW1 1959   4.169   5.273   5.089 -0.9602  0.3259  0.7411
  463SOL    HW2 1960   4.148   5.227   5.231  0.4140 -0.3611  0.7391
  464SOL     OW 1961   3.398   7.167   4.044 -0.5614 -0.3413 -0.2091
  464SOL    HW1 1962   3.308   7.190   4.021 -0.8030  0.2442  1.1682
  464SOL    HW2 1963   3.389   7.112   4.122  0.2816  0.3175  0.3701
  465SOL     OW 1964   5.233   4.931   3.947 -0.1299  0.0180 -0.1999
  465SOL    HW1 1965   5.245   4.981   4.028  1.5867 -1.0503  0.2595
  465SOL    HW2 1966   5.321   4.901   3.924 -0.9578 -2.0142 -0.9568
  466SOL     OW 1967   6.310   3.633   3.547  0.7885  0.2261 -0.2409
  466SOL    HW1 1968   6.286   3.541   3.538 -2.8610  1.1388 -1.7227
  466SOL    HW2 1969   6.247   3.668   3.610  1.9270  1.8218  0.0881
  467SOL     OW 1970   5.300   7.220   2.646 -0.0906  0.0081  0.0388
  467SOL    HW1 1971   5.321   7.193   2.735 -0.5610 -1.8827 -0.3934
  467SOL    HW2 1972   5.385   7.245   2.608  0.0613  1.2285  1.1038
  468SOL     OW 1973   0.103   7.042   0.440 -0.0293  0.0967 -0.2387
  468SOL    HW1 1974   0.176   7.031   0.501  0.4426  2.3182 -0.3272
  468SOL    HW2 1975   0.037   7.088   0.490 -0.3580  0.3436 -0.8921
  469SOL     OW 1976   2.793   3.794   0.534  0.4883 -0.2853 -0.1050
  469SOL    HW1 1977   2.776   3.731   0.464 -0.0467 -0.5195  0.2316
  469SOL    HW2 1978   2.810   3.739   0.611  1.3273 -0.0364 -0.0951
  470SOL     OW 1979   1.142   4.722   1.641 -0.0390  0.1644 -0.2429
  470SOL    HW1 1980   1.148   4.627   1.630  1.0389 -0.0959  2.0679
  470SOL    HW2 1981   1.117   4.734   1.733  1.8168  2.1330  0.0832
  471SOL     OW 1982   0.593   2.668   6.396  0.3921  0.0053  0.2058
  471SOL    HW1 1983   0.588   2.759   6.367 -1.8918 -0.3928 -0.8228
  471SOL    HW2 1984   0.645   2.624   6.328 -0.9836  0.0011 -0.8826
  472SOL     OW 1985   2.787   3.701   6.214 -0.4496 -0.3930  0.1065
  472SOL    HW1 1986   2.723   3.772   6.227  0.0354  0.0504  0.0776
  472SOL    HW2 1987   2.866   3.733   6.257 -0.0426 -0.6522 -0.4545
  473SOL     OW 1988   1.034   2.310   5.825 -0.4799  0.2912 -0.2818
  473SOL    HW1 1989   1.096   2.279   5.759 -1.0757 -2.1953  0.2167
  473SOL    HW2 1990   0.952   2.265   5.803 -1.5471  1.8421  0.3409
  474SOL     OW 1991   1.555   6.462   4.519 -0.3414 -0.4523  0.1563
  474SOL    HW1 1992   1.535   6.547   4.479 -1.5674 -0.9225 -0.2770
  474SOL    HW2 1993   1.572   6.403   4.446  0.7663 -0.5425  0.4642
  475SOL     OW 1994   4.123   4.871   2.564  0.0749  0.4951 -0.2248
  475SOL    HW1 1995   4.080   4.907   2.642  0.6912  1.6319 -0.3900
  475SOL    HW2 1996   4.216   4.889   2.577  0.4896 -1.5557 -0.0710
  476SOL     OW 1997   4.149   6.708   1.519 -0.5141  0.1329  0.2345
  476SOL    HW1 1998   4.065   6.726   1.562 -0.9581 -0.6551 -0.2760
  476SOL    HW2 1999   4.182   6.629   1.562 -0.6531 -0.2897 -0.4195
  477SOL     OW 2000   6.348   6.403   4.147 -0.1117  0.0730  0.0497
  477SOL    HW1 2001   6.340   6.494   4.118 -1.5264  0.0355  0.2428
  477SOL    HW2 2002   6.277   6.392   4.210  0.0333 -1.1736  0.0173
  478SOL     OW 2003   1.264   1.640   4.872  0.0463  0.0036 -0.2298
  478SOL    HW1 2004   1.267   1.720   4.925 -0.4285 -0.4030  0.4282
  478SOL    HW2 2005   1.180   1.600   4.894  0.4157 -0.8358 -0.3019
  479SOL     OW 2006   4.200   4.450   6.740 -0.2663 -0.7187  0.2753
  479SOL    HW1 2007   4.188   4.370   6.792 -1.1375 -0.7002  0.1067
  479SOL    HW2 2008   4.180   4.521   6.801  0.7122 -0.6066  0.4856
  480SOL     OW 2009   1.389   3.148   2.783  0.3208  0.1603 -0.1149
  480SOL    HW1 2010   1.427   3.162   2.869  1.9724 -2.3390 -0.3554
  480SOL    HW2 2011   1.325   3.078   2.796  0.5835 -0.2360 -0.8990
  481SOL     OW 2012   6.851   6.403   4.708  0.0280 -0.3338 -0.2208
  481SOL    HW1 2013   6.872   6.482   4.757  1.3051 -2.0751  2.2960
  481SOL    HW2 2014   6.822   6.434   4.622  0.6969  2.7991  0.5719
  482SOL     OW 2015   3.757   4.449   1.477 -0.1780  0.5642  0.8258
  482SOL    HW1 2016   3.782   4.485   1.392  1.3865 -1.3979  0.3977
  482SOL    HW2 2017   3.680   4.500   1.503 -0.3410  1.5901 -1.4742
  483SOL     OW 2018   2.599   5.551   7.390 -0.2796  0.2132 -0.0755
  483SOL    HW1 2019   2.559   5.535   7.476 -0.4203  1.3578  0.0872
  483SOL    HW2 2020   2.630   5.641   7.394  0.7240 -0.0726 -0.8456
  484SOL     OW 2021   5.169   2.065   2.366 -0.2889  0.3668  0.0792
  484SOL    HW1 2022   5.163   2.151   2.409  0.6219  0.4983 -0.0208
  484SOL    HW2 2023   5.197   2.006   2.435  0.6720  0.4780 -0.1950
  485SOL     OW 2024   6.942   7.088   6.136 -0.2102  0.2372 -0.0333
  485SOL    HW1 2025   7.011   7.042   6.089 -0.3038  0.3988 -0.3364
  485SOL    HW2 2026   6.928   7.168   6.085 -1.8105 -0.5865 -0.9747
  486SOL     OW 2027   4.153   4.777   3.303 -0.0362 -0.6387 -0.2230
  486SOL    HW1 2028   4.166   4.832   3.380  0.2534  1.4880 -1.7256
  486SOL    HW2 2029   4.066   4.738   3.316 -0.2371  0.1305  0.8931
  487SOL     OW 2030   4.250   4.948   1.315 -0.8846  0.3368 -0.5614
  487SOL    HW1 2031   4.344   4.938   1.304 -1.0748 -1.1192 -1.1341
  487SOL    HW2 2032   4.240   5.028   1.366  0.7605 -0.3871  1.0258
  488SOL     OW 2033   4.736   6.570   1.191  0.0150 -0.5283  0.0989
  488SOL    HW1 2034   4.794   6.645   1.178 -0.2672 -0.3673 -0.2527
  488SOL    HW2 2035   4.657   6.608   1.230 -0.5591 -0.4716 -1.0730
  489SOL     OW 2036   4.455   3.715   0.187  0.4147  0.4289  0.7238
  489SOL    HW1 2037   4.379   3.767   0.213  0.3286  0.9039 -0.4416
  489SOL    HW2 2038   4.530   3.763   0.223  0.1832 -0.1567  2.0647
  490SOL     OW 2039   2.028   0.171   6.527 -0.2430  0.3557  0.5156
  490SOL    HW1 2040   1.990   0.222   6.598  0.0199  1.1016  0.1216
  490SOL    HW2 2041   1.989   0.208   6.447  0.1465  0.1195  0.2110
  491SOL     OW 2042   5.741   5.306   5.887  0.0287  0.4483 -0.2017
  491SOL    HW1 2043   5.827   5.286   5.850  0.6400 -1.3089  1.9570
  491SOL    HW2 2044   5.690   5.338   5.813  2.5626  1.7191 -1.5249
  492SOL     OW 2045   5.922   2.797   7.117 -0.2391  0.6998  0.0121
  492SOL    HW1 2046   5.999   2.751   7.085  0.3429  1.3396  0.4558
  492SOL    HW2 2047   5.883   2.837   7.039  0.3811  1.1020 -0.0972
  493SOL     OW 2048   3.543   2.937   7.042  0.5109  0.1846  0.9594
  493SOL    HW1 2049   3.507   2.902   6.960 -2.5753  2.4152  1.2152
  493SOL    HW2 2050   3.630   2.970   7.017  1.5135 -3.0516 -0.3213
  494SOL     OW 2051   6.416   3.394   0.191  0.1415  0.1503  0.1009
  494SOL    HW1 2052   6.492   3.400   0.250  0.3741  0.8018 -0.2599
  494SOL    HW2 2053   6.347   3.443   0.235  0.4703  1.0832 -0.3959
  495SOL     OW 2054   7.310   6.416   7.338  0.2920 -0.4743 -0.2794
  495SOL    HW1 2055   7.297   6.393   7.430 -0.6782 -0.5096 -0.4146
  495SOL    HW2 2056   7.372   6.488   7.340  0.3288 -0.5197  0.4023
  496SOL     OW 2057   4.533   3.346   3.527 -0.3566 -0.3132 -0.4541
  496SOL    HW1 2058   4.582   3.294   3.591  0.2287 -0.8091 -1.2904
  496SOL    HW2 2059   4.516   3.429   3.572  3.5221  0.9515 -0.9254
  497SOL     OW 2060   1.765   6.039   6.682  0.2179  0.1525  0.3062
  497SOL    HW1 2061   1.750   6.031   6.588  0.8468  0.2378  0.1996
  497SOL    HW2 2062   1.748   5.951   6.716  2.6821 -0.6126 -0.2682
  498SOL     OW 2063   1.893   2.295   2.095  0.0785  0.4993 -0.2131
  498SOL    HW1 2064   1.897   2.276   2.002 -0.9564 -0.0386 -0.1679
  498SOL    HW2 2065   1.922   2.385   2.104  1.1501  0.2359 -0.9360
  499SOL     OW 2066   2.019   6.051   7.400  0.0065 -0.1185  0.1838
  499SOL    HW1 2067   1.958   6.124   7.414 -0.6924 -0.3782 -1.3632
  499SOL    HW2 2068   1.967   5.973   7.418  0.6214 -0.2755  1.3627
  500SOL     OW 2069   0.300   7.012   2.129  0.2217  0.4295  0.7746
  500SOL    HW1 2070   0.258   7.001   2.214 -0.5856 -1.0567  0.2232
  500SOL    HW2 2071   0.384   6.967   2.138 -1.5843 -3.6372 -0.3748
  501SOL     OW 2072   6.242   6.647   0.382  0.1050  0.4938  0.1624
  501SOL    HW1 2073   6.287   6.667   0.300 -0.0515 -0.6158 -0.2055
  501SOL    HW2 2074   6.193   6.567   0.364  0.9727 -0.4317  1.6837
  502SOL     OW 2075   7.318   7.410   4.382  0.0824  0.2550  0.3618
  502SOL    HW1 2076   7.306   7.352   4.307  0.3668  0.1554  0.3909
  502SOL    HW2 2077   7.411   7.400   4.405  0.5702  1.9524 -0.6703
  503SOL     OW 2078   2.776   6.936   7.193 -0.2829 -0.8085  0.0857
  503SOL    HW1 2079   2.840   6.871   7.165 -2.1370 -1.3945 -3.3095
  503SOL    HW2 2080   2.798   7.015   7.142  0.1512  0.3551  1.9706
  504SOL     OW 2081   4.690   2.927   3.606 -0.7168  0.1643  0.0195
  504SOL    HW1 2082   4.704   2.932   3.511  0.4347 -0.9362  0.1005
  504SOL    HW2 2083   4.772   2.890   3.640 -0.9920  0.8252  1.4855
  505SOL     OW 2084   2.071   1.436   6.258 -0.2972  0.1462  0.0892
  505SOL    HW1 2085   2.021   1.367   6.215  1.0215  0.4149 -2.0349
  505SOL    HW2 2086   2.160   1.401   6.267  0.3603  1.4624 -0.8956
  506SOL     OW 2087   7.384   3.272   2.797 -0.1236 -0.5767  0.0724
  506SOL    HW1 2088   7.296   3.289   2.765 -0.0430 -0.8351 -0.2961
  506SOL    HW2 2089   7.441   3.300   2.725  0.2337  1.8661  1.1988
  507SOL     OW 2090   3.081   6.870   5.889 -0.2424  0.7255 -0.4265
  507SOL    HW1 2091   3.044   6.957   5.905 -0.9582  0.3483  0.0295
  507SOL    HW2 2092   3.005   6.812   5.884  0.2788 -0.0508  0.3837
  508SOL     OW 2093   5.090   5.864   5.736  0.0097 -0.9310  0.0738
  508SOL    HW1 2094   5.026   5.826   5.676  0.2313 -0.3320 -0.5516
  508SOL    HW2 2095   5.058   5.952   5.753  0.5726 -0.6866 -0.1063
  509SOL     OW 2096   7.290   4.014   2.739 -0.0575  0.1949 -0.0177
  509SOL    HW1 2097   7.348   3.983   2.670 -0.3703  0.6970 -0.5129
  509SOL    HW2 2098   7.335   3.992   2.821 -0.5522 -2.1706 -0.3032
  510SOL     OW 2099   4.334   0.488   5.791  0.3026  0.8285  0.2613
  510SOL    HW1 2100   4.293   0.573   5.776  1.5531  1.1986 -1.3269
  510SOL    HW2 2101   4.420   0.508   5.827  0.5189  0.2212  0.0976
  511SOL     OW 2102   1.988   6.630   1.728 -0.3753 -0.1359 -0.2695
  511SOL    HW1 2103   1.916   6.606   1.670 -0.7995  0.0723  0.1657
  511SOL    HW2 2104   2.041   6.690   1.676 -0.1858 -0.7451 -0.7989
  512SOL     OW 2105   5.450   6.666   0.474  0.4362  0.2241  0.3311
  512SOL    HW1 2106   5.511   6.667   0.399  2.0160  0.0313  1.5483
  512SOL    HW2 2107   5.375   6.616   0.443  1.1328 -0.0067 -1.0784
  513SOL     OW 2108   0.927   3.284   0.144  0.8267  0.3923 -0.2415
  513SOL    HW1 2109   0.911   3.213   0.206  0.5187  0.7961  0.1546
  513SOL    HW2 2110   0.973   3.243   0.071  0.0389 -0.3591 -0.3426
  514SOL     OW 2111   2.713   2.896   0.285  0.0021 -0.2345  0.3935
  514SOL    HW1 2112   2.798   2.854   0.274  1.0435  2.1004 -1.1690
  514SOL    HW2 2113   2.679   2.906   0.197 -1.7560 -0.7722  0.9732
  515SOL     OW 2114   5.885   1.235   3.105 -0.1748 -0.2132 -0.4711
  515SOL    HW1 2115   5.804   1.280   3.131  0.5454  1.0982 -0.3787
  515SOL    HW2 2116   5.914   1.189   3.184  0.7658  1.8470  0.4738
  516SOL     OW 2117   4.664   6.429   6.714  0.1277 -0.2963 -0.2957
  516SOL    HW1 2118   4.709   6.349   6.740  0.6029 -1.0409 -3.0369
  516SOL    HW2 2119   4.585   6.398   6.670 -0.3566  0.8098 -0.2388
  517SOL     OW 2120   4.243   5.022   0.551 -0.2928  0.0413 -0.3601
  517SOL    HW1 2121   4.310   4.991   0.611 -2.2440 -0.7292  1.5646
  517SOL    HW2 2122   4.212   4.943   0.507  0.0688  0.3911 -1.2566
  518SOL     OW 2123   6.666   0.487   4.222 -0.5018 -0.0215  0.0623
  518SOL    HW1 2124   6.716   0.441   4.289 -0.1859 -0.8526 -0.7224
  518SOL    HW2 2125   6.616   0.418   4.178 -0.3440  0.4397 -0.8599
  519SOL     OW 2126   1.544   1.537   5.680  0.1308 -0.4757 -0.4489
  519SOL    HW1 2127   1.448   1.540   5.689 -0.0494  1.1729 -2.2258
  519SOL    HW2 2128   1.576   1.539   5.770 -1.5042 -0.3538  0.1727
  520SOL     OW 2129   3.812   6.835   2.491  0.6199  0.6315 -0.1458
  520SOL    HW1 2130   3.821   6.781   2.570  3.1810  0.1025 -0.6967
  520SOL    HW2 2131   3.776   6.917   2.522 -1.5281 -0.6757  1.0283
  521SOL     OW 2132   4.549   4.459   2.001 -0.1983 -0.4567 -0.4682
  521SOL    HW1 2133   4.473   4.516   2.001 -0.9178 -1.3777  0.6143
  521SOL    HW2 2134   4.611   4.502   1.942 -1.0389  0.9829 -0.3522
  522SOL     OW 2135   0.438   1.151   2.545  0.0227  0.2773 -0.2007
  522SOL    HW1 2136   0.416   1.096   2.470  1.4761  0.3598 -0.7235
  522SOL    HW2 2137   0.385   1.230   2.534  2.2274  1.5582 -2.7886
  523SOL     OW 2138   0.455   6.126   2.348 -0.6825 -0.1126 -0.0333
  523SOL    HW1 2139   0.538   6.163   2.317 -0.3258  1.7249  2.7563
  523SOL    HW2 2140   0.392   6.198   2.338 -0.8017  0.1547  2.2450
  524SOL     OW 2141   1.628   0.728   3.481  0.3466 -0.4615  0.4302
  524SOL    HW1 2142   1.676   0.647   3.465  0.1023 -0.3093 -1.3199
  524SOL    HW2 2143   1.691   0.797   3.462 -0.6509 -0.2418 -2.7563
  525SOL     OW 2144   4.576   5.148   7.160  0.2068  0.7261  0.2838
  525SOL    HW1 2145   4.504   5.179   7.216 -0.2148  1.9209 -0.8469
  525SOL    HW2 2146   4.617   5.078   7.210 -2.2122 -0.5230  0.6737
  526SOL     OW 2147   2.954   4.215   3.715  0.6996 -0.0056 -0.2903
  526SOL    HW1 2148   2.950   4.178   3.803 -0.0586  1.9193  0.5524
  526SOL    HW2 2149   3.020   4.162   3.669 -2.5701 -4.5450 -0.3944
  527SOL     OW 2150   3.115   3.347   2.162  0.1927 -0.1987 -0.1663
  527SOL    HW1 2151   3.042   3.378   2.216 -0.3011 -0.9792 -0.3681
  527SOL    HW2 2152   3.120   3.254   2.180  0.9783 -0.2022 -0.3617
  528SOL     OW 2153   4.349   0.219   3.462 -0.0832 -0.1191 -0.0352
  528SOL    HW1 2154   4.322   0.304   3.427  1.2842 -0.3313 -1.7212
  528SOL    HW2 2155   4.272   0.187   3.510 -0.5076  2.2097  0.9929
  529SOL     OW 2156   4.455   6.305   3.124 -0.3418 -0.3540  0.2014
  529SOL    HW1 2157   4.514   6.248   3.173  0.2826  0.0176 -0.1116
  529SOL    HW2 2158   4.497   6.317   3.039 -0.1537  1.0399  0.4562
  530SOL     OW 2159   2.948   7.196   5.048 -0.1416 -0.4845  0.8408
  530SOL    HW1 2160   3.034   7.186   5.007 -0.2996 -0.0063  0.3891
  530SOL    HW2 2161   2.903   7.261   4.995 -0.1031  0.6640  2.1522
  531SOL     OW 2162   4.316   3.825   5.766  0.3427 -0.4225 -0.2611
  531SOL    HW1 2163   4.390   3.798   5.820  1.7308  1.4360 -1.1158
  531SOL    HW2 2164   4.246   3.844   5.828  1.5834  0.7113  0.8428
  532SOL     OW 2165   2.929   5.652   7.245  0.3319 -0.0163 -0.4589
  532SOL    HW1 2166   3.023   5.667   7.237  0.4650  0.8040  1.9562
  532SOL    HW2 2167   2.921   5.590   7.318 -0.9752 -0.6107 -1.0802
  533SOL     OW 2168   6.767   4.771   6.246  0.4501 -0.6820 -0.4514
  533SOL    HW1 2169   6.757   4.722   6.328 -1.9904  0.7255  0.1788
  533SOL    HW2 2170   6.678   4.786   6.216  1.2288  0.8538 -2.1784
  534SOL     OW 2171   7.085   3.051   4.056 -0.1279 -0.1602 -0.3766
  534SOL    HW1 2172   7.002   3.085   4.088  0.7303  0.4320  1.3384
  534SOL    HW2 2173   7.150   3.087   4.116  1.4153 -0.3477 -1.8620
  535SOL     OW 2174   2.293   3.600   4.665  0.1148 -0.2920 -0.0942
  535SOL    HW1 2175   2.305   3.571   4.755 -0.4569  0.7735  0.3370
  535SOL    HW2 2176   2.382   3.612   4.631  0.3224 -0.0036  0.5495
  536SOL     OW 2177   3.179   2.693   4.256  0.1630 -0.3761 -0.2983
  536SOL    HW1 2178   3.125   2.691   4.178  1.2161  1.1937 -1.1152
  536SOL    HW2 2179   3.267   2.714   4.224  0.6348  0.2215  1.2814
  537SOL     OW 2180   1.175   1.794   7.085 -0.3223  0.0188 -0.1312
  537SOL    HW1 2181   1.201   1.794   7.177 -0.8069 -3.1294  0.0959
  537SOL    HW2 2182   1.093   1.844   7.083  0.7493  1.8969  0.7244
  538SOL     OW 2183   3.415   6.558   5.823  0.2767 -0.1563  0.4623
  538SOL    HW1 2184   3.378   6.475   5.794  0.1385  0.8143 -2.5024
  538SOL    HW2 2185   3.364   6.624   5.777  2.3601  1.4330  0.2830
  539SOL     OW 2186   1.311   0.632   7.023  0.1976  0.2196  0.2778
  539SOL    HW1 2187   1.251   0.690   7.070 -0.1099  1.8879 -2.0211
  539SOL    HW2 2188   1.393   0.638   7.072 -0.8664 -0.4772  2.2654
  540SOL     OW 2189   3.726   0.355   4.033  0.0198 -1.0787 -0.0028
  540SOL    HW1 2190   3.670   0.413   4.085  0.1174 -1.7022  0.8334
  540SOL    HW2 2191   3.691   0.360   3.945 -1.7504 -1.9121  0.6103
  541SOL     OW 2192   1.626   0.554   4.417 -0.0875 -0.7339 -0.6136
  541SOL    HW1 2193   1.593   0.644   4.413 -2.9493 -1.6598  0.0975
  541SOL    HW2 2194   1.606   0.517   4.331 -1.6956 -1.5146  0.0581
  542SOL     OW 2195   7.061   0.588   5.248 -0.6217 -0.1301 -0.0972
  542SOL    HW1 2196   7.021   0.524   5.188  0.4987  0.0415 -1.0739
  542SOL    HW2 2197   7.086   0.661   5.191  0.4195  0.0659  0.5961
  543SOL     OW 2198   0.187   0.639   1.819  0.5345 -0.4936 -0.4565
  543SOL    HW1 2199   0.181   0.545   1.837 -1.6335 -0.2911  0.1243
  543SOL    HW2 2200   0.171   0.681   1.903  0.8815  0.4218 -0.8308
  544SOL     OW 2201   3.253   1.254   3.596 -0.1529 -0.2304 -0.0097
  544SOL    HW1 2202   3.252   1.318   3.525 -0.5684 -0.0222  0.1765
  544SOL    HW2 2203   3.345   1.235   3.610  0.0656  1.1964  0.7036
  545SOL     OW 2204   1.616   6.154   5.265  0.0664 -0.1373  0.2958
  545SOL    HW1 2205   1.575   6.116   5.187  0.0801 -0.6965  0.5589
  545SOL    HW2 2206   1.680   6.088   5.293  1.9388  1.1441 -0.7315
  546SOL     OW 2207   0.950   3.041   1.429  0.1092 -0.1990  0.2029
  546SOL    HW1 2208   0.919   2.950   1.430 -0.6592  0.0511 -0.1559
  546SOL    HW2 2209   0.896   3.086   1.494 -0.3260  0.2455 -0.4424
  547SOL     OW 2210   4.634   6.546   2.290  0.1934  0.4069  0.2319
  547SOL    HW1 2211   4.626   6.641   2.294  0.5804  0.4544 -0.0732
  547SOL    HW2 2212   4.595   6.515   2.372  2.3838  0.9763  1.5537
  548SOL     OW 2213   4.562   1.849   7.101  0.0363  0.2166  0.2068
  548SOL    HW1 2214   4.621   1.787   7.058  0.2675 -0.9809  2.1105
  548SOL    HW2 2215   4.558   1.818   7.192 -0.3440  2.6492  1.0814
  549SOL     OW 2216   1.683   5.824   6.816 -0.5088 -0.1219 -0.0698
  549SOL    HW1 2217   1.595   5.786   6.814 -0.4654 -0.1916 -0.9660
  549SOL    HW2 2218   1.742   5.748   6.815 -0.4372 -0.0657 -0.3491
  550SOL     OW 2219   6.217   3.576   4.557 -0.0789 -0.6306 -0.0539
  550SOL    HW1 2220   6.202   3.632   4.633 -0.6757 -3.8697  2.4336
  550SOL    HW2 2221   6.129   3.561   4.521 -0.0796 -0.9413  0.0717
  551SOL     OW 2222   4.255   4.182   2.292  0.3296  0.0995 -0.3766
  551SOL    HW1 2223   4.344   4.209   2.315  0.9716 -1.9507 -0.2978
  551SOL    HW2 2224   4.218   4.259   2.248  1.7557  1.3662  0.5312
  552SOL     OW 2225   6.023   4.660   4.860  0.0566  0.2175 -0.1889
  552SOL    HW1 2226   6.061   4.739   4.819  0.9137 -0.1916 -0.2172
  552SOL    HW2 2227   6.070   4.651   4.943 -0.7078  0.2645  0.2544
  553SOL     OW 2228   1.782   4.045   0.039 -0.0706 -0.5571 -0.3489
  553SOL    HW1 2229   1.777   3.962  -0.009 -1.6191 -1.2760  0.9694
  553SOL    HW2 2230   1.734   4.107  -0.016  0.4896 -0.6852 -1.0010
  554SOL     OW 2231   0.510   4.372   4.368  0.6468 -0.0497  0.2050
  554SOL    HW1 2232   0.472   4.380   4.455  0.6293 -0.1758  0.2098
  554SOL    HW2 2233   0.436   4.380   4.308  0.9339  2.4785  0.0776
  555SOL     OW 2234   2.577   1.606   5.197  0.4546 -0.6674 -0.2221
  555SOL    HW1 2235   2.647   1.544   5.175  2.2017  1.2253 -0.2679
  555SOL    HW2 2236   2.522   1.608   5.118  1.6403 -0.5231 -1.0732
  556SOL     OW 2237   4.335   1.235   0.037  0.1855  0.2122 -0.1790
  556SOL    HW1 2238   4.251   1.246  -0.007 -0.1025  1.1224  0.5717
  556SOL    HW2 2239   4.313   1.201   0.123  0.6759 -0.5642 -0.3436
  557SOL     OW 2240   6.787   0.272   3.274  0.0936  0.2066  0.4599
  557SOL    HW1 2241   6.859   0.334   3.265 -1.4858  1.8113 -2.6443
  557SOL    HW2 2242   6.750   0.290   3.361  2.7640 -0.0766  1.7584
  558SOL     OW 2243   2.167   2.707   0.108  0.2891  0.1289 -0.4997
  558SOL    HW1 2244   2.212   2.623   0.095  0.8604  0.4518 -0.5981
  558SOL    HW2 2245   2.102   2.688   0.175  0.4294 -0.3916 -0.5043
  559SOL     OW 2246   2.596   0.850   3.415  0.1863 -0.3453  0.0128
  559SOL    HW1 2247   2.525   0.807   3.368 -0.7715  0.0795  1.0238
  559SOL    HW2 2248   2.577   0.835   3.508  1.4039 -0.1897  0.3125
  560SOL     OW 2249   3.719   6.402   7.177  0.3427  0.0278 -0.1896
  560SOL    HW1 2250   3.712   6.410   7.082  1.5121 -0.8097 -0.3755
  560SOL    HW2 2251   3.787   6.465   7.202 -1.0253  1.3632  0.3243
  561SOL     OW 2252   3.580   2.666   6.213 -0.3924 -0.0570  0.3916
  561SOL    HW1 2253   3.646   2.703   6.271  0.7721  2.6472 -2.3473
  561SOL    HW2 2254   3.619   2.585   6.181 -0.7775 -1.2417  2.7031
  562SOL     OW 2255   3.943   0.849   0.190  0.3512 -0.1455 -0.1939
  562SOL    HW1 2256   3.849   0.841   0.170  0.6929 -0.6835 -1.7290
  562SOL    HW2 2257   3.986   0.842   0.105  1.7038  1.9334  0.2514
  563SOL     OW 2258   2.553   4.081   3.175  0.3695  0.1337  0.5091
  563SOL    HW1 2259   2.555   4.009   3.238 -2.5154 -1.7690 -1.3432
  563SOL    HW2 2260   2.474   4.129   3.196  1.9434  2.5468  1.3220
  564SOL     OW 2261   6.818   6.652   7.121  0.4881  0.2362 -0.2846
  564SOL    HW1 2262   6.826   6.741   7.155  0.0658  0.5094 -0.8791
  564SOL    HW2 2263   6.776   6.603   7.191 -1.7285  1.1346 -0.9096
  565SOL     OW 2264   1.442   6.067   5.902  0.2076 -0.1566  0.0436
  565SOL    HW1 2265   1.415   6.121   5.827 -0.2317  0.6872  0.7980
  565SOL    HW2 2266   1.471   5.984   5.862 -1.5258 -0.3324 -0.9634
  566SOL     OW 2267   4.205   4.909   3.560  0.3848 -0.4434 -0.7538
  566SOL    HW1 2268   4.270   4.842   3.539  0.9818 -0.5231  1.1047
  566SOL    HW2 2269   4.168   4.881   3.644 -1.1126  0.3007 -1.1336
  567SOL     OW 2270   4.190   7.347   1.694  0.5007 -0.2308 -0.1651
  567SOL    HW1 2271   4.121   7.316   1.753 -2.5033  1.2976 -2.5768
  567SOL    HW2 2272   4.211   7.270   1.640  0.5681 -0.6731  0.4763
  568SOL     OW 2273   0.701   7.395   6.468 -0.1418  0.0354  0.2696
  568SOL    HW1 2274   0.785   7.357   6.492 -0.6724 -1.0877  0.3848
  568SOL    HW2 2275   0.718   7.490   6.466  0.9744 -0.1331  0.8493
  569SOL     OW 2276   1.578   6.487   4.859 -0.8324  0.0119 -0.3377
  569SOL    HW1 2277   1.532   6.522   4.782 -1.5985 -0.3393 -0.0519
  569SOL    HW2 2278   1.509   6.442   4.909  0.1729 -2.4761 -1.0122
  570SOL     OW 2279   0.409   4.600   3.077 -0.2877 -0.1156 -0.3436
  570SOL    HW1 2280   0.427   4.636   2.990 -0.7012 -0.1494 -0.4435
  570SOL    HW2 2281   0.492   4.561   3.104 -0.5174 -1.3167 -1.3025
  571SOL     OW 2282   1.080   5.088   2.700  0.2406  0.4612 -0.2487
  571SOL    HW1 2283   1.041   5.147   2.764  0.2092  2.1577 -1.7361
  571SOL    HW2 2284   1.016   5.017   2.690 -1.5829  2.1394 -1.1595
  572SOL     OW 2285   6.786   4.578   2.457 -0.3063  0.4696 -0.0391
  572SOL    HW1 2286   6.714   4.633   2.425 -0.8270  0.8501  1.6446
  572SOL    HW2 2287   6.816   4.622   2.536  0.9748 -0.3484 -0.0416
  573SOL     OW 2288   7.229   2.086   3.147 -0.3066 -0.0538 -0.0418
  573SOL    HW1 2289   7.223   2.002   3.102  0.3527 -0.8204  1.2313
  573SOL    HW2 2290   7.286   2.139   3.093  1.1373 -1.2349  0.2626
  574SOL     OW 2291   2.239   3.524   6.778  0.4085 -0.4633 -0.2568
  574SOL    HW1 2292   2.245   3.429   6.789  1.3629 -0.3152  0.6364
  574SOL    HW2 2293   2.202   3.535   6.690 -0.4405 -1.6605 -0.0886
  575SOL     OW 2294   1.550   7.435   0.110  0.4629  0.0242 -0.2884
  575SOL    HW1 2295   1.469   7.391   0.084  1.5973 -1.4602 -1.5189
  575SOL    HW2 2296   1.590   7.376   0.175 -0.4709  1.8483  2.0946
  576SOL     OW 2297   4.472   6.222   0.167  0.3501 -0.1366 -0.2864
  576SOL    HW1 2298   4.535   6.282   0.206  0.4340  0.1335 -0.8319
  576SOL    HW2 2299   4.473   6.243   0.073  1.3980 -1.8921 -0.7250
  577SOL     OW 2300   4.251   4.664   5.095 -0.1981 -0.1090  0.3541
  577SOL    HW1 2301   4.283   4.655   5.006  1.0036 -2.3257  0.9264
  577SOL    HW2 2302   4.177   4.603   5.100 -0.2555 -0.0019  0.8652
  578SOL     OW 2303   2.296   0.861   2.964 -0.1330 -0.1124  0.6886
  578SOL    HW1 2304   2.231   0.862   3.034  0.3121  1.2398  1.1247
  578SOL    HW2 2305   2.322   0.770   2.956 -1.0255 -0.4560  1.5029
  579SOL     OW 2306   1.695   3.483   0.289 -0.2764  0.3210  0.0948
  579SOL    HW1 2307   1.750   3.510   0.215  1.0316 -0.1117  0.8818
  579SOL    HW2 2308   1.637   3.416   0.253  0.7975 -0.3721 -0.4039
  580SOL     OW 2309   6.311   0.646   6.586 -0.3713  0.5803  0.0491
  580SOL    HW1 2310   6.320   0.679   6.497  0.4786  0.9008  0.2479
  580SOL    HW2 2311   6.294   0.725   6.639  2.5686  0.8949  0.6615
  581SOL     OW 2312   3.879   3.304   0.243 -0.1593 -0.0774  0.2780
  581SOL    HW1 2313   3.851   3.395   0.250  0.3268  0.0513  0.6368
  581SOL    HW2 2314   3.810   3.261   0.193 -1.1551  0.1555  1.4092
  582SOL     OW 2315   3.945   1.093   5.124 -0.4592 -0.5179  0.0564
  582SOL    HW1 2316   3.938   1.096   5.029 -0.2979  0.1311  0.0593
  582SOL    HW2 2317   3.877   1.152   5.156  0.3208  0.2751  0.2976
  583SOL     OW 2318   1.614   1.070   2.260  0.1721  0.7550 -0.1420
  583SOL    HW1 2319   1.603   1.096   2.351  1.8662 -1.8332  0.8973
  583SOL    HW2 2320   1.665   1.141   2.220  0.4401  1.3508  1.2232
  584SOL     OW 2321   7.193   3.387   0.242  0.0439 -0.2876  0.6372
  584SOL    HW1 2322   7.130   3.356   0.177  1.3072 -2.4019  0.3236
  584SOL    HW2 2323   7.235   3.307   0.275  0.3609  0.7986  3.1414
  585SOL     OW 2324   0.729   6.584   1.394 -0.1573  0.0231 -0.8194
  585SOL    HW1 2325   0.666   6.634   1.447  0.4909  0.1559 -0.1536
  585SOL    HW2 2326   0.766   6.648   1.334  1.0956  0.5104  0.4223
  586SOL     OW 2327   5.578   3.289   6.679  0.2600  0.0261  0.0725
  586SOL    HW1 2328   5.581   3.204   6.634 -2.2742  0.2256 -0.5956
  586SOL    HW2 2329   5.579   3.267   6.772  2.0274 -0.5555 -0.0352
  587SOL     OW 2330   4.268   5.301   2.501  0.0597  0.1924 -0.2421
  587SOL    HW1 2331   4.322   5.254   2.565 -1.0865  2.1346  2.3215
  587SOL    HW2 2332   4.202   5.237   2.473 -0.3275 -0.3335  1.7205
  588SOL     OW 2333   7.136   4.228   1.972  0.0156  0.3210  0.5011
  588SOL    HW1 2334   7.083   4.183   2.038  0.0309  0.1569  0.4022
  588SOL    HW2 2335   7.138   4.167   1.898 -0.1079  0.5589  0.3012
  589SOL     OW 2336   4.489   2.917   6.014 -0.1596 -0.0345 -0.0553
  589SOL    HW1 2337   4.513   2.824   6.017  1.7795  0.4140 -0.1837
  589SOL    HW2 2338   4.499   2.941   5.922 -0.0528  0.4396  0.0783
  590SOL     OW 2339   4.600   4.945   6.015 -0.6261  0.3814  0.0839
  590SOL    HW1 2340   4.684   4.900   6.022 -1.1582 -0.6206  0.2340
  590SOL    HW2 2341   4.535   4.876   6.025 -1.4736  1.0087 -0.8932
  591SOL     OW 2342   4.266   0.686   1.178 -0.0191 -0.3919 -0.0153
  591SOL    HW1 2343   4.229   0.759   1.227  1.3313  0.8889 -0.7697
  591SOL    HW2 2344   4.204   0.671   1.106 -0.5091 -0.2558  0.3761
  592SOL     OW 2345   5.072   4.285   0.331  0.1614  0.0732  0.0747
  592SOL    HW1 2346   5.149   4.341   0.331 -0.2414  0.6296 -0.8363
  592SOL    HW2 2347   5.108   4.196   0.328  0.8656  0.1297  3.2637
  593SOL     OW 2348   3.735   6.733   1.265  0.6700  0.3241 -0.0484
  593SOL    HW1 2349   3.649   6.696   1.243  0.0507  0.8802  1.3213
  593SOL    HW2 2350   3.770   6.675   1.332  2.1360 -0.8374 -1.7294
  594SOL     OW 2351   1.917   5.397   2.305 -0.4978  0.1341 -0.0766
  594SOL    HW1 2352   1.938   5.357   2.221 -0.3855  1.3232 -0.6255
  594SOL    HW2 2353   1.821   5.389   2.313 -0.5948  0.6891 -0.6669
  595SOL     OW 2354   5.482   2.704   5.363 -0.5562 -0.1032  0.3111
  595SOL    HW1 2355   5.497   2.614   5.391  2.9152  0.1011 -0.4069
  595SOL    HW2 2356   5.411   2.698   5.300  0.4016 -2.5686 -0.6626
  596SOL     OW 2357   1.826   4.580   1.552  0.0519  0.1386 -0.1284
  596SOL    HW1 2358   1.877   4.605   1.630  0.3231 -2.9826  0.8107
  596SOL    HW2 2359   1.742   4.551   1.588 -0.4708  0.3144 -1.1921
  597SOL     OW 2360   2.885   0.716   3.609 -0.5850  0.8529 -0.2876
  597SOL    HW1 2361   2.932   0.725   3.526 -1.0615  0.3322 -0.6149
  597SOL    HW2 2362   2.815   0.654   3.591  1.0514 -1.6077  1.2303
  598SOL     OW 2363   3.129   7.339   0.549  1.0123  0.5088 -0.6052
  598SOL    HW1 2364   3.207   7.287   0.528  1.2676  0.4433  0.4581
  598SOL    HW2 2365   3.057   7.287   0.514  1.3769  0.1479 -0.8407
  599SOL     OW 2366   5.497   5.289   1.818  0.2238 -0.1395 -0.6551
  599SOL    HW1 2367   5.547   5.342   1.879 -0.5666 -1.2102  0.9893
  599SOL    HW2 2368   5.429   5.248   1.871  1.2930 -3.4875 -1.6026
  600SOL     OW 2369   6.786   6.106   3.390 -0.0712  0.1457  0.1849
  600SOL    HW1 2370   6.737   6.187   3.407 -0.8688 -0.1817 -0.4586
  600SOL    HW2 2371   6.869   6.136   3.354 -0.5669  0.6844 -0.5552
  601SOL     OW 2372   3.324   7.045   5.905 -0.1728  0.4767 -0.2599
  601SOL    HW1 2373   3.314   7.099   5.984  0.8850 -0.9831  0.9408
  601SOL    HW2 2374   3.260   6.975   5.915 -0.5187  0.6692 -1.0601
  602SOL     OW 2375   7.284   3.500   0.500 -0.3460 -0.5290  0.8925
  602SOL    HW1 2376   7.233   3.495   0.419  1.7922 -1.3377 -0.5017
  602SOL    HW2 2377   7.292   3.593   0.519 -2.8273 -0.3784  1.5625
  603SOL     OW 2378   2.318   4.182   3.598  0.1695 -0.4230  0.3665
  603SOL    HW1 2379   2.386   4.190   3.531  1.2295  4.5731  1.5829
  603SOL    HW2 2380   2.352   4.118   3.660  1.7907 -1.0021 -1.0422
  604SOL     OW 2381   3.548   1.667   1.618  0.1138  0.0727  0.5332
  604SOL    HW1 2382   3.482   1.720   1.573 -0.2969 -0.5844  0.3407
  604SOL    HW2 2383   3.504   1.634   1.696 -0.9172 -2.9864 -1.1691
  605SOL     OW 2384   7.083   4.772   5.528  0.1804 -0.7853 -0.1330
  605SOL    HW1 2385   7.039   4.836   5.584 -2.1107 -0.9614 -1.5849
  605SOL    HW2 2386   7.044   4.688   5.553  1.5873 -1.3400  0.2691
  606SOL     OW 2387   6.219   2.591   1.881  0.7688 -0.0693  0.4404
  606SOL    HW1 2388   6.153   2.547   1.828  1.1634  0.0276 -0.1437
  606SOL    HW2 2389   6.170   2.649   1.939  0.2946 -0.6454  0.6161
  607SOL     OW 2390   6.150   5.253   4.362 -0.0323 -0.4037  0.0467
  607SOL    HW1 2391   6.134   5.184   4.297 -0.4620 -1.8445  1.6108
  607SOL    HW2 2392   6.214   5.216   4.422 -0.7113  0.3211  1.2624
  608SOL     OW 2393   0.600   5.999   1.792 -0.4832  0.5715  0.2767
  608SOL    HW1 2394   0.588   6.037   1.705 -1.1159 -0.8005 -0.2780
  608SOL    HW2 2395   0.691   6.015   1.813 -0.1812  0.4858 -0.8907
  609SOL     OW 2396   6.908   3.454   6.382 -0.3233  0.0174  0.1219
  609SOL    HW1 2397   6.837   3.510   6.414 -1.5305 -1.2045 -0.3127
  609SOL    HW2 2398   6.951   3.422   6.461  0.6247  1.8135  0.3693
  610SOL     OW 2399   3.023   5.772   1.579 -0.4644 -0.4322 -0.0572
  610SOL    HW1 2400   3.105   5.788   1.626 -1.1663  1.3001  0.6678
  610SOL    HW2 2401   2.974   5.713   1.637 -1.1016  1.2655  1.2304
  611SOL     OW 2402   4.916   3.032   1.065  0.2048 -0.0314  0.5600
  611SOL    HW1 2403   4.825   3.058   1.081  0.3027  0.2490  0.6564
  611SOL    HW2 2404   4.966   3.112   1.077  0.1757  0.5282 -2.3515
  612SOL     OW 2405   5.104   6.753   3.447  0.7482  0.5431 -0.6580
  612SOL    HW1 2406   5.148   6.814   3.387  1.1545  1.6947  0.7650
  612SOL    HW2 2407   5.021   6.796   3.467  1.9236  1.7838  2.0391
  613SOL     OW 2408   6.097   3.134   0.080 -0.3291  0.5374 -0.8391
  613SOL    HW1 2409   6.179   3.131   0.128 -0.3819 -0.1260 -0.7842
  613SOL    HW2 2410   6.107   3.207   0.019 -0.5239  1.8101  0.6237
  614SOL     OW 2411   4.204   6.447   0.537  0.2168 -0.3097  0.0383
  614SOL    HW1 2412   4.195   6.437   0.632 -0.2936 -2.1041 -0.1647
  614SOL    HW2 2413   4.201   6.358   0.503  1.9724  0.1681 -1.5481
  615SOL     OW 2414   6.880   7.441   5.527  0.1952 -0.2257 -0.1000
  615SOL    HW1 2415   6.943   7.463   5.459 -0.2194  2.4070  0.2701
  615SOL    HW2 2416   6.795   7.467   5.491 -0.2569 -0.5021  0.7208
  616SOL     OW 2417   1.476   6.513   5.916  0.0050  0.8273 -0.1587
  616SOL    HW1 2418   1.568   6.526   5.942 -0.5589 -0.1307  2.7537
  616SOL    HW2 2419   1.471   6.421   5.891 -0.4112  0.4178  1.2957
  617SOL     OW 2420   5.451   2.407   2.917  0.1550  0.0721 -0.5164
  617SOL    HW1 2421   5.473   2.410   3.010  0.0561 -1.3700 -0.4188
  617SOL    HW2 2422   5.384   2.475   2.905 -0.0241  0.0850  0.5172
  618SOL     OW 2423   3.462   4.308   3.677  0.6337  0.5976  0.0371
  618SOL    HW1 2424   3.400   4.343   3.613  0.9482  0.6937 -0.2231
  618SOL    HW2 2425   3.408   4.275   3.748  0.2681  0.3102 -0.3700
  619SOL     OW 2426   4.648   2.460   2.665  0.5241 -0.0238 -0.4390
  619SOL    HW1 2427   4.571   2.405   2.679  0.1977  0.2580 -1.0755
  619SOL    HW2 2428   4.722   2.399   2.670  0.2718 -0.2854  0.2467
  620SOL     OW 2429   1.131   2.490   0.230  0.6903  0.2362 -0.3816
  620SOL    HW1 2430   1.099   2.550   0.162 -1.0706 -1.5654 -1.2323
  620SOL    HW2 2431   1.077   2.412   0.220  2.0836 -1.0375  1.5011
  621SOL     OW 2432   6.459   2.234   5.034 -0.1448  0.1465 -0.0140
  621SOL    HW1 2433   6.417   2.312   4.996  2.1548  1.0668 -0.8338
  621SOL    HW2 2434   6.433   2.163   4.976 -0.4762  0.6949 -0.5576
  622SOL     OW 2435   4.121   3.189   6.601  0.7497 -0.6913  0.0449
  622SOL    HW1 2436   4.143   3.116   6.543  0.1504 -1.4658  0.7801
  622SOL    HW2 2437   4.052   3.156   6.657  0.6826  0.3466  0.6041
  623SOL     OW 2438   5.246   3.524   0.902  0.5904  0.5243 -0.7216
  623SOL    HW1 2439   5.241   3.618   0.919 -0.9567  0.4764 -0.7702
  623SOL    HW2 2440   5.238   3.516   0.807  1.6258  0.3703 -0.8128
  624SOL     OW 2441   5.035   4.707   4.695 -0.1079 -0.2214  0.1599
  624SOL    HW1 2442   5.004   4.779   4.640  0.0660  0.3723  0.8255
  624SOL    HW2 2443   5.041   4.745   4.783 -0.9792 -1.3281  0.7142
  625SOL     OW 2444   0.517   0.037   3.666  0.2456 -0.1097 -0.9241
  625SOL    HW1 2445   0.551   0.048   3.755  0.8468  0.1367 -1.1825
  625SOL    HW2 2446   0.472  -0.047   3.668  1.9270 -1.0405 -0.9012
  626SOL     OW 2447   2.288   4.925   2.502 -0.3098  0.3888 -0.3432
  626SOL    HW1 2448   2.206   4.876   2.509  0.3316 -0.5684  1.1667
  626SOL    HW2 2449   2.306   4.952   2.592  1.0781  0.4682 -0.6304
  627SOL     OW 2450   0.951   0.825   1.703  0.1154  0.5019 -0.1976
  627SOL    HW1 2451   0.936   0.900   1.761 -0.9202  0.1374  0.0239
  627SOL    HW2 2452   0.929   0.859   1.616 -2.5255 -0.1127  0.1582
  628SOL     OW 2453   2.641   1.293   3.442  0.6887  0.1139  0.4527
  628SOL    HW1 2454   2.575   1.333   3.498 -0.0071 -2.2361  1.4484
  628SOL    HW2 2455   2.711   1.266   3.503  0.8816 -0.6342 -0.0822
  629SOL     OW 2456   5.070   1.602   5.243  0.0069  0.4145 -0.0403
  629SOL    HW1 2457   5.121   1.537   5.195 -0.7401 -0.6235  0.5288
  629SOL    HW2 2458   5.087   1.684   5.198 -0.5880 -0.4972 -2.0342
  630SOL     OW 2459   2.123   4.963   3.787 -0.5522  0.2657  0.1986
  630SOL    HW1 2460   2.215   4.959   3.813 -0.4133  1.2246 -0.0999
  630SOL    HW2 2461   2.124   5.014   3.706 -1.5218  1.7343  1.0794
  631SOL     OW 2462   6.308   6.246   0.076 -0.2866  0.0306  0.1502
  631SOL    HW1 2463   6.240   6.193   0.035 -0.9830  0.5156  0.6532
  631SOL    HW2 2464   6.377   6.253   0.010 -0.3817 -1.1080 -0.0915
  632SOL     OW 2465   6.475   3.667   0.062 -0.3974 -0.1231  0.0509
  632SOL    HW1 2466   6.511   3.666  -0.026 -0.9331 -0.8660 -0.1714
  632SOL    HW2 2467   6.470   3.574   0.087  2.3468  0.1228  1.9410
  633SOL     OW 2468   0.866   0.392   4.864 -0.5294 -0.3413 -0.1637
  633SOL    HW1 2469   0.929   0.403   4.793  0.4164 -0.4579  0.6388
  633SOL    HW2 2470   0.854   0.479   4.900  0.7375 -0.6133  0.9742
  634SOL     OW 2471   0.526   0.931   3.583 -0.5908  0.0244 -0.2462
  634SOL    HW1 2472   0.494   1.018   3.561 -0.6689 -0.1470 -0.8222
  634SOL    HW2 2473   0.447   0.877   3.587 -0.6329  0.1281  0.8861
  635SOL     OW 2474   2.966   1.272   1.255 -0.7692  0.1185  0.3228
  635SOL    HW1 2475   2.891   1.331   1.268 -1.1561 -0.0864 -0.8784
  635SOL    HW2 2476   2.998   1.254   1.344 -0.4505  2.3569  0.7066
  636SOL     OW 2477   0.177   0.797   5.620  0.0112 -0.1735 -0.2238
  636SOL    HW1 2478   0.212   0.830   5.537 -1.6427  0.5645 -0.6755
  636SOL    HW2 2479   0.144   0.710   5.599  1.1837 -0.7189  0.1146
  637SOL     OW 2480   4.751   2.827   6.274  0.3164  0.5769 -0.3242
  637SOL    HW1 2481   4.816   2.844   6.343 -1.0511  2.2222  0.6613
  637SOL    HW2 2482   4.704   2.750   6.304  2.0954 -0.9797 -1.3262
  638SOL     OW 2483   6.275   2.859   1.498  0.7659 -0.2923 -0.1343
  638SOL    HW1 2484   6.206   2.906   1.545  1.0111  0.5591 -0.6021
  638SOL    HW2 2485   6.269   2.892   1.408  1.6418 -0.3667 -0.2276
  639SOL     OW 2486   3.695   2.647   7.086 -0.3242 -0.2087  0.1679
  639SOL    HW1 2487   3.608   2.634   7.047  0.1586  4.3698 -3.2565
  639SOL    HW2 2488   3.679   2.702   7.163 -0.5674 -0.1211  0.0560
  640SOL     OW 2489   5.906   2.926   6.889  0.2647 -0.1008  0.2327
  640SOL    HW1 2490   5.984   2.898   6.840  0.7084  2.0561 -0.3703
  640SOL    HW2 2491   5.923   3.017   6.913 -1.5985  0.0712  1.1168
  641SOL     OW 2492   4.068   6.220   3.974  0.3822  0.0687 -0.1806
  641SOL    HW1 2493   4.026   6.295   3.931  0.1631  1.2703  1.9472
  641SOL    HW2 2494   4.016   6.145   3.947 -0.6328  0.9635 -0.8216
  642SOL     OW 2495   2.189   2.297   2.746  0.0577  0.4214  0.2706
  642SOL    HW1 2496   2.167   2.222   2.691 -0.0496  0.4516  0.2711
  642SOL    HW2 2497   2.282   2.314   2.729  0.8054 -1.3132  2.1897
  643SOL     OW 2498   5.565   4.915   7.417 -0.7638  0.0164  0.0628
  643SOL    HW1 2499   5.543   4.960   7.498 -0.4331  2.4211 -1.0924
  643SOL    HW2 2500   5.481   4.889   7.380 -0.9812 -0.1387  0.6637
  644SOL     OW 2501   4.137   4.479   4.327 -0.3791 -0.0330 -0.2756
  644SOL    HW1 2502   4.101   4.457   4.241 -1.0209  1.0850 -0.3204
  644SOL    HW2 2503   4.140   4.396   4.374 -0.9840 -0.5036 -1.0358
  645SOL     OW 2504   2.196   4.808   3.187 -0.0199  0.1369  0.3872
  645SOL    HW1 2505   2.226   4.806   3.278 -1.5565  0.0798  0.9237
  645SOL    HW2 2506   2.101   4.809   3.193 -0.1584 -0.0553 -1.2365
  646SOL     OW 2507   0.667   4.306   5.603 -0.1336  0.2289 -0.8122
  646SOL    HW1 2508   0.710   4.242   5.659  0.8836  0.7457 -0.9742
  646SOL    HW2 2509   0.583   4.267   5.581 -0.6908  0.1494  1.3246
  647SOL     OW 2510   2.143   1.513   2.097 -0.1824  0.0892 -0.2704
  647SOL    HW1 2511   2.133   1.420   2.076 -0.0090 -0.1652  0.7092
  647SOL    HW2 2512   2.167   1.514   2.190  1.5092  1.0368 -0.6872
  648SOL     OW 2513   1.034   4.894   6.486  0.3277 -0.5054  0.1097
  648SOL    HW1 2514   0.998   4.974   6.522  2.4334  1.3096 -1.5332
  648SOL    HW2 2515   0.970   4.826   6.508 -1.8368  1.7081  1.0310
  649SOL     OW 2516   6.732   6.799   4.964 -0.8685 -0.8169 -0.0291
  649SOL    HW1 2517   6.649   6.752   4.957 -0.7370 -0.8985 -1.3887
  649SOL    HW2 2518   6.737   6.851   4.884  0.0879 -0.3117  0.3447
  650SOL     OW 2519   1.137   6.979   5.865 -0.1235 -0.5630 -0.1041
  650SOL    HW1 2520   1.041   6.973   5.861 -0.1037 -1.3710  0.4919
  650SOL    HW2 2521   1.160   6.936   5.946  0.8405 -1.4300 -0.8176
  651SOL     OW 2522   0.142   1.721   6.437  0.2898 -0.4427  0.0314
  651SOL    HW1 2523   0.061   1.766   6.411  0.5325 -1.7885 -3.6698
  651SOL    HW2 2524   0.192   1.787   6.484 -1.3098  1.6892 -1.0822
  652SOL     OW 2525   3.009   2.226   1.960  0.1291  0.0496 -0.7646
  652SOL    HW1 2526   3.010   2.309   2.009  0.9658  0.2323 -1.0680
  652SOL    HW2 2527   2.981   2.251   1.872 -0.8128 -0.1902 -0.5436
  653SOL     OW 2528   1.512   3.637   5.044  0.0282 -0.5647 -0.0823
  653SOL    HW1 2529   1.482   3.682   4.964 -0.8259 -0.4781  0.2778
  653SOL    HW2 2530   1.531   3.708   5.105 -1.0485 -0.6575  0.3910
  654SOL     OW 2531   0.243   4.938   6.796 -0.1192 -0.4468 -0.1303
  654SOL    HW1 2532   0.186   4.986   6.736 -0.0549 -0.0788  0.0977
  654SOL    HW2 2533   0.186   4.872   6.835 -0.6196  0.4641  0.7369
  655SOL     OW 2534   0.892   6.134   4.221  0.2839  0.1336  0.2603
  655SOL    HW1 2535   0.850   6.170   4.143  1.1154 -0.7389 -0.6321
  655SOL    HW2 2536   0.982   6.168   4.218 -0.0536  1.2416  1.6411
  656SOL     OW 2537   0.887   5.038   0.908  0.1373 -0.7916  0.0771
  656SOL    HW1 2538   0.914   4.950   0.881  3.3704  0.7548 -2.4492
  656SOL    HW2 2539   0.857   5.080   0.828 -0.0934  0.8130  0.9583
  657SOL     OW 2540   0.698   5.701   4.975 -0.7025 -0.0633  0.2737
  657SOL    HW1 2541   0.718   5.723   5.066  0.9575  1.0127 -0.3032
  657SOL    HW2 2542   0.779   5.719   4.927 -1.6347 -0.2557 -1.4859
  658SOL     OW 2543   5.480   0.355   1.803 -0.0268 -0.3060  0.3885
  658SOL    HW1 2544   5.439   0.391   1.725 -0.3247 -0.4453  0.4767
  658SOL    HW2 2545   5.434   0.272   1.818 -0.0639 -0.2179  0.7843
  659SOL     OW 2546   7.134   1.192   3.768  0.2162 -0.0417  0.4382
  659SOL    HW1 2547   7.181   1.174   3.850  0.5636 -1.8469 -0.1158
  659SOL    HW2 2548   7.204   1.213   3.706  0.2415 -1.7343 -0.1384
  660SOL     OW 2549   6.624   4.697   0.644 -0.5864  0.1728 -0.0144
  660SOL    HW1 2550   6.612   4.790   0.664  0.4507  0.2043  0.4843
  660SOL    HW2 2551   6.570   4.651   0.709  0.9154  0.3553  1.4048
  661SOL     OW 2552   6.298   2.595   3.596 -0.2677  0.7495  0.1184
  661SOL    HW1 2553   6.311   2.636   3.510  1.3069  2.5933  1.1600
  661SOL    HW2 2554   6.370   2.533   3.604 -0.7090  0.2064 -0.0885
  662SOL     OW 2555   3.653   3.365   4.358  0.0293  0.2108 -0.8336
  662SOL    HW1 2556   3.562   3.338   4.370  0.6540 -1.1119  1.4995
  662SOL    HW2 2557   3.668   3.431   4.426  1.7201 -2.1798  1.3066
  663SOL     OW 2558   2.372   6.038   5.414  0.4721 -0.3744 -0.1604
  663SOL    HW1 2559   2.350   5.948   5.390 -0.9886 -0.4494  1.2634
  663SOL    HW2 2560   2.306   6.091   5.370 -0.7833 -0.3275  1.6850
  664SOL     OW 2561   2.687   6.093   7.364  0.1553  0.4561  0.3943
  664SOL    HW1 2562   2.765   6.092   7.419  0.3341 -0.9565  0.1508
  664SOL    HW2 2563   2.698   6.019   7.305 -0.4523  1.3982 -0.9747
  665SOL     OW 2564   3.825   0.596   1.909  0.2279  0.5888  0.1058
  665SOL    HW1 2565   3.763   0.523   1.901 -1.0114  1.5762  0.5097
  665SOL    HW2 2566   3.810   0.631   1.997 -0.9958  2.8897 -0.9292
  666SOL     OW 2567   2.638   2.399   2.002  0.0285 -0.1519  0.0933
  666SOL    HW1 2568   2.553   2.441   2.014  0.5543  0.3104  2.8363
  666SOL    HW2 2569   2.647   2.389   1.907 -3.1317 -0.3881 -0.2747
  667SOL     OW 2570   5.146   0.593   4.572 -0.0482  0.4118 -0.0304
  667SOL    HW1 2571   5.229   0.604   4.526  0.4049 -0.4475  0.5438
  667SOL    HW2 2572   5.132   0.498   4.572 -2.0261  0.6257 -1.8230
  668SOL     OW 2573   5.906   5.367   1.782 -0.1509 -0.0406 -0.2158
  668SOL    HW1 2574   5.846   5.392   1.852 -1.1703 -1.0120 -0.7055
  668SOL    HW2 2575   5.853   5.371   1.703  0.0825 -2.0552 -0.5141
  669SOL     OW 2576   5.317   0.105   1.839 -0.0947 -0.3965 -0.1291
  669SOL    HW1 2577   5.239   0.154   1.813  0.2682  1.9533  2.7101
  669SOL    HW2 2578   5.289   0.055   1.916  0.9064 -0.4417  0.2207
  670SOL     OW 2579   1.658   0.230   5.268 -0.7316 -0.0551 -0.1923
  670SOL    HW1 2580   1.596   0.165   5.301 -0.0031 -0.9561 -0.5509
  670SOL    HW2 2581   1.740   0.209   5.313  0.0065 -0.6265 -1.7405
  671SOL     OW 2582   6.027   1.302   1.101  0.0304 -0.0524  0.2151
  671SOL    HW1 2583   5.948   1.284   1.151  0.1539 -0.4770  0.2691
  671SOL    HW2 2584   6.047   1.393   1.119 -1.7293  0.7640 -1.6099
  672SOL     OW 2585   1.094   4.037   1.603 -0.4082  0.2647  0.3556
  672SOL    HW1 2586   1.023   3.975   1.589 -1.2626  1.2475  0.1614
  672SOL    HW2 2587   1.057   4.102   1.663  0.5079  0.5170  0.6707
  673SOL     OW 2588   3.274   5.982   5.376 -0.0058 -0.1256 -0.0302
  673SOL    HW1 2589   3.281   5.964   5.282 -3.4854  0.5004 -0.5368
  673SOL    HW2 2590   3.249   6.074   5.381 -1.6324 -0.5870  1.3572
  674SOL     OW 2591   6.848   5.466   1.698  0.3532 -0.2825 -0.1243
  674SOL    HW1 2592   6.879   5.384   1.661 -0.7440 -0.3465 -0.9560
  674SOL    HW2 2593   6.769   5.442   1.746 -0.8441  0.4596 -1.6250
  675SOL     OW 2594   0.569   2.949   3.632 -0.3063  0.0906  0.2835
  675SOL    HW1 2595   0.637   2.948   3.699  0.4329  1.9075 -0.3682
  675SOL    HW2 2596   0.521   3.030   3.648  0.6126  1.1788 -2.0003
  676SOL     OW 2597   4.915   1.139   4.972  0.1228  0.3132  0.2452
  676SOL    HW1 2598   4.871   1.056   4.955  1.2213 -0.3896  0.6879
  676SOL    HW2 2599   5.008   1.119   4.962  0.5152  1.0903  1.8871
  677SOL     OW 2600   5.935   2.618   4.265  0.0586 -0.2666  0.4852
  677SOL    HW1 2601   5.950   2.712   4.274 -0.4196  0.0973 -1.8092
  677SOL    HW2 2602   5.942   2.602   4.171 -0.2910 -2.4637  0.7836
  678SOL     OW 2603   3.412   1.335   3.204  0.2692  0.2180 -0.0786
  678SOL    HW1 2604   3.396   1.332   3.110  0.4665 -2.2291 -0.0853
  678SOL    HW2 2605   3.502   1.365   3.213  0.8367 -1.1963 -0.7868
  679SOL     OW 2606   7.300   1.642   2.948  0.5028 -0.3523 -0.1847
  679SOL    HW1 2607   7.314   1.657   2.854  0.1608 -1.5773 -0.4474
  679SOL    HW2 2608   7.260   1.555   2.952 -0.6745  0.2205  1.0078
  680SOL     OW 2609   4.644   4.696   4.621  0.0757 -0.1192 -0.3982
  680SOL    HW1 2610   4.622   4.757   4.692  0.8286  0.1499 -0.3838
  680SOL    HW2 2611   4.634   4.748   4.541  3.6011  1.0116 -0.2585
  681SOL     OW 2612   4.326   1.117   0.654  0.1974  0.1736 -0.3764
  681SOL    HW1 2613   4.266   1.066   0.599  2.2914 -1.3491 -1.3755
  681SOL    HW2 2614   4.295   1.207   0.647 -1.7427 -0.5062 -1.1204
  682SOL     OW 2615   1.587   2.466   7.223  0.0306  0.5717 -0.3902
  682SOL    HW1 2616   1.524   2.529   7.257 -0.4530  0.3590 -0.8770
  682SOL    HW2 2617   1.612   2.500   7.137 -0.2337  0.1034 -0.6572
  683SOL     OW 2618   4.822   1.040   4.085 -0.3617  0.1348  0.2433
  683SOL    HW1 2619   4.735   1.066   4.054  0.0189  0.4024 -0.6347
  683SOL    HW2 2620   4.859   0.989   4.013  1.5451  2.9288 -0.9195
  684SOL     OW 2621   4.554   1.904   5.418  0.2554  0.0152  0.1700
  684SOL    HW1 2622   4.579   1.930   5.506 -0.4788 -0.0304  0.4022
  684SOL    HW2 2623   4.636   1.883   5.374  0.7950  1.7163  0.2882
  685SOL     OW 2624   3.905   2.398   6.524 -0.5780 -1.0137 -0.6855
  685SOL    HW1 2625   3.927   2.364   6.611  1.2072 -2.7915 -1.7366
  685SOL    HW2 2626   3.848   2.473   6.541 -1.7136 -2.3455  1.9352
  686SOL     OW 2627   7.432   2.715   2.099  0.0445  0.2907  0.0545
  686SOL    HW1 2628   7.505   2.688   2.044  0.9522 -1.1787  1.8362
  686SOL    HW2 2629   7.460   2.798   2.138  0.8507 -0.3081  0.7974
  687SOL     OW 2630   5.868   1.568   3.070  0.2329 -0.2362  0.5314
  687SOL    HW1 2631   5.792   1.546   3.123  1.2853 -0.8149  1.8693
  687SOL    HW2 2632   5.863   1.509   2.994 -1.2073  0.4898  0.0365
  688SOL     OW 2633   5.021   2.967   4.392 -0.0749  0.2013 -0.7180
  688SOL    HW1 2634   5.100   2.927   4.355 -0.9855 -1.3213 -1.0989
  688SOL    HW2 2635   5.042   2.983   4.484  0.4744 -0.8099 -0.6542
  689SOL     OW 2636   4.880   1.388   0.844  0.4391  0.3317  0.0014
  689SOL    HW1 2637   4.890   1.473   0.887 -0.5024 -0.0252  0.9779
  689SOL    HW2 2638   4.827   1.407   0.767 -2.1452  0.2901  1.6444
  690SOL     OW 2639   5.862   7.391   2.429  0.6637 -0.4046 -0.3947
  690SOL    HW1 2640   5.930   7.412   2.365 -0.4647  0.7610 -1.2811
  690SOL    HW2 2641   5.880   7.449   2.503  1.0689 -0.6519 -0.2955
  691SOL     OW 2642   1.689   6.493   3.857 -0.0660  0.4796 -0.1639
  691SOL    HW1 2643   1.741   6.521   3.931  0.9379 -1.1090 -0.2235
  691SOL    HW2 2644   1.753   6.466   3.791 -0.9306 -0.4535 -0.6579
  692SOL     OW 2645   5.809   0.557   2.100  0.3217 -0.3927  0.1341
  692SOL    HW1 2646   5.731   0.514   2.065  1.4933 -0.4479 -2.6966
  692SOL    HW2 2647   5.851   0.490   2.154  0.4169 -1.7648 -1.5514
  693SOL     OW 2648   5.056   2.603   0.918 -0.1242  0.5255 -0.2104
  693SOL    HW1 2649   4.975   2.607   0.969 -0.5523  0.7554 -0.8902
  693SOL    HW2 2650   5.117   2.660   0.965 -0.4347  0.5523  0.1687
  694SOL     OW 2651   0.759   1.763   0.792  0.2015  0.0465  0.4906
  694SOL    HW1 2652   0.806   1.701   0.847 -2.0088 -1.7576  0.5147
  694SOL    HW2 2653   0.715   1.708   0.726 -0.5171  1.7506 -0.5354
  695SOL     OW 2654   3.603   5.293   6.115 -0.3062  0.1009 -0.2917
  695SOL    HW1 2655   3.646   5.377   6.095 -0.1987  0.0575 -0.2471
  695SOL    HW2 2656   3.609   5.244   6.033  1.5255 -0.6783  0.2671
  696SOL     OW 2657   5.264   5.454   2.232  0.3564 -0.4229 -0.2878
  696SOL    HW1 2658   5.247   5.533   2.283 -0.4862 -0.5966 -0.2837
  696SOL    HW2 2659   5.351   5.468   2.194  0.0266  0.7136 -0.6709
  697SOL     OW 2660   7.104   7.220   2.456 -0.4292  0.0988 -0.0458
  697SOL    HW1 2661   7.122   7.265   2.539 -0.8022 -0.2098  0.2103
  697SOL    HW2 2662   7.010   7.204   2.458 -0.4044 -0.0953 -0.4380
  698SOL     OW 2663   0.746   0.202   3.607  0.4300 -0.1390  0.1276
  698SOL    HW1 2664   0.771   0.217   3.516  0.7582 -1.2619  0.0064
  698SOL    HW2 2665   0.651   0.186   3.604  0.4773 -0.4034 -0.0628
  699SOL     OW 2666   1.244   1.245   4.157 -0.5360 -0.2689 -0.0115
  699SOL    HW1 2667   1.218   1.240   4.249 -0.7692  1.0591  0.0036
  699SOL    HW2 2668   1.234   1.155   4.125  2.7436 -1.5759  2.0815
  700SOL     OW 2669   5.208   5.495   4.916  0.1349 -0.4422 -0.2462
  700SOL    HW1 2670   5.120   5.468   4.943  0.4698  1.0384  2.7268
  700SOL    HW2 2671   5.193   5.552   4.840 -1.2226 -1.9453 -1.1838
  701SOL     OW 2672   6.253   1.685   6.890 -0.6285 -0.3788  0.1660
  701SOL    HW1 2673   6.226   1.669   6.799 -1.0087  1.3422 -0.0561
  701SOL    HW2 2674   6.185   1.644   6.942 -1.2270 -0.0719 -0.3552
  702SOL     OW 2675   2.447   2.198   6.749 -0.3389  0.2764  0.3399
  702SOL    HW1 2676   2.468   2.114   6.790 -0.1779 -0.3490 -0.9811
  702SOL    HW2 2677   2.451   2.261   6.821 -3.0510 -1.1709  1.9433
  703SOL     OW 2678   3.525   5.951   1.361 -0.2488  0.4098  0.1573
  703SOL    HW1 2679   3.432   5.934   1.344 -0.1922  1.3266 -1.2640
  703SOL    HW2 2680   3.542   5.909   1.445 -1.9576  0.2489  0.4645
  704SOL     OW 2681   1.919   5.139   0.283 -0.1359  0.1055  0.2988
  704SOL    HW1 2682   1.897   5.066   0.225  0.1367 -0.0906  0.4408
  704SOL    HW2 2683   2.007   5.120   0.314 -0.0671  0.4896  0.3497
  705SOL     OW 2684   0.384   3.334   3.321  0.2680  0.1451  0.1705
  705SOL    HW1 2685   0.386   3.395   3.394 -3.4410  1.0744 -0.2982
  705SOL    HW2 2686   0.368   3.249   3.361 -1.3610  0.5932  0.5443
  706SOL     OW 2687   1.659   7.180   3.577  0.5807  0.0772  0.3727
  706SOL    HW1 2688   1.620   7.231   3.648  3.6388  0.2143  2.1148
  706SOL    HW2 2689   1.637   7.089   3.597  2.5291 -0.0306  2.3885
  707SOL     OW 2690   6.581   6.612   7.378 -0.2036  0.3810  0.1002
  707SOL    HW1 2691   6.623   6.539   7.423 -1.3771  0.1411  0.8622
  707SOL    HW2 2692   6.497   6.577   7.348 -0.2406  1.0714 -0.6404
  708SOL     OW 2693   5.792   6.181   5.596 -0.0294  0.4084  0.0675
  708SOL    HW1 2694   5.826   6.133   5.520 -2.6174  1.2396 -1.7800
  708SOL    HW2 2695   5.820   6.271   5.582 -0.7104  0.6077 -0.0935
  709SOL     OW 2696   6.067   3.597   2.798  0.3918 -0.1272  0.4804
  709SOL    HW1 2697   6.034   3.670   2.744  1.5090 -0.5744 -0.8508
  709SOL    HW2 2698   6.006   3.525   2.781 -0.1343  0.1786  1.0218
  710SOL     OW 2699   4.919   6.151   6.440  0.4887 -0.1854  0.4981
  710SOL    HW1 2700   4.987   6.146   6.373 -0.3359 -3.3928 -0.2962
  710SOL    HW2 2701   4.849   6.201   6.399  0.0481 -1.9918 -1.1193
  711SOL     OW 2702   6.420   5.297   0.151 -0.1591  0.1789 -0.0495
  711SOL    HW1 2703   6.346   5.313   0.093 -0.5484  0.5209  0.5258
  711SOL    HW2 2704   6.496   5.293   0.094 -0.7157 -0.9785 -0.7433
  712SOL     OW 2705   2.575   2.482   2.318  0.1907  0.2898  0.3740
  712SOL    HW1 2706   2.663   2.448   2.336 -0.9278 -1.8365  2.4005
  712SOL    HW2 2707   2.548   2.436   2.238  0.9176  1.0608 -0.3428
  713SOL     OW 2708   0.006   6.950   6.891 -0.0470 -0.1117 -0.4303
  713SOL    HW1 2709  -0.078   6.995   6.887  0.1104  0.1351 -1.3184
  713SOL    HW2 2710   0.066   7.014   6.929  0.1296  0.3886 -1.4971
  714SOL     OW 2711   4.916   6.628   1.738  0.0939  0.1524  0.5562
  714SOL    HW1 2712   4.951   6.646   1.651  0.9194  0.0059  0.8432
  714SOL    HW2 2713   4.992   6.636   1.796 -0.9525  3.2291  1.7009
  715SOL     OW 2714   2.780   2.848   7.189  0.3055  0.0353  0.4772
  715SOL    HW1 2715   2.869   2.875   7.214  0.5343 -1.3895  1.3226
  715SOL    HW2 2716   2.792   2.763   7.146 -0.6075  0.1103  0.0463
  716SOL     OW 2717   1.987   5.281   5.372  0.3936 -0.5087  0.4322
  716SOL    HW1 2718   2.042   5.359   5.380  0.6327 -0.6883  0.5539
  716SOL    HW2 2719   2.018   5.223   5.442  1.3907 -1.4358 -0.7375
  717SOL     OW 2720   2.831   2.487   7.389 -0.2596 -0.5481 -0.5802
  717SOL    HW1 2721   2.917   2.529   7.384 -0.7259  0.3792 -1.3957
  717SOL    HW2 2722   2.826   2.453   7.478  0.9444 -0.6115 -0.5142
  718SOL     OW 2723   4.434   3.184   7.405 -0.1149 -0.3873 -0.3305
  718SOL    HW1 2724   4.414   3.172   7.498 -1.2468 -1.2599 -0.6643
  718SOL    HW2 2725   4.362   3.239   7.372 -0.2139 -0.8335 -0.8717
  719SOL     OW 2726   2.905   6.543   4.636 -0.7774  0.0597 -0.0320
  719SOL    HW1 2727   2.950   6.481   4.692 -1.0274 -0.6257 -0.5744
  719SOL    HW2 2728   2.877   6.613   4.695  0.1429  0.0260  0.4663
  720SOL     OW 2729   5.111   2.536   4.811 -0.0792  0.6996 -0.2971
  720SOL    HW1 2730   5.076   2.604   4.752 -2.4644  0.6085  0.8741
  720SOL    HW2 2731   5.095   2.454   4.765 -1.5339  0.6601  0.2163
  721SOL     OW 2732   5.005   7.387   4.076  0.1748 -0.3182 -0.0400
  721SOL    HW1 2733   4.977   7.312   4.024  1.3325 -0.0922 -1.0503
  721SOL    HW2 2734   5.083   7.357   4.123 -0.7223 -0.4471  1.4266
  722SOL     OW 2735   1.823   5.102   5.710  0.6042  0.0185 -0.0802
  722SOL    HW1 2736   1.833   5.111   5.804  1.4609 -0.5901 -0.1045
  722SOL    HW2 2737   1.784   5.015   5.698  0.0465  0.2912 -0.2633
  723SOL     OW 2738   1.596   2.138   3.951  0.0622 -0.0626  0.4737
  723SOL    HW1 2739   1.557   2.216   3.911 -1.8846 -1.2761 -0.0747
  723SOL    HW2 2740   1.623   2.167   4.038  1.3732  1.7596 -0.4629
  724SOL     OW 2741   0.163   0.547   1.018  0.7069 -0.1576  0.6017
  724SOL    HW1 2742   0.253   0.522   1.039 -0.0499 -2.9336  0.9371
  724SOL    HW2 2743   0.139   0.490   0.944 -1.3190 -0.7832  1.6669
  725SOL     OW 2744   7.116   5.283   3.551 -0.5064  0.0167  0.1420
  725SOL    HW1 2745   7.120   5.224   3.626  1.5166 -0.3247 -0.1680
  725SOL    HW2 2746   7.097   5.225   3.476  0.4809 -0.1274 -0.0151
  726SOL     OW 2747   6.366   1.830   7.145  0.4651 -0.0307 -0.1432
  726SOL    HW1 2748   6.299   1.884   7.188 -1.6322 -1.6771 -1.1476
  726SOL    HW2 2749   6.346   1.838   7.052  1.3460 -0.9775 -0.4300
  727SOL     OW 2750   2.042   1.543   1.803 -0.1821  0.0234 -0.6245
  727SOL    HW1 2751   2.104   1.581   1.866 -0.6662  0.0993 -0.1762
  727SOL    HW2 2752   1.990   1.618   1.773  0.2757  0.0395 -1.3842
  728SOL     OW 2753   3.387   3.293   2.317  0.0257 -0.4829 -0.2669
  728SOL    HW1 2754   3.386   3.349   2.394  0.0116 -0.5661 -0.2061
  728SOL    HW2 2755   3.420   3.209   2.349 -0.9300 -0.8209 -0.1387
  729SOL     OW 2756   0.777   4.388   4.014 -0.3573  0.3053 -0.1397
  729SOL    HW1 2757   0.710   4.454   4.034  0.4399  0.2013  3.5374
  729SOL    HW2 2758   0.860   4.431   4.032  0.2879 -1.0715  0.3251
  730SOL     OW 2759   5.159   0.471   3.113  0.0514  0.2186  0.3094
  730SOL    HW1 2760   5.173   0.471   3.018 -1.2280 -0.4331  0.0975
  730SOL    HW2 2761   5.169   0.563   3.138  1.3007  0.2660 -0.2993
  731SOL     OW 2762   6.464   1.029   3.723  0.2277 -0.1019  0.3575
  731SOL    HW1 2763   6.501   0.978   3.796 -2.8857 -1.6873  0.9913
  731SOL    HW2 2764   6.463   0.968   3.650 -0.6921  0.0588  0.2347
  732SOL     OW 2765   3.557   6.527   3.409 -0.2679 -0.2685 -0.1079
  732SOL    HW1 2766   3.561   6.541   3.315  0.4775  1.7443  0.1641
  732SOL    HW2 2767   3.464   6.535   3.430 -0.5928 -1.9235 -0.7860
  733SOL     OW 2768   2.853   0.004   3.018 -0.0955 -0.1149 -0.1745
  733SOL    HW1 2769   2.766  -0.010   2.981 -0.7724 -0.3678  1.4427
  733SOL    HW2 2770   2.912  -0.001   2.943 -1.4057 -0.5606 -1.2092
  734SOL     OW 2771   4.602   0.197   5.145  0.1568  0.5022  0.1099
  734SOL    HW1 2772   4.528   0.257   5.139  0.7613  1.2404 -0.1557
  734SOL    HW2 2773   4.667   0.234   5.085  1.0689  0.3458  0.9886
  735SOL     OW 2774   7.056   6.737   2.004  0.5184 -0.6055 -0.3365
  735SOL    HW1 2775   7.137   6.741   2.056  0.7222  0.8564 -0.7170
  735SOL    HW2 2776   7.086   6.738   1.913  0.0669  0.6756 -0.4837
  736SOL     OW 2777   7.053   0.725   3.321 -0.3043 -0.2114 -0.3539
  736SOL    HW1 2778   6.968   0.717   3.363  0.3950  0.6777  1.3211
  736SOL    HW2 2779   7.088   0.808   3.353  0.8096 -0.0975 -1.7500
  737SOL     OW 2780   4.682   0.991   1.214  0.1238 -0.5273 -0.1942
  737SOL    HW1 2781   4.640   1.020   1.295  0.3584  0.6559 -0.4802
  737SOL    HW2 2782   4.698   1.071   1.166 -0.5951 -1.2563 -1.7201
  738SOL     OW 2783   6.459   0.108   2.522  0.1274  0.0654  0.5793
  738SOL    HW1 2784   6.388   0.159   2.481  0.9811  0.3217 -0.6110
  738SOL    HW2 2785   6.436   0.108   2.615 -2.3351 -1.2584  0.0822
  739SOL     OW 2786   6.706   5.172   2.372 -0.1301 -0.1147 -0.1883
  739SOL    HW1 2787   6.780   5.232   2.382  0.3907 -0.8603  0.5681
  739SOL    HW2 2788   6.715   5.137   2.284  1.6124 -1.7125  0.5590
  740SOL     OW 2789   0.295   5.613   4.686 -0.3004 -0.1103  0.4170
  740SOL    HW1 2790   0.369   5.636   4.742 -0.3129 -0.5161  0.6040
  740SOL    HW2 2791   0.264   5.697   4.651  1.0474 -0.0287 -0.6878
  741SOL     OW 2792   2.781   1.847   2.485 -0.6182  0.5466 -0.3805
  741SOL    HW1 2793   2.798   1.911   2.554  0.3997 -0.1378  0.0349
  741SOL    HW2 2794   2.710   1.793   2.520  0.6972 -0.5596  0.7134
  742SOL     OW 2795   6.687   0.957   5.205 -0.3910 -0.4337  0.5653
  742SOL    HW1 2796   6.603   0.961   5.159 -0.0043 -0.9977 -0.2130
  742SOL    HW2 2797   6.681   1.025   5.273 -1.1390  0.1194 -0.0409
  743SOL     OW 2798   0.178   5.779   0.956  0.1273  1.0204  0.3202
  743SOL    HW1 2799   0.202   5.762   1.047 -1.4159  0.0322  0.5887
  743SOL    HW2 2800   0.140   5.866   0.956 -2.5091 -0.0404  1.2424
  744SOL     OW 2801   3.300   0.379   4.216 -0.1229  0.5736 -0.1324
  744SOL    HW1 2802   3.307   0.334   4.132  1.0039  0.7598 -0.1502
  744SOL    HW2 2803   3.212   0.417   4.216 -0.9577 -1.2774 -0.2763
  745SOL     OW 2804   0.560   7.339   0.181  0.5310 -0.2871  0.1135
  745SOL    HW1 2805   0.474   7.376   0.202 -0.1004 -1.5976 -0.0339
  745SOL    HW2 2806   0.602   7.328   0.267  0.6978  0.6595  0.1630
  746SOL     OW 2807   2.962   6.607   1.120 -0.1891 -0.5859 -0.0798
  746SOL    HW1 2808   2.972   6.517   1.153 -1.5806 -1.1791 -1.1662
  746SOL    HW2 2809   2.949   6.596   1.026  0.9143  0.8765 -0.4319
  747SOL     OW 2810   0.593   0.831   0.843  0.5895 -0.2643  0.1988
  747SOL    HW1 2811   0.537   0.754   0.832  0.4706 -0.2104  0.4110
  747SOL    HW2 2812   0.575   0.861   0.932 -1.7237  1.8240 -0.8221
  748SOL     OW 2813   1.469   1.493   1.683 -0.3793 -0.0257  0.0697
  748SOL    HW1 2814   1.524   1.466   1.757 -2.3364  2.1698  2.5261
  748SOL    HW2 2815   1.417   1.414   1.663  1.8863 -1.4001 -0.7219
  749SOL     OW 2816   3.772   3.194   0.710  0.1489  0.4452 -0.6486
  749SOL    HW1 2817   3.689   3.197   0.758  0.4803  1.0557 -0.0875
  749SOL    HW2 2818   3.795   3.286   0.697  0.8276  0.2808 -0.6505
  750SOL     OW 2819   2.021   5.661   0.888 -0.2406 -0.0044 -0.3903
  750SOL    HW1 2820   2.054   5.573   0.870 -1.3001 -0.2177 -1.4370
  750SOL    HW2 2821   2.084   5.720   0.848  1.3406 -0.1728  1.6825
  751SOL     OW 2822   0.550   2.025   3.599 -0.1860  0.1368 -0.1862
  751SOL    HW1 2823   0.575   1.957   3.536 -2.1612 -1.3634  0.5380
  751SOL    HW2 2824   0.590   1.997   3.681  1.3716  1.4402 -0.4512
  752SOL     OW 2825   4.763   5.428   1.380  0.0962 -0.0018  0.2103
  752SOL    HW1 2826   4.692   5.490   1.363  0.5018  0.1431 -1.0344
  752SOL    HW2 2827   4.803   5.459   1.462 -0.6507  0.4909  0.3991
  753SOL     OW 2828   0.693   1.277   1.966  0.0279 -0.1269 -0.3083
  753SOL    HW1 2829   0.659   1.251   2.052  0.6434  0.4853  0.1291
  753SOL    HW2 2830   0.768   1.332   1.986  0.8099 -0.8236 -1.2596
  754SOL     OW 2831   2.180   4.744   0.291 -0.0650 -0.0208 -0.1716
  754SOL    HW1 2832   2.147   4.696   0.215 -0.4474 -0.3849  0.2123
  754SOL    HW2 2833   2.135   4.828   0.289 -2.1961 -1.0525  1.1553
  755SOL     OW 2834   6.932   0.149   4.159 -0.2018 -0.4164 -0.0250
  755SOL    HW1 2835   6.915   0.151   4.065  0.1109 -3.5949 -0.2461
  755SOL    HW2 2836   7.026   0.134   4.167 -0.0775  0.6547  0.8668
  756SOL     OW 2837   3.215   3.364   3.831  0.9371 -0.0160  0.0600
  756SOL    HW1 2838   3.263   3.353   3.749  0.2328  1.5083 -0.5939
  756SOL    HW2 2839   3.150   3.294   3.830 -1.0839  1.7252 -2.2293
  757SOL     OW 2840   2.394   1.529   0.831  0.0839 -0.0027 -0.4907
  757SOL    HW1 2841   2.429   1.597   0.774 -0.3646  0.6462 -0.0033
  757SOL    HW2 2842   2.464   1.464   0.836  0.2367  0.0634 -1.5424
  758SOL     OW 2843   2.926   6.537   0.831 -0.2125  0.0196 -0.0777
  758SOL    HW1 2844   2.944   6.615   0.778 -1.6330  0.5551  0.1800
  758SOL    HW2 2845   2.959   6.464   0.778 -0.6539  0.6265 -1.2319
  759SOL     OW 2846   0.097   3.398   2.599 -0.6228  0.7842  0.3961
  759SOL    HW1 2847   0.186   3.429   2.615  0.6873 -2.3464 -0.0131
  759SOL    HW2 2848   0.101   3.358   2.513 -2.6459  1.1536  0.0883
  760SOL     OW 2849   1.878   5.468   5.767  0.7369  0.2475 -0.8211
  760SOL    HW1 2850   1.880   5.475   5.863  0.6718  1.0832 -0.8781
  760SOL    HW2 2851   1.949   5.526   5.738  0.2233  0.6300 -1.3141
  761SOL     OW 2852   3.317   7.207   3.621 -0.6597 -0.7880  0.2607
  761SOL    HW1 2853   3.378   7.212   3.696 -0.6644 -2.8812  0.4553
  761SOL    HW2 2854   3.371   7.176   3.549 -0.3353  2.4909 -1.0885
  762SOL     OW 2855   1.751   2.298   6.901 -0.0819 -0.2599 -0.0272
  762SOL    HW1 2856   1.780   2.211   6.872 -0.9307  0.1849 -2.4556
  762SOL    HW2 2857   1.667   2.283   6.944 -0.6320 -0.6079 -1.1731
  763SOL     OW 2858   2.355   4.229   5.583  0.2595 -0.1048  0.2194
  763SOL    HW1 2859   2.372   4.321   5.567  0.5007 -0.0252  0.8914
  763SOL    HW2 2860   2.302   4.228   5.663 -0.0552 -0.5249  0.0076
  764SOL     OW 2861   5.827   5.806   0.146 -0.4321  0.2441  0.3295
  764SOL    HW1 2862   5.861   5.769   0.228 -1.2267  2.0306  1.5321
  764SOL    HW2 2863   5.766   5.741   0.114 -3.0086  0.9831  3.2247
  765SOL     OW 2864   6.773   2.596   6.632  0.8992  0.1507 -0.2716
  765SOL    HW1 2865   6.779   2.506   6.599  0.0401 -0.0247  0.0223
  765SOL    HW2 2866   6.680   2.609   6.649  1.0609  0.9830  0.0252
  766SOL     OW 2867   5.737   6.956   5.434 -0.2174  0.3762  0.4179
  766SOL    HW1 2868   5.802   6.982   5.368  1.9050 -0.0537  2.2470
  766SOL    HW2 2869   5.665   6.919   5.382  1.1248  0.5321 -1.6949
  767SOL     OW 2870   1.564   0.135   7.143 -0.4077  0.3681 -0.2202
  767SOL    HW1 2871   1.572   0.142   7.238  0.6121 -1.1444 -0.1659
  767SOL    HW2 2872   1.474   0.161   7.124 -0.8584 -0.0782  1.2466
  768SOL     OW 2873   1.040   2.543   2.633  0.0349 -0.1918  0.0770
  768SOL    HW1 2874   1.103   2.472   2.644  0.6303  0.6013  2.4205
  768SOL    HW2 2875   1.092   2.614   2.594  1.0677  0.8790  3.0978
  769SOL     OW 2876   1.088   0.061   6.419  0.4203 -0.8464  0.3414
  769SOL    HW1 2877   1.091   0.109   6.336 -0.2804 -1.3629  0.0067
  769SOL    HW2 2878   1.006   0.089   6.460  0.5746 -0.8838  0.6827
  770SOL     OW 2879   4.527   5.407   4.521  0.5344  0.5428  0.2353
  770SOL    HW1 2880   4.556   5.464   4.592  0.4297  4.1952 -2.3391
  770SOL    HW2 2881   4.440   5.440   4.497  0.4077 -0.7769 -1.2954
  771SOL     OW 2882   5.740   7.033   4.772  0.2208  0.1584 -0.2421
  771SOL    HW1 2883   5.797   7.104   4.800  0.2092  0.2182 -0.3681
  771SOL    HW2 2884   5.711   7.059   4.685  2.1678 -1.1157 -1.3737
  772SOL     OW 2885   1.853   7.402   1.629  0.1323  0.1854 -0.6521
  772SOL    HW1 2886   1.892   7.488   1.609 -1.6490  0.9619 -0.9328
  772SOL    HW2 2887   1.803   7.418   1.710 -0.4736 -0.5084 -0.8884
  773SOL     OW 2888   1.145   4.362   0.155  0.4945  0.8771  0.7703
  773SOL    HW1 2889   1.054   4.392   0.150  0.0335 -0.1920  2.0531
  773SOL    HW2 2890   1.143   4.291   0.219  2.2125  0.7067  0.6788
  774SOL     OW 2891   4.307   6.742   0.681  0.3041  0.4046  0.0443
  774SOL    HW1 2892   4.291   6.836   0.682  0.6046  0.4563  0.9212
  774SOL    HW2 2893   4.368   6.729   0.609  0.8860  0.9965  0.4178
  775SOL     OW 2894   1.822   5.545   4.850  0.2484 -0.6510 -0.1203
  775SOL    HW1 2895   1.745   5.601   4.840  1.4855  1.0686 -0.4963
  775SOL    HW2 2896   1.804   5.493   4.929 -0.7741  0.5949  0.4990
  776SOL     OW 2897   3.596   5.071   2.768  0.3237  0.9739 -0.0600
  776SOL    HW1 2898   3.597   5.160   2.804 -1.0735  0.8048  0.4191
  776SOL    HW2 2899   3.565   5.016   2.839 -1.2050  0.4499 -1.0909
  777SOL     OW 2900   1.408   6.692   4.446  0.0614 -0.3457 -0.0987
  777SOL    HW1 2901   1.317   6.675   4.469 -1.0704  0.6416 -3.3153
  777SOL    HW2 2902   1.432   6.770   4.497 -1.7229  0.8208 -0.9615
  778SOL     OW 2903   1.644   7.442   4.815  0.9937  0.2304  0.3261
  778SOL    HW1 2904   1.640   7.358   4.768  0.2505  1.0288 -1.1118
  778SOL    HW2 2905   1.733   7.446   4.849  0.8815 -1.3761  0.8847
  779SOL     OW 2906   3.674   6.558   1.501 -0.3413  0.6495  0.3130
  779SOL    HW1 2907   3.591   6.597   1.529 -1.3687 -1.9231  1.2304
  779SOL    HW2 2908   3.687   6.485   1.562  1.7235 -0.0633 -0.8891
  780SOL     OW 2909   5.300   2.228   3.106 -0.2990 -0.1541  0.7091
  780SOL    HW1 2910   5.347   2.230   3.023 -0.1813  1.0170  0.7833
  780SOL    HW2 2911   5.257   2.143   3.108 -0.3826 -0.1593 -0.5901
  781SOL     OW 2912   1.331   1.364   6.575  0.6231 -0.3402  0.1546
  781SOL    HW1 2913   1.380   1.284   6.557 -0.7809 -1.1248 -0.3669
  781SOL    HW2 2914   1.288   1.348   6.659  2.4007  0.9433  1.3680
  782SOL     OW 2915   1.044   4.422   4.930  0.2727  0.3085 -0.1604
  782SOL    HW1 2916   1.073   4.355   4.992 -0.8552 -0.8396 -0.8294
  782SOL    HW2 2917   1.061   4.384   4.844  0.6721  1.3694 -0.5620
  783SOL     OW 2918   5.465   4.224   3.669 -0.9404 -0.2064  0.5175
  783SOL    HW1 2919   5.422   4.140   3.660 -0.6431 -0.3314  0.2582
  783SOL    HW2 2920   5.407   4.286   3.624 -0.1669 -0.5956 -1.0824
  784SOL     OW 2921   5.766   6.496   1.713 -0.1225 -0.2199 -0.1311
  784SOL    HW1 2922   5.810   6.413   1.694 -2.6965 -1.7006 -0.0157
  784SOL    HW2 2923   5.806   6.526   1.795  1.4934 -0.8132 -0.6523
  785SOL     OW 2924   3.909   0.634   2.744  0.0992  0.2600  0.3814
  785SOL    HW1 2925   3.921   0.580   2.666 -0.6076 -0.1892  0.5671
  785SOL    HW2 2926   3.913   0.724   2.712 -0.0015  0.0827 -0.1450
  786SOL     OW 2927   5.622   1.842   2.991  0.7867  0.4927  0.7792
  786SOL    HW1 2928   5.716   1.839   3.010  0.8418  3.2565  1.3475
  786SOL    HW2 2929   5.617   1.869   2.900  0.4644 -2.4351 -0.1741
  787SOL     OW 2930   7.337   1.781   4.226  0.3801  0.4605 -0.5127
  787SOL    HW1 2931   7.247   1.794   4.195 -0.1381  0.8079  1.0387
  787SOL    HW2 2932   7.385   1.856   4.191  0.1907  0.0148 -1.7668
  788SOL     OW 2933   7.393   3.662   6.522  0.0837  0.4594  0.2292
  788SOL    HW1 2934   7.483   3.662   6.553 -0.0462 -0.3246  0.6457
  788SOL    HW2 2935   7.341   3.644   6.600 -0.3465 -0.1907 -0.1911
  789SOL     OW 2936   6.078   2.405   5.290 -0.3774  0.3343 -0.1022
  789SOL    HW1 2937   6.029   2.327   5.266  2.3906 -1.8827  0.9413
  789SOL    HW2 2938   6.101   2.446   5.207 -0.0984 -1.1751 -0.7954
  790SOL     OW 2939   6.751   2.829   5.162  0.1513  0.2529  0.3543
  790SOL    HW1 2940   6.776   2.752   5.212  1.0869  1.1452  1.3222
  790SOL    HW2 2941   6.824   2.844   5.102  0.9261  1.4814  1.5329
  791SOL     OW 2942   2.705   1.419   5.068  0.0826 -0.6289  0.0288
  791SOL    HW1 2943   2.670   1.415   4.979  1.1213  0.7476 -0.4878
  791SOL    HW2 2944   2.766   1.346   5.074  1.5244  0.4468 -1.1096
  792SOL     OW 2945   5.829   4.708   4.070 -0.0916  0.4662 -0.0539
  792SOL    HW1 2946   5.742   4.747   4.086  0.0217  0.5949  0.2583
  792SOL    HW2 2947   5.840   4.713   3.976  0.1536  1.7168  0.0210
  793SOL     OW 2948   5.482   0.143   0.336  0.1323  0.3563 -0.1405
  793SOL    HW1 2949   5.439   0.079   0.278  1.2770  0.8316 -1.5977
  793SOL    HW2 2950   5.508   0.214   0.277  1.4634  0.8076  0.9430
  794SOL     OW 2951   6.211   1.753   2.794 -0.1828  0.1247 -0.0319
  794SOL    HW1 2952   6.204   1.848   2.795 -0.4014  0.1155  1.2452
  794SOL    HW2 2953   6.232   1.730   2.885 -0.1172 -1.0421 -0.3282
  795SOL     OW 2954   5.061   6.239   6.186  0.0214 -0.1327  0.2834
  795SOL    HW1 2955   5.078   6.309   6.123  0.4214  0.6799  1.2591
  795SOL    HW2 2956   4.986   6.192   6.150  1.2320 -0.7076 -1.6059
  796SOL     OW 2957   4.814   0.975   2.134 -0.1313  0.0238 -0.4712
  796SOL    HW1 2958   4.899   0.981   2.090  0.3489 -0.1553  0.3949
  796SOL    HW2 2959   4.812   0.886   2.169 -1.1678 -0.3448 -1.4146
  797SOL     OW 2960   1.762   2.207   5.107 -0.1032  0.0335 -0.6856
  797SOL    HW1 2961   1.833   2.184   5.048 -1.2963 -0.8400 -1.8491
  797SOL    HW2 2962   1.721   2.123   5.129 -1.2657  0.5848 -0.6845
  798SOL     OW 2963   7.187   4.751   2.720  0.1382 -0.5208 -0.0030
  798SOL    HW1 2964   7.265   4.695   2.715 -0.0988 -1.1155  2.0389
  798SOL    HW2 2965   7.162   4.765   2.629  1.4225 -2.0279 -0.6388
  799SOL     OW 2966   5.746   6.299   5.983  1.0996 -0.3418 -0.1279
  799SOL    HW1 2967   5.772   6.226   5.928  0.8009  0.5045 -1.4358
  799SOL    HW2 2968   5.813   6.303   6.052  1.2052 -1.7204 -0.1261
  800SOL     OW 2969   3.054   4.808   4.476 -0.2071 -0.2764 -0.1094
  800SOL    HW1 2970   3.089   4.731   4.431  1.5147  0.1459  0.4367
  800SOL    HW2 2971   3.002   4.773   4.548 -1.7889 -0.9287 -1.4832
  801SOL     OW 2972   1.309   1.262   2.751  0.3343  0.0379  0.7122
  801SOL    HW1 2973   1.257   1.183   2.736  0.6359  0.2121 -1.6476
  801SOL    HW2 2974   1.319   1.267   2.846  0.4235 -2.8221  0.9250
  802SOL     OW 2975   0.914   2.288   1.103  0.1174  0.0259 -0.0900
  802SOL    HW1 2976   0.984   2.271   1.166  0.5216  1.9277  0.0280
  802SOL    HW2 2977   0.959   2.322   1.026 -0.6180  0.6729 -0.2452
  803SOL     OW 2978   5.558   5.379   5.704  0.1346 -0.5523 -0.3601
  803SOL    HW1 2979   5.499   5.316   5.663 -1.3584  1.3949 -1.3795
  803SOL    HW2 2980   5.501   5.449   5.735  1.5954 -0.3194  2.0222
  804SOL     OW 2981   2.496   7.190   4.794  0.6504 -0.0580  0.0396
  804SOL    HW1 2982   2.500   7.095   4.780 -0.5347  0.0575 -1.3094
  804SOL    HW2 2983   2.408   7.206   4.826  0.5860  0.6603 -0.4662
  805SOL     OW 2984   0.100   3.125   0.751  0.4721  0.0561 -0.0466
  805SOL    HW1 2985   0.083   3.219   0.751  0.5482  0.0702  0.0935
  805SOL    HW2 2986   0.192   3.117   0.777  0.4557 -0.0584 -0.0234
  806SOL     OW 2987   0.384   0.690   2.951  0.4920 -0.1686 -0.0399
  806SOL    HW1 2988   0.470   0.711   2.916  0.8316 -0.4646  0.5935
  806SOL    HW2 2989   0.323   0.732   2.891  1.0660 -0.2503 -0.6936
  807SOL     OW 2990   7.319   1.196   3.971 -0.2936  0.2207 -0.4607
  807SOL    HW1 2991   7.272   1.250   4.035  1.5093  0.4324  0.7681
  807SOL    HW2 2992   7.385   1.255   3.935 -0.0395 -0.4456 -1.0962
  808SOL     OW 2993   5.475   4.957   5.182 -0.1382 -0.4873 -0.5258
  808SOL    HW1 2994   5.529   4.891   5.225  0.8704  1.5897  1.6606
  808SOL    HW2 2995   5.523   4.980   5.103  1.5956  0.3967  0.7238
  809SOL     OW 2996   7.184   3.272   1.679  0.0504  0.4378 -0.4193
  809SOL    HW1 2997   7.133   3.247   1.756  0.6313  0.8474  0.1199
  809SOL    HW2 2998   7.145   3.355   1.650 -0.1868  0.2693 -0.5775
  810SOL     OW 2999   0.842   2.228   3.880 -0.0228  1.1312  0.4401
  810SOL    HW1 3000   0.766   2.225   3.937  0.2213  1.8087  0.8202
  810SOL    HW2 3001   0.839   2.315   3.841 -2.0638 -0.3865 -3.2228
  811SOL     OW 3002   6.303   5.170   3.706  0.4984 -1.1310  0.3203
  811SOL    HW1 3003   6.243   5.236   3.672  0.1817 -0.7546  1.5656
  811SOL    HW2 3004   6.369   5.160   3.637 -1.0456 -1.6861 -1.1625
  812SOL     OW 3005   6.587   7.265   1.232  0.8236 -0.3074  0.1059
  812SOL    HW1 3006   6.545   7.184   1.200 -1.0612  1.1366 -1.3432
  812SOL    HW2 3007   6.548   7.279   1.318  0.7470 -0.6562  0.1302
  813SOL     OW 3008   5.111   4.804   3.701 -0.1537  0.2125  0.4552
  813SOL    HW1 3009   5.194   4.791   3.656 -1.6935  0.1656 -2.6717
  813SOL    HW2 3010   5.127   4.877   3.761  2.1330  0.1171  0.0315
  814SOL     OW 3011   5.142   0.735   0.882  0.3434  0.1290 -0.6521
  814SOL    HW1 3012   5.164   0.666   0.819  0.5175 -0.2675 -0.1623
  814SOL    HW2 3013   5.046   0.729   0.890  0.2658  0.5045 -1.2414
  815SOL     OW 3014   0.365   4.278   3.542 -0.5653  0.0298  0.2477
  815SOL    HW1 3015   0.351   4.273   3.636  2.6266  0.9001  0.8977
  815SOL    HW2 3016   0.342   4.368   3.519  1.0023  0.5895  0.7438
  816SOL     OW 3017   7.024   5.120   2.184  0.1103  1.2378 -0.0105
  816SOL    HW1 3018   6.937   5.084   2.166  0.6480 -0.3879  0.4202
  816SOL    HW2 3019   7.008   5.190   2.247 -0.8245  0.3478  0.7953
  817SOL     OW 3020   4.743   1.562   0.075  0.2730  0.3435  0.4712
  817SOL    HW1 3021   4.705   1.649   0.072  0.5797  0.4573 -0.4478
  817SOL    HW2 3022   4.685   1.508   0.021  0.3005  0.0631  0.7161
  818SOL     OW 3023   7.037   3.225   4.951 -0.0089 -0.2930  0.5217
  818SOL    HW1 3024   7.046   3.136   4.915  0.2584  0.2426 -0.8227
  818SOL    HW2 3025   6.970   3.218   5.018 -0.0710 -1.4949  0.3538
  819SOL     OW 3026   4.066   3.504   1.071  0.5905 -0.4063 -0.0135
  819SOL    HW1 3027   3.985   3.526   1.116 -0.4969  0.6544 -2.3334
  819SOL    HW2 3028   4.112   3.587   1.062  0.7997 -0.5928 -0.7969
  820SOL     OW 3029   0.683   2.832   7.401 -0.2789  0.2574  0.1503
  820SOL    HW1 3030   0.737   2.814   7.324  0.2980  0.6779  0.4500
  820SOL    HW2 3031   0.654   2.746   7.431  2.5398 -0.2853  1.6387
  821SOL     OW 3032   4.699   2.192   5.257  0.3039 -0.0007  0.4509
  821SOL    HW1 3033   4.666   2.209   5.169  2.4178  1.2638 -0.1792
  821SOL    HW2 3034   4.621   2.177   5.310 -1.0735  0.2289 -1.4207
  822SOL     OW 3035   1.404   5.867   4.254 -0.8708 -0.1641 -0.0784
  822SOL    HW1 3036   1.462   5.813   4.307  1.3922  1.1700 -1.0887
  822SOL    HW2 3037   1.316   5.832   4.272 -0.2364 -0.1863  4.0670
  823SOL     OW 3038   4.511   3.485   0.055  0.3205 -0.0167 -1.0527
  823SOL    HW1 3039   4.574   3.425   0.093 -1.5987 -2.8254 -2.0304
  823SOL    HW2 3040   4.512   3.561   0.114  1.6065 -1.7079  1.2613
  824SOL     OW 3041   4.250   6.093   2.188 -0.5743 -0.2006 -0.4266
  824SOL    HW1 3042   4.216   6.058   2.269  1.6992 -1.0412  0.2557
  824SOL    HW2 3043   4.264   6.186   2.205 -0.0974 -0.3777  0.1648
  825SOL     OW 3044   2.913   6.599   5.386  0.1947 -0.2924  0.0950
  825SOL    HW1 3045   2.941   6.578   5.475 -1.2753 -0.2861  0.5859
  825SOL    HW2 3046   2.843   6.663   5.397 -0.5753 -0.9069 -1.0175
  826SOL     OW 3047   1.243   6.033   4.136  0.6064 -0.1159 -0.0123
  826SOL    HW1 3048   1.195   5.963   4.093  1.0319 -0.1690 -0.4147
  826SOL    HW2 3049   1.318   5.989   4.176  0.6400  0.0479  0.1065
  827SOL     OW 3050   1.484   0.127   3.545  0.1811 -0.7870 -0.0480
  827SOL    HW1 3051   1.574   0.149   3.570  0.0780 -1.0911  0.6129
  827SOL    HW2 3052   1.485   0.130   3.449  1.1093 -1.6199 -0.0817
  828SOL     OW 3053   2.526   3.291   4.767 -0.6483 -0.1827 -0.5520
  828SOL    HW1 3054   2.517   3.316   4.675 -0.5092 -0.0917 -0.5418
  828SOL    HW2 3055   2.617   3.313   4.788 -0.8483  0.3398 -0.2302
  829SOL     OW 3056   0.294   4.546   0.215  0.6088 -0.2450  0.2971
  829SOL    HW1 3057   0.377   4.521   0.256  0.0762 -2.4293  0.1765
  829SOL    HW2 3058   0.254   4.463   0.190 -1.5932  0.7498  0.2895
  830SOL     OW 3059   3.560   3.636   4.290  0.1316 -0.0586  0.5798
  830SOL    HW1 3060   3.616   3.573   4.245  0.7194  1.2026 -0.5442
  830SOL    HW2 3061   3.568   3.614   4.382  0.4724 -1.4847  0.2310
  831SOL     OW 3062   6.179   1.996   3.005 -0.3296 -0.0184  0.6108
  831SOL    HW1 3063   6.176   2.073   3.061  0.3446  0.2909  0.2259
  831SOL    HW2 3064   6.122   1.932   3.049 -0.0876  0.3426  1.4555
  832SOL     OW 3065   0.394   6.377   3.509  0.9971 -0.1807  0.5081
  832SOL    HW1 3066   0.419   6.340   3.424  0.6933  1.4033 -0.3193
  832SOL    HW2 3067   0.325   6.320   3.542  0.4961 -0.3184 -0.7397
  833SOL     OW 3068   3.604   2.409   0.139  0.2294  0.1300 -0.3269
  833SOL    HW1 3069   3.643   2.482   0.187  0.0400 -0.4673  0.7695
  833SOL    HW2 3070   3.548   2.451   0.074  0.7850  0.9697 -0.2787
  834SOL     OW 3071   2.910   3.852   5.708  0.2725 -0.0367  0.2110
  834SOL    HW1 3072   2.832   3.895   5.743 -0.3593  0.2104 -1.4071
  834SOL    HW2 3073   2.946   3.805   5.782 -0.1460  1.6516  1.5580
  835SOL     OW 3074   6.939   4.393   4.568  0.2178 -0.1613 -0.0008
  835SOL    HW1 3075   6.880   4.349   4.507  0.7174 -0.8759  0.0086
  835SOL    HW2 3076   7.024   4.392   4.524  0.8059 -1.5694  1.0898
  836SOL     OW 3077   5.920   1.113   3.323  0.6973 -0.3526  0.1526
  836SOL    HW1 3078   5.973   1.045   3.281  1.6211 -0.9550  2.2079
  836SOL    HW2 3079   5.925   1.094   3.416 -3.2381 -0.4591  0.4928
  837SOL     OW 3080   0.047   7.092   5.976  0.1384 -0.0804  0.3638
  837SOL    HW1 3081   0.117   7.076   6.040 -1.5007 -0.6435  2.0848
  837SOL    HW2 3082   0.016   7.006   5.950 -0.5201  0.1678  0.2969
  838SOL     OW 3083   6.412   6.217   0.877 -0.6767 -0.1201  0.2705
  838SOL    HW1 3084   6.337   6.168   0.912 -0.6250 -0.6799 -0.3740
  838SOL    HW2 3085   6.484   6.154   0.877 -0.7120 -0.1917 -0.9627
  839SOL     OW 3086   5.457   6.661   5.796  0.0466  0.5059 -0.3756
  839SOL    HW1 3087   5.441   6.748   5.833  0.8705  0.2899  0.5246
  839SOL    HW2 3088   5.377   6.612   5.812  0.2679  0.5167  0.8738
  840SOL     OW 3089   0.566   4.539   4.849 -0.2842 -0.1531  0.6768
  840SOL    HW1 3090   0.517   4.540   4.931  0.3675 -0.6893  1.0771
  840SOL    HW2 3091   0.657   4.550   4.874 -0.1048 -0.0165  0.0008
  841SOL     OW 3092   6.993   6.338   0.235  0.5205  0.1633  0.4130
  841SOL    HW1 3093   6.929   6.306   0.299 -1.3057  0.3243 -1.2596
  841SOL    HW2 3094   6.965   6.427   0.214  0.5572 -0.1784 -1.2345
  842SOL     OW 3095   3.768   1.616   7.149  0.0375 -0.0943 -0.0246
  842SOL    HW1 3096   3.750   1.548   7.214  0.0730  0.3560  0.4626
  842SOL    HW2 3097   3.698   1.606   7.084  1.9755 -2.8866 -1.9053
  843SOL     OW 3098   2.897   6.740   7.063  0.3226  0.2802  0.1606
  843SOL    HW1 3099   2.977   6.726   7.114  0.8644 -1.0549 -0.9796
  843SOL    HW2 3100   2.905   6.680   6.989 -1.4724  0.5445 -0.3014
  844SOL     OW 3101   7.042   2.860   0.361 -0.4096 -0.2300  0.3440
  844SOL    HW1 3102   7.054   2.926   0.430 -0.0819 -0.7634  0.8081
  844SOL    HW2 3103   6.984   2.794   0.400  1.0818 -1.3747  0.7243
  845SOL     OW 3104   5.278   6.092   1.436 -0.9310 -0.2057 -0.4131
  845SOL    HW1 3105   5.304   6.096   1.344  1.4727 -1.0007  0.1390
  845SOL    HW2 3106   5.303   6.177   1.472  1.9390 -1.2368  0.2908
  846SOL     OW 3107   4.366   1.535   2.024 -0.0450  0.2048  0.0625
  846SOL    HW1 3108   4.459   1.552   2.007  0.5508 -1.5171  1.3164
  846SOL    HW2 3109   4.328   1.519   1.937  1.5225 -2.0392 -0.3099
  847SOL     OW 3110   6.639   5.613   6.586  0.0518  0.3278  0.0248
  847SOL    HW1 3111   6.715   5.555   6.588 -0.7571 -0.7499 -0.0173
  847SOL    HW2 3112   6.585   5.584   6.660 -1.3939 -0.4130 -1.2747
  848SOL     OW 3113   2.665   3.306   1.883  0.0447  0.1571  0.9247
  848SOL    HW1 3114   2.611   3.325   1.960  1.1523 -1.2417  2.0865
  848SOL    HW2 3115   2.611   3.249   1.829  0.0087 -0.4975  1.6437
  849SOL     OW 3116   7.028   1.029   6.649  0.1602  0.3615  0.3953
  849SOL    HW1 3117   7.044   1.113   6.606 -0.6433 -0.1242 -0.9033
  849SOL    HW2 3118   6.949   0.995   6.608  1.6270 -2.0217 -0.6819
  850SOL     OW 3119   4.545   6.524   2.553 -0.4719  0.3038 -0.0942
  850SOL    HW1 3120   4.632   6.534   2.590 -0.3531  1.2114 -0.5759
  850SOL    HW2 3121   4.500   6.606   2.576 -1.5673 -0.5988  1.0854
  851SOL     OW 3122   0.124   6.966   2.330 -0.1793  0.4635 -0.1424
  851SOL    HW1 3123   0.032   6.993   2.328 -0.5578 -0.7171  0.8129
  851SOL    HW2 3124   0.148   6.968   2.422 -0.1263 -2.0448 -0.0409
  852SOL     OW 3125   0.905   6.650   7.214 -0.4851 -0.1272 -0.2652
  852SOL    HW1 3126   0.860   6.568   7.192 -1.1439  0.7103 -2.1801
  852SOL    HW2 3127   0.836   6.708   7.244 -0.1525  0.0403  0.1792
  853SOL     OW 3128   5.954   0.443   0.630 -0.4931 -0.3477  0.3315
  853SOL    HW1 3129   5.968   0.531   0.595  2.5025 -1.4126 -1.5107
  853SOL    HW2 3130   6.031   0.426   0.684  0.7142 -2.8868 -1.9315
  854SOL     OW 3131   5.640   4.307   2.337  0.0208 -0.5684 -0.1777
  854SOL    HW1 3132   5.558   4.261   2.359 -0.7295  1.3152  1.2208
  854SOL    HW2 3133   5.655   4.365   2.412  1.5297  0.6274 -1.3604
  855SOL     OW 3134   1.228   4.763   4.069  0.7013  0.2768  0.5092
  855SOL    HW1 3135   1.225   4.677   4.026 -0.8237  0.1587  0.8027
  855SOL    HW2 3136   1.309   4.803   4.036  1.3404 -1.1726  0.2025
  856SOL     OW 3137   1.807   7.351   0.286  0.2259 -0.7448  0.6047
  856SOL    HW1 3138   1.841   7.351   0.375 -0.8426  0.0776  1.0340
  856SOL    HW2 3139   1.797   7.259   0.264  0.0001 -0.9525  1.5441
  857SOL     OW 3140   5.753   4.573   7.251  0.6267  0.2817  0.0095
  857SOL    HW1 3141   5.846   4.589   7.231  0.4517  0.7451 -0.4433
  857SOL    HW2 3142   5.754   4.495   7.307  1.2477 -0.0929 -0.5027
  858SOL     OW 3143   6.575   2.140   6.986  0.2792  0.5548 -0.6050
  858SOL    HW1 3144   6.615   2.222   7.015 -0.3598  0.4579  0.6136
  858SOL    HW2 3145   6.482   2.161   6.978 -0.1390 -0.4407  1.2811
  859SOL     OW 3146   3.640   3.351   5.549 -0.4126  0.3970 -0.4002
  859SOL    HW1 3147   3.669   3.318   5.634  2.3491  0.8023 -1.0955
  859SOL    HW2 3148   3.647   3.446   5.558  0.7342  0.4174 -1.3111
  860SOL     OW 3149   5.246   4.076   0.890  0.8512  0.8225 -0.3768
  860SOL    HW1 3150   5.238   4.083   0.985  0.8533 -0.5969 -0.2572
  860SOL    HW2 3151   5.286   4.159   0.863 -1.8532  2.5395  0.5012
  861SOL     OW 3152   5.961   0.728   6.254  0.2669 -0.5431 -0.3264
  861SOL    HW1 3153   5.977   0.814   6.294 -1.5154 -0.2780 -0.1113
  861SOL    HW2 3154   6.006   0.732   6.170 -1.0777  1.2313 -1.0301
  862SOL     OW 3155   0.682   2.298   5.480  0.4950  1.0812  0.0064
  862SOL    HW1 3156   0.721   2.292   5.567  0.7837  0.7079 -0.1466
  862SOL    HW2 3157   0.649   2.388   5.475  1.9982  1.6542 -0.1448
  863SOL     OW 3158   3.532   0.595   6.198  0.3557  0.0155 -0.2807
  863SOL    HW1 3159   3.627   0.604   6.205  0.2301  0.7121  0.8991
  863SOL    HW2 3160   3.497   0.673   6.241 -0.7538 -0.9264  0.6077
  864SOL     OW 3161   5.975   4.505   1.476 -0.1624 -0.4033  0.0202
  864SOL    HW1 3162   5.910   4.442   1.507 -0.5367 -0.0373 -0.0028
  864SOL    HW2 3163   6.018   4.461   1.402  0.6339 -1.2256  0.9448
  865SOL     OW 3164   7.013   6.027   7.064 -0.4265 -0.2059  0.0636
  865SOL    HW1 3165   7.065   6.092   7.112  1.0924 -1.3359  0.0191
  865SOL    HW2 3166   6.948   6.079   7.016  0.3583  1.2233  0.4906
  866SOL     OW 3167   6.130   6.640   2.558  0.0221 -0.2529 -0.6009
  866SOL    HW1 3168   6.186   6.716   2.540  1.8132 -1.5630 -0.8914
  866SOL    HW2 3169   6.151   6.578   2.488 -0.6067 -1.4365  0.2251
  867SOL     OW 3170   6.844   5.393   0.320  0.1356 -0.3104 -0.2887
  867SOL    HW1 3171   6.867   5.432   0.404 -1.9014  1.7603 -0.5925
  867SOL    HW2 3172   6.783   5.455   0.281  0.1513 -1.7631 -2.8200
  868SOL     OW 3173   0.660   5.906   4.247  0.6172 -0.1273  0.0837
  868SOL    HW1 3174   0.634   5.964   4.319 -1.5118  0.5489 -1.1349
  868SOL    HW2 3175   0.748   5.935   4.223  1.0909  0.0935  1.9109
  869SOL     OW 3176   1.016   6.412   1.151  0.0643  0.3425  0.2546
  869SOL    HW1 3177   0.994   6.496   1.190  1.7169  1.3772 -0.8926
  869SOL    HW2 3178   1.046   6.434   1.063 -1.2063 -1.6508 -0.7672
  870SOL     OW 3179   1.639   4.301   0.660  0.1508  0.0964  0.2403
  870SOL    HW1 3180   1.576   4.290   0.588  0.9261  0.9360 -0.6079
  870SOL    HW2 3181   1.627   4.224   0.715 -0.6093 -0.4732 -0.6907
  871SOL     OW 3182   5.957   6.325   1.629 -0.4012  0.5860  0.4547
  871SOL    HW1 3183   6.024   6.383   1.665  0.4730  0.6518 -1.1988
  871SOL    HW2 3184   5.945   6.355   1.539  0.3495 -1.9644 -0.5919
  872SOL     OW 3185   6.619   6.764   3.923  0.5098 -0.1747  0.2201
  872SOL    HW1 3186   6.617   6.752   4.018  0.9433 -2.9952 -0.0413
  872SOL    HW2 3187   6.611   6.675   3.888 -0.4047  0.8664 -2.4102
  873SOL     OW 3188   2.294   6.322   7.418 -0.5750  0.3564 -0.1652
  873SOL    HW1 3189   2.362   6.289   7.476 -0.1140 -1.8984 -1.8401
  873SOL    HW2 3190   2.287   6.256   7.349 -2.1928  2.1129 -1.8192
  874SOL     OW 3191   0.691   6.861   5.635 -0.8120  0.6043  0.4244
  874SOL    HW1 3192   0.615   6.804   5.621  0.2158 -0.3582 -1.7302
  874SOL    HW2 3193   0.684   6.927   5.566  1.0473 -0.4110 -0.8365
  875SOL     OW 3194   7.165   6.536   1.711  0.1155 -0.0280  0.0361
  875SOL    HW1 3195   7.256   6.514   1.727 -0.8311 -2.8077  2.3811
  875SOL    HW2 3196   7.162   6.632   1.716  2.7844  0.1170  0.2307
  876SOL     OW 3197   1.632   0.234   5.986 -0.0574 -0.9028  0.1861
  876SOL    HW1 3198   1.617   0.257   5.894  0.1015 -1.1935  0.0836
  876SOL    HW2 3199   1.713   0.183   5.984  0.2958 -0.3709  0.5713
  877SOL     OW 3200   3.569   4.332   1.708  0.8771  0.1585 -0.6234
  877SOL    HW1 3201   3.579   4.295   1.795 -0.7115  0.7314 -0.1660
  877SOL    HW2 3202   3.606   4.266   1.649  2.3246 -0.0676  0.4734
  878SOL     OW 3203   1.592   5.673   2.378  0.5320  1.0240 -0.2875
  878SOL    HW1 3204   1.504   5.694   2.411  0.1535  1.4092 -1.4635
  878SOL    HW2 3205   1.590   5.579   2.361  0.4073  0.9987 -0.1301
  879SOL     OW 3206   2.017   3.492   1.834 -0.2261 -0.4817 -0.4818
  879SOL    HW1 3207   2.098   3.525   1.873 -0.5996  0.6101 -0.6102
  879SOL    HW2 3208   2.021   3.522   1.743 -0.4958 -0.9425 -0.6470
  880SOL     OW 3209   4.453   3.289   1.713  0.1617  0.1101  0.2533
  880SOL    HW1 3210   4.390   3.254   1.775  0.6561 -0.4575  0.4499
  880SOL    HW2 3211   4.538   3.269   1.751  0.4735 -0.1981 -0.5659
  881SOL     OW 3212   6.212   5.233   6.952 -0.1329  0.2293  0.1175
  881SOL    HW1 3213   6.192   5.176   6.878  0.6721 -1.1336  0.8987
  881SOL    HW2 3214   6.290   5.281   6.925 -1.2110  1.4992 -0.8105
  882SOL     OW 3215   4.664   4.552   1.761 -0.5748  0.0417 -0.1251
  882SOL    HW1 3216   4.578   4.592   1.774  0.3908  1.8388  1.1667
  882SOL    HW2 3217   4.707   4.608   1.696 -0.7144 -1.4842 -1.6083
  883SOL     OW 3218   4.048   5.169   0.139  0.2564 -0.2503 -0.1650
  883SOL    HW1 3219   4.076   5.078   0.129  1.2877  0.0361 -0.0921
  883SOL    HW2 3220   4.130   5.217   0.158 -0.4314  0.4952  1.0930
  884SOL     OW 3221   7.196   6.665   7.121  0.5722  0.1917  0.0520
  884SOL    HW1 3222   7.147   6.743   7.147  0.5160  1.3958 -3.1684
  884SOL    HW2 3223   7.147   6.592   7.160 -0.9005  1.6097  1.0085
  885SOL     OW 3224   5.770   1.540   7.358  0.3299  0.5844  0.1745
  885SOL    HW1 3225   5.850   1.511   7.401 -0.5577 -1.5769  0.5188
  885SOL    HW2 3226   5.795   1.620   7.312  3.0601 -0.7498 -0.9080
  886SOL     OW 3227   3.359   0.016   0.749  0.3206 -0.6905  0.4809
  886SOL    HW1 3228   3.408   0.015   0.667  0.2061 -0.0608  0.3963
  886SOL    HW2 3229   3.267   0.019   0.721  0.3025  0.6135  0.6091
  887SOL     OW 3230   1.001   0.505   0.380 -0.1325  0.0140  0.1280
  887SOL    HW1 3231   0.979   0.598   0.386  1.0316  0.4828 -1.8423
  887SOL    HW2 3232   1.020   0.479   0.470 -1.7405  1.3201  0.8958
  888SOL     OW 3233   4.956   5.287   2.100  0.1355  0.5080 -0.1491
  888SOL    HW1 3234   4.979   5.256   2.188  1.2779 -0.0249 -0.6029
  888SOL    HW2 3235   4.867   5.320   2.108  0.7678  2.0117  1.6062
  889SOL     OW 3236   3.996   5.042   2.786 -0.0767  0.7811 -0.4754
  889SOL    HW1 3237   3.948   4.963   2.810 -0.9415  1.4818  0.1976
  889SOL    HW2 3238   3.933   5.095   2.737  0.8276  0.5998 -1.8770
  890SOL     OW 3239   7.305   1.080   6.067 -0.3418 -0.1883 -0.3096
  890SOL    HW1 3240   7.246   1.007   6.050 -1.2522  1.1429 -3.8351
  890SOL    HW2 3241   7.257   1.157   6.036  0.8032  1.9251  2.6718
  891SOL     OW 3242   5.715   4.089   1.370  0.4128  0.3840 -0.3345
  891SOL    HW1 3243   5.699   4.010   1.318  1.7014  0.4409 -0.8644
  891SOL    HW2 3244   5.628   4.122   1.392 -0.1479 -0.4810 -1.1925
  892SOL     OW 3245   2.479   3.294   2.076  0.2833  0.5346  1.2369
  892SOL    HW1 3246   2.385   3.303   2.087 -0.1411 -1.2482 -0.3420
  892SOL    HW2 3247   2.503   3.218   2.130  0.2960 -0.6323 -0.3216
  893SOL     OW 3248   6.225   1.721   7.441 -0.1363 -0.7851 -0.1383
  893SOL    HW1 3249   6.143   1.770   7.431  0.8061  1.0422  0.7678
  893SOL    HW2 3250   6.293   1.788   7.443  1.1302 -2.0333  2.0660
  894SOL     OW 3251   2.231   2.508   0.425  0.4899 -0.1753 -0.5515
  894SOL    HW1 3252   2.165   2.575   0.441 -0.6230 -1.3408 -0.0982
  894SOL    HW2 3253   2.247   2.512   0.330  0.3990  0.6811 -0.5339
  895SOL     OW 3254   0.693   6.271   0.325 -1.5196 -0.0850 -0.1530
  895SOL    HW1 3255   0.772   6.256   0.273 -1.3637 -0.3556  0.1588
  895SOL    HW2 3256   0.626   6.218   0.282 -1.0795 -1.3464  0.6747
  896SOL     OW 3257   2.548   6.309   6.745 -0.2032  0.2977  0.0971
  896SOL    HW1 3258   2.498   6.266   6.814  0.6606  0.6400  0.9603
  896SOL    HW2 3259   2.634   6.267   6.747 -0.2479  0.1069 -0.9843
  897SOL     OW 3260   5.404   3.542   6.733 -0.6070 -0.4914 -0.6859
  897SOL    HW1 3261   5.328   3.501   6.774 -0.5475  0.3016  0.2508
  897SOL    HW2 3262   5.471   3.473   6.732  0.0768 -0.0385  2.4772
  898SOL     OW 3263   3.558   3.159   2.827 -0.6001 -0.2641  0.4374
  898SOL    HW1 3264   3.501   3.098   2.780 -1.1225 -0.8412  1.7919
  898SOL    HW2 3265   3.642   3.114   2.834 -0.3278  0.0729 -0.4377
  899SOL     OW 3266   2.428   6.692   5.326 -0.8975 -0.3989 -0.8025
  899SOL    HW1 3267   2.393   6.772   5.285 -1.5420 -1.2030 -1.8781
  899SOL    HW2 3268   2.363   6.670   5.393  0.4149  1.2077  1.1115
  900SOL     OW 3269   3.411   3.010   0.699  0.2418  0.0483 -0.1370
  900SOL    HW1 3270   3.396   3.054   0.614  0.5478 -0.7410 -0.6076
  900SOL    HW2 3271   3.468   2.936   0.678  0.0393 -0.3581  0.7125
  901SOL     OW 3272   4.950   2.705   7.181  0.4973  0.0531 -0.1977
  901SOL    HW1 3273   5.032   2.745   7.209  0.3166  1.3193 -1.3664
  901SOL    HW2 3274   4.886   2.731   7.247  0.8409 -0.1464  0.2147
  902SOL     OW 3275   6.017   1.124   2.894 -0.1336  0.5466  0.0026
  902SOL    HW1 3276   5.959   1.160   2.961 -0.1942  0.4645 -0.0054
  902SOL    HW2 3277   6.084   1.191   2.882  0.6208  0.0219  1.0938
  903SOL     OW 3278   2.945   0.229   4.193 -0.5844  0.2232 -0.2928
  903SOL    HW1 3279   2.905   0.307   4.230 -0.0160 -0.0420  0.9771
  903SOL    HW2 3280   3.038   0.250   4.186 -0.4951 -0.1766 -0.3737
  904SOL     OW 3281   3.797   0.193   2.486  0.3581 -0.4579  0.0180
  904SOL    HW1 3282   3.817   0.199   2.392  2.0355  1.3478  0.4243
  904SOL    HW2 3283   3.789   0.099   2.502  0.6969 -0.8515 -1.8066
  905SOL     OW 3284   2.052   0.614   0.193 -0.0769 -0.0964  0.3593
  905SOL    HW1 3285   1.959   0.593   0.198 -0.4200  1.4818  0.8984
  905SOL    HW2 3286   2.087   0.585   0.278  0.8011 -4.3043 -1.1585
  906SOL     OW 3287   5.069   0.612   6.442  0.0397 -0.7252  0.0422
  906SOL    HW1 3288   5.078   0.553   6.518 -1.3575 -1.6655 -0.4826
  906SOL    HW2 3289   4.999   0.672   6.467  0.1302 -0.5274 -0.1859
  907SOL     OW 3290   4.264   0.526   3.469  0.4982  0.1765  0.0059
  907SOL    HW1 3291   4.223   0.602   3.428  0.7266 -0.7361 -2.0038
  907SOL    HW2 3292   4.358   0.543   3.461  0.5584  0.6244  1.4360
  908SOL     OW 3293   2.167   4.007   5.128  0.4779 -0.1898 -0.0761
  908SOL    HW1 3294   2.107   4.063   5.079  0.3158  0.4720  0.8642
  908SOL    HW2 3295   2.142   4.019   5.219  0.9299 -1.2318  0.1954
  909SOL     OW 3296   4.476   1.089   6.633  0.3868  0.3772  0.6325
  909SOL    HW1 3297   4.447   1.180   6.626  0.0643  0.2399  0.1264
  909SOL    HW2 3298   4.395   1.038   6.625  0.7940 -0.0304 -1.2285
  910SOL     OW 3299   1.578   3.543   0.742  0.3787 -0.0364 -0.3705
  910SOL    HW1 3300   1.496   3.590   0.732  0.6615  0.5174 -0.1167
  910SOL    HW2 3301   1.557   3.452   0.718 -0.3748  0.0358 -0.0078
  911SOL     OW 3302   1.005   3.935   2.561  0.5425 -0.4996  0.0660
  911SOL    HW1 3303   0.921   3.895   2.582  1.7861 -2.6031  1.4318
  911SOL    HW2 3304   1.023   3.908   2.471  0.9604 -2.4920  0.6776
  912SOL     OW 3305   5.699   0.218   0.644  0.0658  0.3029  0.5482
  912SOL    HW1 3306   5.621   0.169   0.669  0.7862 -2.1472 -1.5510
  912SOL    HW2 3307   5.770   0.175   0.690  0.7958 -1.2330 -1.8276
  913SOL     OW 3308   4.856   4.415   0.199 -0.1215  0.2270 -0.3043
  913SOL    HW1 3309   4.865   4.343   0.136  0.1882 -0.5832  0.6415
  913SOL    HW2 3310   4.939   4.414   0.248  0.2089  1.7316 -0.7781
  914SOL     OW 3311   6.637   2.762   2.662  0.3860  0.0463  0.1851
  914SOL    HW1 3312   6.706   2.763   2.729  0.4736 -0.3519  0.1059
  914SOL    HW2 3313   6.604   2.851   2.660  0.3386  0.0467  0.8140
  915SOL     OW 3314   3.690   5.893   4.555 -0.0041 -0.3099 -0.3409
  915SOL    HW1 3315   3.772   5.934   4.526 -0.6200 -0.0440 -1.7466
  915SOL    HW2 3316   3.621   5.943   4.511 -0.9731 -0.1676  1.2576
  916SOL     OW 3317   2.666   3.331   3.889  0.3308  0.2510  0.3395
  916SOL    HW1 3318   2.623   3.374   3.963  0.4800 -0.9567  1.1610
  916SOL    HW2 3319   2.701   3.249   3.925 -1.3347 -1.3752 -1.4820
  917SOL     OW 3320   7.283   0.835   3.542 -0.0731 -0.3636 -0.0522
  917SOL    HW1 3321   7.353   0.809   3.482 -0.5797 -0.0382 -0.8072
  917SOL    HW2 3322   7.236   0.903   3.494 -2.4976 -2.3404 -0.6608
  918SOL     OW 3323   0.422   1.496   0.131  0.2203  0.0095  0.6322
  918SOL    HW1 3324   0.332   1.486   0.162 -0.5724 -0.0292 -1.5437
  918SOL    HW2 3325   0.424   1.583   0.091  0.9499 -0.2742  0.0325
  919SOL     OW 3326   6.950   2.154   1.540  0.0441 -0.0618 -0.0277
  919SOL    HW1 3327   6.959   2.215   1.467  0.5073  0.4552  0.4449
  919SOL    HW2 3328   7.009   2.189   1.608 -1.0027 -0.0541  0.9143
  920SOL     OW 3329   6.230   3.346   3.099  0.2178 -0.1494  0.2843
  920SOL    HW1 3330   6.184   3.360   3.182  0.8296 -0.9504  0.7646
  920SOL    HW2 3331   6.230   3.433   3.058 -0.4407  0.1746  0.9334
  921SOL     OW 3332   6.549   2.874   4.938  0.1771  0.2204  0.1890
  921SOL    HW1 3333   6.512   2.790   4.910 -1.3495  1.1930 -0.9136
  921SOL    HW2 3334   6.625   2.851   4.991 -0.7267 -1.8658  0.6795
  922SOL     OW 3335   6.308   4.303   0.802  0.0178 -0.3367  0.1336
  922SOL    HW1 3336   6.285   4.211   0.813  0.2470 -0.4735 -0.4695
  922SOL    HW2 3337   6.288   4.344   0.886  0.2481 -1.0043  0.5139
  923SOL     OW 3338   6.156   5.572   4.759  0.1885  0.5601  0.0481
  923SOL    HW1 3339   6.147   5.484   4.796 -0.5044  0.7608  0.3596
  923SOL    HW2 3340   6.188   5.556   4.670 -1.0084 -0.0786 -0.2999
  924SOL     OW 3341   2.472   3.561   1.314  0.1320 -0.3755  0.0451
  924SOL    HW1 3342   2.487   3.655   1.306  0.5230 -0.3801  0.6546
  924SOL    HW2 3343   2.404   3.542   1.250 -0.5853  0.4787  0.5374
  925SOL     OW 3344   0.465   5.696   4.272  0.5211 -0.1747 -0.2655
  925SOL    HW1 3345   0.528   5.755   4.230  0.3858 -0.1293 -0.4040
  925SOL    HW2 3346   0.402   5.755   4.315  1.0420 -0.2198  0.5771
  926SOL     OW 3347   2.176   1.218   0.051  0.0518 -0.5658  0.6622
  926SOL    HW1 3348   2.096   1.167   0.041 -1.0010  0.9256  1.0718
  926SOL    HW2 3349   2.187   1.262  -0.034 -0.7979  0.8808  1.2606
  927SOL     OW 3350   0.734   6.145   2.253  0.1245  0.6033 -0.1247
  927SOL    HW1 3351   0.760   6.176   2.339 -0.6943  0.7297  0.0868
  927SOL    HW2 3352   0.751   6.219   2.194 -1.4784  1.3655  0.3165
  928SOL     OW 3353   2.746   0.730   2.590  0.0402  0.5027 -0.1773
  928SOL    HW1 3354   2.798   0.790   2.537  2.1122  1.1483  2.3574
  928SOL    HW2 3355   2.666   0.779   2.610 -0.7149  0.3038 -2.4230
  929SOL     OW 3356   2.627   6.551   4.744 -0.7130  0.5029  0.5342
  929SOL    HW1 3357   2.699   6.592   4.792 -0.8555  0.3662  0.8672
  929SOL    HW2 3358   2.642   6.575   4.653 -0.6996  1.1480  0.7053
  930SOL     OW 3359   0.479   4.837   2.338 -0.0330  0.6514  0.0865
  930SOL    HW1 3360   0.420   4.820   2.411 -1.2770 -0.2743 -1.0785
  930SOL    HW2 3361   0.426   4.886   2.275 -0.0070 -1.2025 -1.4871
  931SOL     OW 3362   2.483   0.143   0.959 -0.1025  0.2093  0.6301
  931SOL    HW1 3363   2.569   0.170   0.993  0.5475 -0.4872 -0.3775
  931SOL    HW2 3364   2.502   0.110   0.871 -1.3066 -0.6007  0.6540
  932SOL     OW 3365   5.550   2.700   6.053  0.3797  0.2238 -0.1835
  932SOL    HW1 3366   5.604   2.767   6.010  1.5784 -0.1189  0.7457
  932SOL    HW2 3367   5.465   2.743   6.065  1.0242  1.4751  0.1017
  933SOL     OW 3368   3.228   2.442   3.907  0.4333  0.3167 -0.3885
  933SOL    HW1 3369   3.241   2.537   3.913  0.7368  0.2582 -0.0642
  933SOL    HW2 3370   3.216   2.426   3.813  0.3889  0.6760 -0.4467
  934SOL     OW 3371   4.134   3.526   4.337  0.4937  0.2417  0.1618
  934SOL    HW1 3372   4.119   3.448   4.283 -1.3690 -0.9620  2.2373
  934SOL    HW2 3373   4.219   3.559   4.309  1.4131 -2.6154 -0.7087
  935SOL     OW 3374   1.291   4.525   0.011  0.2577 -0.0163 -0.4347
  935SOL    HW1 3375   1.256   4.527  -0.078  2.2386  0.0379 -1.2790
  935SOL    HW2 3376   1.238   4.460   0.057 -0.9815  0.1733 -1.5677
  936SOL     OW 3377   6.803   5.405   6.554  0.2645 -0.0472  0.0987
  936SOL    HW1 3378   6.750   5.333   6.521 -1.7668  1.0264  0.8301
  936SOL    HW2 3379   6.867   5.363   6.612  0.2249 -1.3901 -0.7891
  937SOL     OW 3380   4.304   7.404   2.214 -0.0982  0.3127 -0.5009
  937SOL    HW1 3381   4.389   7.436   2.183  0.1002  0.3942  0.1143
  937SOL    HW2 3382   4.326   7.347   2.288 -0.6670  1.6379  0.7365
  938SOL     OW 3383   7.215   7.437   4.015  0.4310 -0.3689  0.2060
  938SOL    HW1 3384   7.269   7.433   3.936 -1.9539 -0.0493 -1.5769
  938SOL    HW2 3385   7.129   7.463   3.983 -0.4162  0.7425  3.0795
  939SOL     OW 3386   5.728   2.467   2.808  0.5509 -0.5281  0.0454
  939SOL    HW1 3387   5.704   2.534   2.744  0.6174  0.5019  1.0614
  939SOL    HW2 3388   5.646   2.441   2.849  0.5944 -0.6642  0.0501
  940SOL     OW 3389   3.622   3.756   1.818 -0.5608  0.1401  0.1158
  940SOL    HW1 3390   3.538   3.740   1.774  0.6497 -0.6805 -2.0460
  940SOL    HW2 3391   3.633   3.680   1.876 -0.7590 -0.3920 -0.5260
  941SOL     OW 3392   6.233   1.221   3.762  0.0692  0.4744  0.6571
  941SOL    HW1 3393   6.294   1.153   3.732 -2.3056 -0.6985 -2.0189
  941SOL    HW2 3394   6.207   1.193   3.850  1.5258 -0.3149  0.8713
  942SOL     OW 3395   3.379   5.126   3.883 -0.3458  0.1390 -0.8401
  942SOL    HW1 3396   3.351   5.164   3.966 -1.3345  0.1844 -1.1855
  942SOL    HW2 3397   3.426   5.198   3.839 -0.0774  0.2019 -0.4595
  943SOL     OW 3398   5.202   3.101   5.335  0.4891 -0.1675  0.2925
  943SOL    HW1 3399   5.192   3.116   5.241  1.0152 -1.7285 -0.0529
  943SOL    HW2 3400   5.288   3.139   5.356 -0.2122  1.3983  0.4599
  944SOL     OW 3401   5.011   1.724   5.498 -0.3961  0.1261 -0.6166
  944SOL    HW1 3402   5.078   1.792   5.485 -0.8138  0.4630 -1.0025
  944SOL    HW2 3403   5.000   1.684   5.412 -2.2522  1.5250 -1.0882
  945SOL     OW 3404   7.064   4.743   1.560  0.1455 -0.2966  0.0937
  945SOL    HW1 3405   7.105   4.677   1.617  0.6914 -1.6576 -1.7784
  945SOL    HW2 3406   7.097   4.723   1.473 -1.3108  1.2006 -0.8543
  946SOL     OW 3407   1.237   1.929   4.223 -0.7084 -0.0492 -0.1065
  946SOL    HW1 3408   1.318   1.943   4.273 -0.8623 -1.6151  0.6464
  946SOL    HW2 3409   1.259   1.958   4.134  0.2894  0.6623  0.3413
  947SOL     OW 3410   1.728   1.627   3.960  0.2503  0.0623  0.3928
  947SOL    HW1 3411   1.682   1.655   4.039 -0.0152 -0.3518  0.3857
  947SOL    HW2 3412   1.735   1.707   3.907  2.1826  0.8322  1.6729
  948SOL     OW 3413   4.804   5.191   0.638  0.6246 -0.2335  0.0228
  948SOL    HW1 3414   4.875   5.164   0.695  1.5370  1.9202  0.0091
  948SOL    HW2 3415   4.846   5.218   0.556 -0.4890 -1.5060 -1.0251
  949SOL     OW 3416   4.141   6.504   6.271  0.0289  0.0672  0.2161
  949SOL    HW1 3417   4.230   6.470   6.277  0.3315  0.5509 -1.1463
  949SOL    HW2 3418   4.094   6.439   6.220 -0.1666  0.2344  0.1823
  950SOL     OW 3419   0.745   6.360   0.959 -0.2485  0.3413  0.2903
  950SOL    HW1 3420   0.766   6.274   0.922  0.3030  0.1771  0.9669
  950SOL    HW2 3421   0.831   6.398   0.980 -0.5446  0.3438  1.5699
  951SOL     OW 3422   2.240   5.465   2.020 -0.2491  0.3436  0.7604
  951SOL    HW1 3423   2.151   5.498   2.005 -0.4069  0.1610  1.2629
  951SOL    HW2 3424   2.281   5.530   2.076 -0.2326  0.1861  0.9333
  952SOL     OW 3425   6.725   1.236   6.631 -0.5276 -0.2615 -0.1871
  952SOL    HW1 3426   6.635   1.270   6.629 -1.8648 -3.3929 -0.4369
  952SOL    HW2 3427   6.723   1.162   6.569  1.2344 -2.5059  2.2316
  953SOL     OW 3428   1.173   6.748   5.279  0.2409  0.7435 -0.0725
  953SOL    HW1 3429   1.211   6.806   5.213 -0.1635  1.9471  0.7220
  953SOL    HW2 3430   1.245   6.689   5.303  0.1042 -0.4397 -2.3202
  954SOL     OW 3431   5.077   6.990   1.064 -0.6193  0.4292  0.1382
  954SOL    HW1 3432   5.086   7.073   1.018  0.5465 -0.2104 -0.8758
  954SOL    HW2 3433   5.074   7.013   1.157  4.2182  1.4875  0.2889
  955SOL     OW 3434   3.935   5.668   3.078  0.4715 -0.0101 -0.0712
  955SOL    HW1 3435   3.987   5.595   3.047 -0.2787 -0.3074 -0.6551
  955SOL    HW2 3436   3.918   5.649   3.170  0.6158 -0.3700 -0.1200
  956SOL     OW 3437   3.211   7.262   0.937  0.1432  0.3808 -0.5983
  956SOL    HW1 3438   3.120   7.241   0.914  0.1733  1.1110 -1.4340
  956SOL    HW2 3439   3.208   7.279   1.031 -0.1897 -1.6027 -0.2046
  957SOL     OW 3440   0.626   0.069   7.364  0.1499  0.5914  0.0157
  957SOL    HW1 3441   0.671   0.097   7.284  0.0575  0.3278 -0.1289
  957SOL    HW2 3442   0.584  -0.013   7.340  0.6700  0.1666  0.5297
  958SOL     OW 3443   1.509   4.699   6.827  0.6407  0.4956 -0.2035
  958SOL    HW1 3444   1.444   4.711   6.896  0.2651 -0.0503 -0.4512
  958SOL    HW2 3445   1.591   4.729   6.865  1.0333 -2.4979  1.5704
  959SOL     OW 3446   5.732   7.430   5.796  0.0894 -0.2948 -0.0208
  959SOL    HW1 3447   5.683   7.492   5.851  0.5628 -0.5914  0.7535
  959SOL    HW2 3448   5.786   7.485   5.740 -0.2914  0.0154 -0.0818
  960SOL     OW 3449   3.945   3.009   1.080 -0.2170 -0.1828 -0.4618
  960SOL    HW1 3450   3.854   3.029   1.101 -0.3566 -2.0174  0.8940
  960SOL    HW2 3451   3.943   2.983   0.988 -0.8635  0.8218 -0.7436
  961SOL     OW 3452   4.643   1.138   1.956 -0.5584 -0.2625  0.0174
  961SOL    HW1 3453   4.705   1.102   2.020  1.6977 -0.4950 -2.1427
  961SOL    HW2 3454   4.588   1.197   2.007  0.9780 -0.5937  2.2090
  962SOL     OW 3455   4.068   0.124   3.025  0.3103 -0.9673 -0.2861
  962SOL    HW1 3456   4.053   0.149   3.116  2.6573 -0.7710  0.1185
  962SOL    HW2 3457   4.008   0.178   2.975 -0.7675 -0.8127  1.1155
  963SOL     OW 3458   6.026   2.531   7.385  0.1582  0.0272  0.0276
  963SOL    HW1 3459   5.945   2.570   7.352  1.7542  2.7559 -0.9283
  963SOL    HW2 3460   6.038   2.570   7.471  1.6922  1.6504 -0.8712
  964SOL     OW 3461   5.737   4.162   6.570 -0.2516  0.1043 -0.4938
  964SOL    HW1 3462   5.788   4.213   6.507 -1.0092  2.1743  0.4731
  964SOL    HW2 3463   5.647   4.164   6.536 -0.6650  1.2305  0.5831
  965SOL     OW 3464   1.818   0.201   5.592  0.3587  0.3270 -0.5644
  965SOL    HW1 3465   1.843   0.129   5.650  1.1452  0.7247 -0.3934
  965SOL    HW2 3466   1.737   0.236   5.630  0.5286  0.1867 -0.0709
  966SOL     OW 3467   7.087   1.598   4.637  0.0245 -0.1257  0.1279
  966SOL    HW1 3468   7.164   1.542   4.648 -0.6201 -0.6284  3.0195
  966SOL    HW2 3469   7.039   1.590   4.720 -0.7807  3.7194  0.2593
  967SOL     OW 3470   5.009   7.098   5.903 -0.0346  0.3825 -0.2369
  967SOL    HW1 3471   4.946   7.045   5.952 -1.6533 -0.2830 -2.8481
  967SOL    HW2 3472   5.094   7.071   5.938 -1.0011 -1.2394  1.0532
  968SOL     OW 3473   6.122   0.605   5.434 -0.1978  0.5707  0.3708
  968SOL    HW1 3474   6.109   0.517   5.399 -0.8966  0.6924  0.3118
  968SOL    HW2 3475   6.191   0.594   5.500  0.7491  0.2481 -0.6490
  969SOL     OW 3476   4.985   6.416   4.268 -0.2700 -0.2758  0.2479
  969SOL    HW1 3477   4.985   6.361   4.190 -2.6296 -0.4427  0.2925
  969SOL    HW2 3478   4.968   6.504   4.236 -0.4653 -0.2261  0.4830
  970SOL     OW 3479   6.006   1.624   4.206 -0.1706 -0.8661 -0.2061
  970SOL    HW1 3480   5.973   1.689   4.269  1.5769  0.9341 -1.0392
  970SOL    HW2 3481   6.041   1.677   4.134  2.9900 -2.6448 -0.1137
  971SOL     OW 3482   3.800   6.924   0.923 -0.4815 -0.1243  0.0065
  971SOL    HW1 3483   3.709   6.901   0.908 -0.2983  0.2223 -1.9975
  971SOL    HW2 3484   3.842   6.843   0.952 -0.6235 -1.5191 -3.1776
  972SOL     OW 3485   3.761   6.574   5.532 -0.0753  0.3053 -0.0889
  972SOL    HW1 3486   3.813   6.494   5.523  0.9861  0.9773 -0.1267
  972SOL    HW2 3487   3.802   6.636   5.472 -1.0273  0.8127 -0.2298
  973SOL     OW 3488   6.223   7.059   3.081 -0.4120 -0.3722  0.0903
  973SOL    HW1 3489   6.313   7.028   3.067 -0.2916  0.6860 -1.6819
  973SOL    HW2 3490   6.221   7.084   3.174  1.2493 -0.0621  0.0755
  974SOL     OW 3491   6.320   4.922   7.408 -0.6082 -0.2235  0.0713
  974SOL    HW1 3492   6.252   4.952   7.347 -0.7456  1.2957  0.9175
  974SOL    HW2 3493   6.359   4.846   7.365 -1.4027  0.1698 -1.4177
  975SOL     OW 3494   1.690   1.479   6.357  0.5268 -0.0454 -0.3694
  975SOL    HW1 3495   1.749   1.460   6.284  0.2756  0.2237 -0.6432
  975SOL    HW2 3496   1.747   1.510   6.427  0.6112  1.3667 -1.0218
  976SOL     OW 3497   2.833   3.415   4.490 -0.0025 -0.0721  0.0075
  976SOL    HW1 3498   2.845   3.492   4.434  2.0182  0.3647  0.9430
  976SOL    HW2 3499   2.898   3.353   4.458 -2.0297 -1.7059 -1.1436
  977SOL     OW 3500   6.093   1.251   2.284  0.5811 -0.0912  0.2832
  977SOL    HW1 3501   6.095   1.258   2.188 -0.7821 -1.0325  0.1467
  977SOL    HW2 3502   6.080   1.340   2.315  2.3828  0.4189 -0.3200
  978SOL     OW 3503   6.336   6.868   1.957 -0.1780 -0.5123 -0.0216
  978SOL    HW1 3504   6.342   6.878   2.052 -0.9150 -0.5635  0.0375
  978SOL    HW2 3505   6.425   6.846   1.929  0.2721  0.5272  0.5323
  979SOL     OW 3506   3.715   5.650   4.678  0.2848 -0.2419  0.0242
  979SOL    HW1 3507   3.691   5.735   4.641  1.4516 -0.6626 -1.8228
  979SOL    HW2 3508   3.802   5.663   4.715  1.1407 -0.9677 -1.6490
  980SOL     OW 3509   1.923   4.800   3.209 -0.5115 -0.4300  0.1959
  980SOL    HW1 3510   1.852   4.793   3.145  0.5775 -1.7565 -0.9297
  980SOL    HW2 3511   1.922   4.716   3.255  1.3758 -1.1646 -1.0193
  981SOL     OW 3512   6.438   3.810   2.711  0.2306 -0.1222 -0.1347
  981SOL    HW1 3513   6.352   3.823   2.671 -0.1553  0.2613  0.8035
  981SOL    HW2 3514   6.500   3.832   2.641 -0.4273  0.1697 -0.6410
  982SOL     OW 3515   4.711   6.639   6.275 -0.3000 -0.9264  0.1542
  982SOL    HW1 3516   4.771   6.589   6.330  0.1064  0.6532  1.2520
  982SOL    HW2 3517   4.724   6.605   6.187  1.3368 -1.4532  0.5625
  983SOL     OW 3518   3.112   7.281   3.766 -0.4726 -0.2426  0.2720
  983SOL    HW1 3519   3.050   7.312   3.701 -0.1747 -1.1372 -0.4694
  983SOL    HW2 3520   3.193   7.265   3.716 -0.1488 -0.6556  0.9097
  984SOL     OW 3521   7.409   2.697   5.442 -0.1130  0.1515 -0.0834
  984SOL    HW1 3522   7.390   2.727   5.531 -2.4884  2.1652 -1.1402
  984SOL    HW2 3523   7.434   2.777   5.395  1.3463 -0.9135 -1.2185
  985SOL     OW 3524   1.926   5.592   1.487 -0.1239  0.3650  0.0788
  985SOL    HW1 3525   1.931   5.496   1.481 -1.3525  0.0494  2.7334
  985SOL    HW2 3526   2.016   5.621   1.474  0.7063 -1.3725  1.5513
  986SOL     OW 3527   0.706   7.100   2.486 -0.0508 -0.5011 -0.5715
  986SOL    HW1 3528   0.786   7.122   2.534  0.2057  0.8115 -1.5408
  986SOL    HW2 3529   0.656   7.044   2.546 -0.7289  2.7049  2.1698
  987SOL     OW 3530   2.589   3.048   2.182  0.1061 -0.1687 -0.2169
  987SOL    HW1 3531   2.676   3.089   2.184 -0.0927  0.2541  1.4854
  987SOL    HW2 3532   2.595   2.977   2.245 -0.8676  0.0792  0.1750
  988SOL     OW 3533   3.509   5.690   5.129  0.3222 -0.9016 -0.2511
  988SOL    HW1 3534   3.565   5.624   5.169 -0.0648 -2.2680 -1.8828
  988SOL    HW2 3535   3.442   5.641   5.082 -1.3779  0.6834  0.3917
  989SOL     OW 3536   7.087   4.695   4.654  1.0247 -0.0805  0.6650
  989SOL    HW1 3537   7.081   4.781   4.694 -0.4524  0.3619 -0.4157
  989SOL    HW2 3538   7.157   4.703   4.589  0.9509  0.2726  0.6298
  990SOL     OW 3539   3.639   4.702   3.348  0.1099  0.3035 -0.1674
  990SOL    HW1 3540   3.585   4.779   3.366 -0.8208 -0.6935  1.5546
  990SOL    HW2 3541   3.578   4.638   3.313  0.0798 -0.8521  1.8344
  991SOL     OW 3542   1.798   6.236   3.509 -0.1218 -0.2452 -0.0398
  991SOL    HW1 3543   1.826   6.325   3.530 -2.3864  0.8107 -1.1119
  991SOL    HW2 3544   1.851   6.212   3.433  1.2620 -0.2790  0.9037
  992SOL     OW 3545   1.403   2.994   0.505 -0.1635  0.1834  0.0864
  992SOL    HW1 3546   1.382   2.909   0.465  0.2984 -0.2538  0.7500
  992SOL    HW2 3547   1.469   3.032   0.448  0.7343 -0.5824  0.5852
  993SOL     OW 3548   2.012   1.295   2.430  0.4951  0.5654 -0.1384
  993SOL    HW1 3549   2.078   1.226   2.441 -0.1850  0.0148  0.6511
  993SOL    HW2 3550   2.061   1.371   2.400  1.4040 -0.0011 -0.1244
  994SOL     OW 3551   6.108   6.763   2.228 -0.7895 -0.0723 -0.1387
  994SOL    HW1 3552   6.072   6.833   2.173 -1.1448  0.4729  0.7672
  994SOL    HW2 3553   6.092   6.792   2.318  0.9831 -0.3121  0.2918
  995SOL     OW 3554   5.572   2.882   6.988  0.4226  0.5349 -0.4475
  995SOL    HW1 3555   5.482   2.886   6.957  0.3440  1.0491 -0.1528
  995SOL    HW2 3556   5.620   2.840   6.916  0.0670  0.8343 -0.8621
  996SOL     OW 3557   2.995   3.272   6.400 -0.4025  0.5300  0.0503
  996SOL    HW1 3558   3.047   3.288   6.479 -0.8651 -0.1801  0.5107
  996SOL    HW2 3559   3.041   3.319   6.331 -0.1619  1.4327  0.8011
  997SOL     OW 3560   3.834   1.668   6.773 -0.0180  0.3095  0.1955
  997SOL    HW1 3561   3.894   1.634   6.839 -0.5622  0.2029  0.6438
  997SOL    HW2 3562   3.888   1.726   6.718  0.8708 -1.0588 -0.4347
  998SOL     OW 3563   2.227   2.402   4.495 -0.0238 -0.9210  0.6660
  998SOL    HW1 3564   2.293   2.442   4.552 -1.3906  1.9918  0.3863
  998SOL    HW2 3565   2.184   2.337   4.551  0.0236  0.4106  2.3534
  999SOL     OW 3566   5.352   4.024   5.139 -0.3476 -0.1872 -0.2570
  999SOL    HW1 3567   5.393   4.110   5.151 -2.6950  1.0074 -0.2800
  999SOL    HW2 3568   5.334   4.020   5.045 -0.2569 -0.7056 -0.2519
 1000SOL     OW 3569   6.439   5.399   1.613 -0.0826  0.1742  0.2704
 1000SOL    HW1 3570   6.466   5.309   1.634 -0.8599 -0.9738 -3.0267
 1000SOL    HW2 3571   6.346   5.402   1.636 -0.0138  0.2280  0.5536
 1001SOL     OW 3572   0.720   3.794   5.150  0.2229 -0.8565  0.1263
 1001SOL    HW1 3573   0.752   3.839   5.228 -0.5352 -2.1480  1.2147
 1001SOL    HW2 3574   0.644   3.846   5.122  0.3049 -0.5626  0.4415
 1002SOL     OW 3575   5.845   3.064   7.232 -0.4563  0.8059 -0.6487
 1002SOL    HW1 3576   5.928   3.039   7.191 -0.6584 -1.3426  0.1427
 1002SOL    HW2 3577   5.862   3.151   7.268  2.3189 -0.4880  1.6146
 1003SOL     OW 3578   4.977   1.866   0.218 -0.0188  0.0895 -0.2168
 1003SOL    HW1 3579   5.060   1.829   0.248  0.0946 -0.5942 -1.3280
 1003SOL    HW2 3580   4.996   1.959   0.202  0.4436  0.0110 -0.1360
 1004SOL     OW 3581   6.748   0.153   2.913  0.2972 -0.3614 -0.1741
 1004SOL    HW1 3582   6.750   0.234   2.964  1.8532  0.8114 -1.9492
 1004SOL    HW2 3583   6.817   0.165   2.847 -0.8583 -2.2496 -1.8291
 1005SOL     OW 3584   2.383   2.883   2.047 -0.3252 -0.2745  0.5287
 1005SOL    HW1 3585   2.439   2.954   2.078 -2.0431  0.9471  0.9811
 1005SOL    HW2 3586   2.387   2.818   2.117 -0.9933  0.6737  1.4681
 1006SOL     OW 3587   2.898   3.121   6.618  0.1448 -0.3891 -0.0298
 1006SOL    HW1 3588   2.900   3.161   6.531 -0.3066 -0.8702 -0.2658
 1006SOL    HW2 3589   2.986   3.086   6.630  0.6334  0.9255  0.3036
 1007SOL     OW 3590   7.437   3.059   7.394 -0.3862  0.2606 -0.4533
 1007SOL    HW1 3591   7.378   3.064   7.319 -0.3676  0.5673 -0.4494
 1007SOL    HW2 3592   7.451   3.150   7.419 -1.0680  0.1258  0.4635
 1008SOL     OW 3593   2.471   3.554   6.041 -0.1330 -0.2263 -0.4649
 1008SOL    HW1 3594   2.494   3.462   6.052  0.4629  0.2281  3.5339
 1008SOL    HW2 3595   2.531   3.586   5.973  0.3447 -2.5056 -1.1953
 1009SOL     OW 3596   3.041   5.715   4.844 -0.2436 -0.8448 -0.0629
 1009SOL    HW1 3597   2.957   5.729   4.889 -0.2562 -0.4014 -0.2127
 1009SOL    HW2 3598   3.034   5.768   4.765  1.1762  1.3523  1.1732
 1010SOL     OW 3599   5.744   0.897   1.566 -1.1205 -0.5100  0.0696
 1010SOL    HW1 3600   5.777   0.839   1.496  0.7690  0.9233 -0.3208
 1010SOL    HW2 3601   5.660   0.927   1.533 -1.0697 -1.2257 -0.7846
 1011SOL     OW 3602   3.501   2.784   0.565  0.1019  0.2794 -0.6584
 1011SOL    HW1 3603   3.448   2.755   0.491  1.3900 -1.5481 -0.9100
 1011SOL    HW2 3604   3.480   2.723   0.636  1.8784 -0.5605 -0.7918
 1012SOL     OW 3605   5.784   6.942   0.959  0.5543  0.8716  0.4617
 1012SOL    HW1 3606   5.774   6.951   0.864 -0.6694 -0.3376  0.4438
 1012SOL    HW2 3607   5.700   6.907   0.989  1.6921 -0.9958  1.6708
 1013SOL     OW 3608   0.584   4.189   2.922  0.5760 -0.0443 -0.5515
 1013SOL    HW1 3609   0.635   4.208   3.000  2.7277 -0.2460 -1.8202
 1013SOL    HW2 3610   0.552   4.100   2.935  0.2684  0.2010  0.4161
 1014SOL     OW 3611   5.546   5.770   3.141 -0.2582 -0.0234  0.5880
 1014SOL    HW1 3612   5.510   5.841   3.195  0.2498  0.2785  0.5375
 1014SOL    HW2 3613   5.640   5.773   3.157 -0.0833  0.1446 -0.4015
 1015SOL     OW 3614   3.167   1.726   6.408  0.0380  0.3013  0.0169
 1015SOL    HW1 3615   3.101   1.717   6.477 -0.3253  1.4085 -0.1753
 1015SOL    HW2 3616   3.214   1.643   6.410 -0.3008  0.1159  1.2572
 1016SOL     OW 3617   0.985   6.250   7.020 -0.1784  0.1572 -0.1285
 1016SOL    HW1 3618   1.062   6.279   7.069 -0.5769 -0.1841  0.7361
 1016SOL    HW2 3619   0.914   6.303   7.055 -0.7973 -1.3138  0.9892
 1017SOL     OW 3620   7.093   3.100   2.994 -0.6531 -0.0475  0.6573
 1017SOL    HW1 3621   7.082   3.078   2.902  1.1232  1.2818  0.0634
 1017SOL    HW2 3622   7.026   3.167   3.012 -1.5470 -0.9030  0.5985
 1018SOL     OW 3623   6.037   6.650   3.075 -0.3946 -0.4540 -0.1638
 1018SOL    HW1 3624   6.100   6.701   3.025 -1.3388  0.3398 -0.5918
 1018SOL    HW2 3625   6.089   6.584   3.121  0.6461 -0.2712 -1.0587
 1019SOL     OW 3626   6.231   0.983   0.993  0.4197 -0.1409 -0.5456
 1019SOL    HW1 3627   6.256   0.906   0.943 -1.5333  0.5187 -2.6652
 1019SOL    HW2 3628   6.148   1.012   0.955  0.6860  2.5626  0.6612
 1020SOL     OW 3629   0.792   4.158   5.787 -0.1243 -0.5384  0.0831
 1020SOL    HW1 3630   0.848   4.114   5.852 -0.1183  0.0465  0.4843
 1020SOL    HW2 3631   0.792   4.250   5.814  0.0955 -0.2370 -0.9119
 1021SOL     OW 3632   3.500   2.797   0.096  0.0175  0.0965  0.1468
 1021SOL    HW1 3633   3.500   2.735   0.023  0.1512 -0.9904  1.0284
 1021SOL    HW2 3634   3.584   2.842   0.090  0.4344 -0.6608  0.1618
 1022SOL     OW 3635   1.820   6.051   6.985 -0.3932 -0.8990 -0.3375
 1022SOL    HW1 3636   1.760   6.003   7.043  1.7382 -2.8194  0.4174
 1022SOL    HW2 3637   1.816   6.004   6.902 -0.7438 -0.3420 -0.6441
 1023SOL     OW 3638   4.453   5.124   1.771  0.3830  0.3011 -0.4935
 1023SOL    HW1 3639   4.397   5.166   1.706  0.3493 -2.5712 -2.5298
 1023SOL    HW2 3640   4.518   5.076   1.719  1.0906 -1.1907  1.6229
 1024SOL     OW 3641   3.453   2.745   4.126 -0.2755 -0.5745 -0.3870
 1024SOL    HW1 3642   3.542   2.714   4.142 -0.0887  0.3080  0.3704
 1024SOL    HW2 3643   3.428   2.703   4.044  0.4551 -1.6365 -0.0905
 1025SOL     OW 3644   3.866   7.320   3.615  0.8161  0.1579  0.1228
 1025SOL    HW1 3645   3.811   7.343   3.540  0.7845 -0.4095 -0.0253
 1025SOL    HW2 3646   3.824   7.243   3.654 -0.0818  1.3645  1.6812
 1026SOL     OW 3647   0.562   3.302   6.901 -0.0474  0.3779  0.0286
 1026SOL    HW1 3648   0.551   3.207   6.911 -2.4424  0.4486 -1.1116
 1026SOL    HW2 3649   0.474   3.337   6.916  0.4897  2.2776 -1.0070
 1027SOL     OW 3650   1.142   0.541   3.708 -0.1013 -0.0598 -0.4314
 1027SOL    HW1 3651   1.066   0.482   3.710  0.3763 -0.6693  0.6786
 1027SOL    HW2 3652   1.211   0.490   3.666  0.3717 -0.3996  0.7111
 1028SOL     OW 3653   0.082   3.824   5.878 -0.3822 -0.1076 -0.3769
 1028SOL    HW1 3654   0.117   3.889   5.818 -0.3105  0.8785  0.7108
 1028SOL    HW2 3655   0.118   3.741   5.846 -2.1720  0.0161 -3.0880
 1029SOL     OW 3656   5.284   4.148   6.670 -0.2931 -1.0747  0.0737
 1029SOL    HW1 3657   5.330   4.066   6.691 -0.5795 -1.1267  0.5010
 1029SOL    HW2 3658   5.329   4.181   6.593  1.4129 -0.3792  1.3146
 1030SOL     OW 3659   3.500   4.183   2.583 -0.0042  0.0022  0.7065
 1030SOL    HW1 3660   3.574   4.133   2.550  0.1726  1.7233 -1.7941
 1030SOL    HW2 3661   3.424   4.150   2.535 -0.1167  1.0644  0.1129
 1031SOL     OW 3662   2.969   6.102   5.321  0.7920  0.4106  0.1977
 1031SOL    HW1 3663   2.990   6.193   5.303 -0.0903  0.3739 -1.1543
 1031SOL    HW2 3664   2.884   6.087   5.278  0.4443 -0.7804  1.2170
 1032SOL     OW 3665   6.333   1.997   6.632  0.5715  0.1851 -0.1200
 1032SOL    HW1 3666   6.303   1.908   6.653  0.6587 -0.0093 -0.7727
 1032SOL    HW2 3667   6.397   2.018   6.699  2.2574 -1.1478 -1.2237
 1033SOL     OW 3668   6.031   5.154   3.112 -0.1106 -0.7008  0.2050
 1033SOL    HW1 3669   6.020   5.211   3.036  0.3241  0.2177  0.8221
 1033SOL    HW2 3670   5.944   5.149   3.152  0.0255  0.2013  0.6193
 1034SOL     OW 3671   0.773   4.450   5.892  0.1556 -0.4159  0.3605
 1034SOL    HW1 3672   0.758   4.514   5.823  2.0335 -0.8841 -0.5747
 1034SOL    HW2 3673   0.782   4.501   5.972  2.2781  0.6494 -0.4674
 1035SOL     OW 3674   6.596   2.561   4.400  0.0158 -0.0790  0.3358
 1035SOL    HW1 3675   6.591   2.516   4.316 -1.6397 -0.1234  0.4231
 1035SOL    HW2 3676   6.662   2.513   4.450 -0.3125 -1.1933 -0.2761
 1036SOL     OW 3677   0.894   1.297   3.251 -0.1470  0.6622  0.4067
 1036SOL    HW1 3678   0.942   1.220   3.283  1.1650  0.9921 -0.6546
 1036SOL    HW2 3679   0.925   1.309   3.161  1.3554  3.6593  1.1633
 1037SOL     OW 3680   0.198   4.062   2.630  0.1496 -0.1835  0.1153
 1037SOL    HW1 3681   0.182   4.143   2.679 -0.3659  0.2169 -0.6960
 1037SOL    HW2 3682   0.155   4.076   2.546  1.2467 -0.7560 -0.5614
 1038SOL     OW 3683   1.833   4.707   4.268  0.0943  0.4900 -0.1856
 1038SOL    HW1 3684   1.745   4.717   4.305  0.1958 -1.4301  0.6948
 1038SOL    HW2 3685   1.821   4.652   4.191  0.1201  3.1040 -2.1938
 1039SOL     OW 3686   0.057   6.444   0.754  0.0342 -0.2878  0.2411
 1039SOL    HW1 3687  -0.023   6.495   0.760 -3.2770 -4.0283 -4.3726
 1039SOL    HW2 3688   0.117   6.501   0.705 -1.8549  0.7969 -0.9504
 1040SOL     OW 3689   3.256   3.160   5.348 -0.4153  0.6153 -0.3317
 1040SOL    HW1 3690   3.342   3.189   5.379 -1.0898  1.9547  0.3691
 1040SOL    HW2 3691   3.276   3.087   5.288  1.1298  0.1693  0.6441
 1041SOL     OW 3692   7.432   3.298   6.607  0.3583 -0.0909  0.4228
 1041SOL    HW1 3693   7.519   3.335   6.596  0.2713  0.2097  0.7215
 1041SOL    HW2 3694   7.444   3.226   6.670  0.2112  0.6635  1.3367
 1042SOL     OW 3695   4.184   1.721   4.231  0.0571  0.2354  0.1613
 1042SOL    HW1 3696   4.226   1.645   4.191  0.5455  0.9246 -0.7019
 1042SOL    HW2 3697   4.153   1.772   4.156  0.5339  1.3163  0.6718
 1043SOL     OW 3698   3.276   2.130   0.591 -0.5589  0.1283  0.1438
 1043SOL    HW1 3699   3.241   2.212   0.624 -3.3759 -0.3915 -1.2651
 1043SOL    HW2 3700   3.200   2.073   0.582  0.9202 -1.7563 -1.4099
 1044SOL     OW 3701   5.774   1.348   3.604  0.4665 -0.0297 -0.5997
 1044SOL    HW1 3702   5.815   1.418   3.655 -0.9052  0.3109  0.0665
 1044SOL    HW2 3703   5.769   1.274   3.664 -3.0616  0.9851  0.6256
 1045SOL     OW 3704   7.439   6.818   5.157 -0.0281  0.2499  0.3314
 1045SOL    HW1 3705   7.391   6.746   5.198  1.7547 -0.5182  1.2388
 1045SOL    HW2 3706   7.421   6.809   5.064 -1.4886 -0.0814  0.6185
 1046SOL     OW 3707   7.176   1.833   0.524 -0.2595  0.1937  0.0310
 1046SOL    HW1 3708   7.176   1.737   0.525 -0.1002  0.1885  1.0152
 1046SOL    HW2 3709   7.245   1.856   0.462 -1.4724 -0.2946 -1.5778
 1047SOL     OW 3710   3.169   2.542   1.637 -0.2081  0.2683  0.2263
 1047SOL    HW1 3711   3.174   2.632   1.666 -1.3722  0.3573  0.2262
 1047SOL    HW2 3712   3.235   2.535   1.567  0.5569  0.8373  0.8814
 1048SOL     OW 3713   3.685   6.628   0.495 -0.9699 -0.2772 -0.6051
 1048SOL    HW1 3714   3.746   6.557   0.478  1.1440  1.0303  1.0564
 1048SOL    HW2 3715   3.607   6.584   0.530 -0.6332 -1.8996 -1.7747
 1049SOL     OW 3716   5.666   0.983   6.602  0.4196 -0.2838  0.1242
 1049SOL    HW1 3717   5.736   0.938   6.650  0.5431 -0.3632 -0.1309
 1049SOL    HW2 3718   5.707   1.062   6.567 -0.2541  1.0601  2.1812
 1050SOL     OW 3719   1.892   4.466   7.102 -0.2839 -0.0623 -0.2131
 1050SOL    HW1 3720   1.971   4.456   7.154  1.0220 -2.6469 -2.4704
 1050SOL    HW2 3721   1.908   4.544   7.049 -0.8361  1.4649  1.7241
 1051SOL     OW 3722   1.887   0.710   4.963 -0.2029  0.1129 -0.2606
 1051SOL    HW1 3723   1.948   0.780   4.943 -0.2116  0.1021 -0.3252
 1051SOL    HW2 3724   1.803   0.754   4.976 -0.2835  0.0778 -0.6612
 1052SOL     OW 3725   5.615   4.831   1.431 -0.0705 -0.0040 -0.3779
 1052SOL    HW1 3726   5.615   4.862   1.521  1.3336  0.9346 -0.6642
 1052SOL    HW2 3727   5.531   4.861   1.395  0.0008  0.9442  0.2044
 1053SOL     OW 3728   0.396   3.523   5.060 -0.7568  0.0539  0.0160
 1053SOL    HW1 3729   0.330   3.454   5.068 -0.8725  0.0640 -0.7341
 1053SOL    HW2 3730   0.479   3.476   5.050 -1.0365 -0.0656 -2.3758
 1054SOL     OW 3731   4.773   0.755   4.488  0.1116  0.0270  0.2966
 1054SOL    HW1 3732   4.682   0.785   4.478  0.2893  0.7131  0.6276
 1054SOL    HW2 3733   4.771   0.662   4.467 -0.5326  0.2012 -0.4481
 1055SOL     OW 3734   0.687   1.490   3.556  0.4191  0.0266 -0.0748
 1055SOL    HW1 3735   0.723   1.579   3.562  1.2120 -0.3867  2.4675
 1055SOL    HW2 3736   0.701   1.452   3.643 -0.6410 -2.3296 -0.8394
 1056SOL     OW 3737   2.119   5.634   0.267 -0.1893  0.1331  0.8228
 1056SOL    HW1 3738   2.093   5.557   0.216  0.6919  0.4739 -0.1881
 1056SOL    HW2 3739   2.064   5.631   0.345 -2.3249  0.1530 -0.5986
 1057SOL     OW 3740   4.012   3.233   1.999 -0.7092  0.3668 -0.4230
 1057SOL    HW1 3741   4.091   3.243   1.944 -1.4410  1.0379 -1.3988
 1057SOL    HW2 3742   4.012   3.141   2.025  0.0721  0.2111 -0.9329
 1058SOL     OW 3743   2.806   3.373   2.514  0.3476 -0.0077 -0.6408
 1058SOL    HW1 3744   2.850   3.289   2.502  0.9267  0.0726  0.7698
 1058SOL    HW2 3745   2.790   3.379   2.608 -0.6147  1.0106 -0.8437
 1059SOL     OW 3746   4.061   5.168   2.336  0.0868 -0.3681  0.2319
 1059SOL    HW1 3747   3.976   5.209   2.354 -0.0683 -0.4630 -0.2743
 1059SOL    HW2 3748   4.047   5.116   2.257  0.3794 -1.1188  0.6680
 1060SOL     OW 3749   5.371   4.520   7.426  1.1031 -0.1427 -0.1077
 1060SOL    HW1 3750   5.346   4.455   7.360  1.1971 -0.3462  0.0571
 1060SOL    HW2 3751   5.455   4.488   7.460  2.4348  1.3401 -1.7753
 1061SOL     OW 3752   5.487   0.912   7.191 -0.0720  0.4732 -0.1333
 1061SOL    HW1 3753   5.392   0.923   7.201  0.1433  1.4241  1.2664
 1061SOL    HW2 3754   5.497   0.832   7.140 -1.6174  0.1873 -0.0434
 1062SOL     OW 3755   6.683   2.719   5.854  0.2857  0.6806  0.1344
 1062SOL    HW1 3756   6.683   2.815   5.850  1.4318  0.6994  0.2111
 1062SOL    HW2 3757   6.721   2.692   5.770  0.5675  0.3220  0.3743
 1063SOL     OW 3758   0.652   7.422   2.517 -0.1178 -0.0674 -0.4116
 1063SOL    HW1 3759   0.582   7.359   2.502 -0.0597 -0.2300 -0.0036
 1063SOL    HW2 3760   0.705   7.418   2.437 -0.9272  0.5268 -0.9914
 1064SOL     OW 3761   2.607   7.050   0.272  0.0114 -0.1073 -0.7328
 1064SOL    HW1 3762   2.639   6.968   0.234  0.4149 -0.7810  0.9863
 1064SOL    HW2 3763   2.513   7.037   0.282 -0.3402  0.5925 -2.6621
 1065SOL     OW 3764   0.304   3.516   1.779  0.4480 -0.1509  0.0152
 1065SOL    HW1 3765   0.267   3.443   1.829 -0.1153  0.0258 -0.1328
 1065SOL    HW2 3766   0.337   3.576   1.845 -0.8639  0.3828  0.2153
 1066SOL     OW 3767   4.295   6.834   6.599 -0.0219 -0.3148 -0.2202
 1066SOL    HW1 3768   4.366   6.895   6.615  0.8686 -1.4207  0.1443
 1066SOL    HW2 3769   4.336   6.760   6.555 -1.1774 -0.4417 -1.1330
 1067SOL     OW 3770   3.112   4.385   0.349  0.1931  0.2320  0.0327
 1067SOL    HW1 3771   3.104   4.304   0.298 -0.2796  0.2853  0.0175
 1067SOL    HW2 3772   3.167   4.362   0.424 -0.6820 -0.3294  0.5051
 1068SOL     OW 3773   5.381   4.631   2.847 -0.1577  0.3191  0.0871
 1068SOL    HW1 3774   5.419   4.690   2.782 -0.2415  0.1872 -0.0827
 1068SOL    HW2 3775   5.349   4.689   2.916  0.6944  0.4074  0.4151
 1069SOL     OW 3776   0.960   6.557   4.663 -0.3664 -0.0247 -0.5085
 1069SOL    HW1 3777   0.900   6.482   4.668  1.0870 -1.1818  0.5786
 1069SOL    HW2 3778   1.024   6.532   4.596  0.6909 -0.2350  0.5428
 1070SOL     OW 3779   3.728   5.531   5.211 -0.3395 -0.0339  0.2598
 1070SOL    HW1 3780   3.743   5.558   5.301 -1.7781  1.2355  0.1665
 1070SOL    HW2 3781   3.720   5.436   5.214 -1.0918  0.0536  1.6034
 1071SOL     OW 3782   4.766   7.280   1.076 -0.2996 -0.3899  0.1834
 1071SOL    HW1 3783   4.783   7.375   1.075 -0.1725 -0.4127 -0.1354
 1071SOL    HW2 3784   4.765   7.256   0.983 -2.5574 -0.3114  0.1386
 1072SOL     OW 3785   6.615   7.388   5.205 -0.1437 -0.4849 -0.1045
 1072SOL    HW1 3786   6.656   7.453   5.262 -1.5437  0.0806  0.3041
 1072SOL    HW2 3787   6.522   7.393   5.226 -0.5433 -1.1360 -1.5803
 1073SOL     OW 3788   1.128   7.202   3.284 -0.0977  0.6422  0.1481
 1073SOL    HW1 3789   1.075   7.156   3.348 -0.2763  0.0499 -0.4103
 1073SOL    HW2 3790   1.064   7.249   3.230 -0.1693 -0.8339 -1.1259
 1074SOL     OW 3791   1.269   0.549   1.071  0.5057 -0.1780 -0.2997
 1074SOL    HW1 3792   1.237   0.582   0.987  2.8180  2.4328 -0.3191
 1074SOL    HW2 3793   1.350   0.599   1.087 -0.2575  0.1240  3.8702
 1075SOL     OW 3794   4.881   4.080   5.591 -0.1466  0.4938 -0.1768
 1075SOL    HW1 3795   4.950   4.123   5.642  0.9491 -0.5260 -0.7533
 1075SOL    HW2 3796   4.848   4.010   5.648 -0.0410  0.3750 -0.2612
 1076SOL     OW 3797   1.507   6.302   3.921 -0.3411  0.2813 -0.0074
 1076SOL    HW1 3798   1.551   6.218   3.912 -0.2211  0.3001  0.3914
 1076SOL    HW2 3799   1.566   6.364   3.877  0.0107  0.2973  0.4743
 1077SOL     OW 3800   4.513   5.438   5.559  0.0662  0.6281  0.1930
 1077SOL    HW1 3801   4.482   5.378   5.490 -1.5993  1.1919  0.4105
 1077SOL    HW2 3802   4.458   5.417   5.634  0.5242  1.3862  0.7438
 1078SOL     OW 3803   4.325   4.401   4.978  1.1142 -0.6236  0.1113
 1078SOL    HW1 3804   4.409   4.365   4.950  0.9209  0.2264 -1.7239
 1078SOL    HW2 3805   4.304   4.467   4.912 -1.8821 -2.1207 -0.6006
 1079SOL     OW 3806   3.641   0.414   6.470  0.1027 -0.1510  0.5089
 1079SOL    HW1 3807   3.553   0.423   6.433  0.1590  0.3831  0.4969
 1079SOL    HW2 3808   3.658   0.498   6.513  0.9190  0.0538 -0.1766
 1080SOL     OW 3809   4.926   1.687   4.527  0.0842 -0.2956 -0.7342
 1080SOL    HW1 3810   4.878   1.755   4.574 -0.5234 -0.7682 -0.6577
 1080SOL    HW2 3811   4.869   1.662   4.455  0.0994 -1.0374 -0.4959
 1081SOL     OW 3812   5.950   1.062   1.471 -0.7988  0.3748  0.5525
 1081SOL    HW1 3813   6.012   1.107   1.529 -1.5857  2.7513 -0.3541
 1081SOL    HW2 3814   5.890   1.017   1.531 -1.0664  2.0477  1.6061
 1082SOL     OW 3815   3.154   4.916   4.152  0.4957  0.0410  0.4257
 1082SOL    HW1 3816   3.228   4.887   4.206 -1.1496 -2.3165  1.5785
 1082SOL    HW2 3817   3.077   4.896   4.205 -1.2075 -1.8187 -2.4961
 1083SOL     OW 3818   4.185   4.150   5.958 -0.8683 -0.6004  0.1581
 1083SOL    HW1 3819   4.187   4.057   5.976 -0.4846 -0.3947  1.2454
 1083SOL    HW2 3820   4.267   4.168   5.912 -0.1384 -0.5252  1.4500
 1084SOL     OW 3821   4.176   7.094   1.339 -0.5320 -0.3726 -0.0863
 1084SOL    HW1 3822   4.119   7.169   1.320  0.9089  0.7975  0.0398
 1084SOL    HW2 3823   4.174   7.087   1.434  1.0117  0.9303  0.0864
 1085SOL     OW 3824   2.722   4.785   3.812 -0.3120 -0.3950  0.2302
 1085SOL    HW1 3825   2.758   4.717   3.755 -0.5989 -0.5433  0.2251
 1085SOL    HW2 3826   2.633   4.756   3.831 -0.5931  0.2191 -0.1445
 1086SOL     OW 3827   5.758   7.096   3.581 -0.1424  0.3125 -0.0512
 1086SOL    HW1 3828   5.673   7.060   3.606  0.0750  0.2320  0.6135
 1086SOL    HW2 3829   5.802   7.026   3.533 -0.2414  0.1640  0.0746
 1087SOL     OW 3830   0.475   2.309   3.795 -0.4806  0.2996  0.6904
 1087SOL    HW1 3831   0.527   2.295   3.716  1.6147  3.0217  1.3857
 1087SOL    HW2 3832   0.537   2.294   3.867 -0.4636  3.6778  1.5658
 1088SOL     OW 3833   4.023   3.651   3.171 -0.0805 -0.2572  0.2246
 1088SOL    HW1 3834   3.972   3.731   3.157 -0.2134 -0.0560  1.6142
 1088SOL    HW2 3835   3.961   3.580   3.155 -0.1700 -0.0629 -0.2916
 1089SOL     OW 3836   4.912   6.387   4.752  0.4202 -0.1095 -0.1807
 1089SOL    HW1 3837   4.877   6.474   4.734 -3.1703 -0.7469  2.5875
 1089SOL    HW2 3838   4.837   6.328   4.740  1.9888 -2.4353  0.7881
 1090SOL     OW 3839   0.332   2.590   7.336 -0.6763 -0.4857  0.3463
 1090SOL    HW1 3840   0.243   2.570   7.305 -0.5566 -1.0050  0.3177
 1090SOL    HW2 3841   0.321   2.662   7.397 -1.0567 -0.2026 -0.0490
 1091SOL     OW 3842   7.191   6.474   2.536 -0.4221  0.1057 -0.3728
 1091SOL    HW1 3843   7.153   6.560   2.551  0.5576  0.3671  0.7661
 1091SOL    HW2 3844   7.133   6.413   2.583 -0.7109  0.2203 -0.5770
 1092SOL     OW 3845   4.477   1.639   7.313 -0.0146 -0.6171  0.2353
 1092SOL    HW1 3846   4.543   1.637   7.244 -1.0671 -0.7026 -0.7880
 1092SOL    HW2 3847   4.464   1.548   7.337 -1.5974 -0.8686 -1.3873
 1093SOL     OW 3848   0.117   3.148   5.669 -0.7725 -0.1403 -0.6995
 1093SOL    HW1 3849   0.145   3.137   5.578 -2.1234 -0.3929 -1.1047
 1093SOL    HW2 3850   0.026   3.120   5.670 -0.6339 -0.6403  0.8560
 1094SOL     OW 3851   0.951   6.817   5.605  0.1339  0.3791  0.2143
 1094SOL    HW1 3852   0.858   6.820   5.629  0.5409  0.3059  1.8843
 1094SOL    HW2 3853   0.950   6.817   5.509 -1.6397 -1.4165  0.1675
 1095SOL     OW 3854   3.764   3.799   7.067  0.1833  0.1538 -0.5684
 1095SOL    HW1 3855   3.675   3.833   7.063 -0.3012 -0.9594  0.0745
 1095SOL    HW2 3856   3.817   3.872   7.098 -0.7703  0.3974  0.5342
 1096SOL     OW 3857   3.316   0.889   0.273 -0.6635  0.2805 -0.2702
 1096SOL    HW1 3858   3.231   0.873   0.314 -0.5395 -1.4814 -0.6453
 1096SOL    HW2 3859   3.357   0.956   0.329 -1.9630  0.5917  0.3508
 1097SOL     OW 3860   3.469   7.243   6.695  0.1923  0.3636 -0.3907
 1097SOL    HW1 3861   3.409   7.317   6.688 -0.2108 -0.0939 -2.0886
 1097SOL    HW2 3862   3.463   7.216   6.786 -1.4762  0.9085 -0.3103
 1098SOL     OW 3863   4.861   5.198   1.013 -0.0059 -0.4380 -0.6816
 1098SOL    HW1 3864   4.804   5.272   1.032  0.5780 -0.3153  0.6888
 1098SOL    HW2 3865   4.811   5.121   1.042  0.6002 -0.3076  0.7952
 1099SOL     OW 3866   7.316   2.536   0.093  0.1681 -0.1789  0.1574
 1099SOL    HW1 3867   7.388   2.596   0.112 -0.0289 -0.0360  0.4613
 1099SOL    HW2 3868   7.303   2.488   0.175  0.3784 -0.6970 -0.1064
 1100SOL     OW 3869   3.702   0.302   3.487  0.0907  0.0578  0.3497
 1100SOL    HW1 3870   3.657   0.385   3.472 -0.3530 -0.1374  0.5617
 1100SOL    HW2 3871   3.795   0.325   3.491 -0.1840  1.1829  4.1920
 1101SOL     OW 3872   1.856   5.846   1.973  0.0030 -0.3297 -0.1234
 1101SOL    HW1 3873   1.885   5.799   1.895  0.3408  3.3526 -2.4593
 1101SOL    HW2 3874   1.760   5.836   1.973  0.0365 -0.7124 -0.7802
 1102SOL     OW 3875   1.711   6.755   1.508  0.0293 -0.3264  0.3412
 1102SOL    HW1 3876   1.704   6.730   1.416  1.5754 -0.5820  0.2627
 1102SOL    HW2 3877   1.722   6.671   1.554 -0.7980 -0.2030  0.7631
 1103SOL     OW 3878   5.759   5.032   0.783  0.0969  0.0295  0.1366
 1103SOL    HW1 3879   5.824   4.989   0.838  0.4749  1.5902  0.9513
 1103SOL    HW2 3880   5.695   5.068   0.844 -0.3891  0.3538 -0.5494
 1104SOL     OW 3881   3.683   2.892   5.077 -0.1793  0.5037 -0.6576
 1104SOL    HW1 3882   3.612   2.897   5.013  0.9339  0.0886 -1.9902
 1104SOL    HW2 3883   3.749   2.836   5.036  0.4277 -0.1089  1.0448
 1105SOL     OW 3884   3.245   1.970   0.247 -0.1493 -0.3461  0.0283
 1105SOL    HW1 3885   3.251   1.886   0.293  0.4547 -0.1774  0.2683
 1105SOL    HW2 3886   3.315   2.024   0.285  0.6218 -0.3213 -1.3533
 1106SOL     OW 3887   1.637   2.038   1.258 -0.3764 -0.2612  0.0474
 1106SOL    HW1 3888   1.643   2.107   1.191  0.5122 -0.6701 -0.3215
 1106SOL    HW2 3889   1.560   2.061   1.310 -0.7887  0.3515 -0.8032
 1107SOL     OW 3890   6.774   1.892   3.092 -0.5974 -0.1072  0.5982
 1107SOL    HW1 3891   6.840   1.924   3.154  0.7990 -0.2360 -0.7529
 1107SOL    HW2 3892   6.710   1.847   3.146  0.0614  0.6055  2.0329
 1108SOL     OW 3893   2.531   2.113   2.811 -0.6421  0.5892 -0.3561
 1108SOL    HW1 3894   2.484   2.041   2.854 -0.7411 -0.0538 -1.5239
 1108SOL    HW2 3895   2.568   2.163   2.884 -0.1060 -0.9411  0.4645
 1109SOL     OW 3896   0.090   5.536   1.478  0.0906 -0.2842  0.0554
 1109SOL    HW1 3897   0.148   5.543   1.402  0.5150 -1.0261  0.3030
 1109SOL    HW2 3898   0.094   5.622   1.520  0.4865 -0.1220 -0.3071
 1110SOL     OW 3899   2.811   5.379   1.675  0.5854  0.0125  0.3257
 1110SOL    HW1 3900   2.836   5.471   1.689  0.3996 -0.0725  1.2880
 1110SOL    HW2 3901   2.779   5.350   1.761 -0.2276 -0.6872 -0.2053
 1111SOL     OW 3902   3.532   4.639   3.783  0.4837 -0.4516  0.3503
 1111SOL    HW1 3903   3.441   4.610   3.772  0.9393 -2.1250  0.7798
 1111SOL    HW2 3904   3.527   4.711   3.845 -0.8396  1.4037 -1.7446
 1112SOL     OW 3905   6.386   5.603   1.257  0.5670  0.5218 -0.2967
 1112SOL    HW1 3906   6.470   5.649   1.259  1.6788 -1.3018  2.9716
 1112SOL    HW2 3907   6.321   5.673   1.243  2.4547  2.3712 -0.3379
 1113SOL     OW 3908   3.409   7.377   0.247 -0.3184  0.4849  0.0529
 1113SOL    HW1 3909   3.500   7.350   0.256 -0.9803 -1.5270  1.2983
 1113SOL    HW2 3910   3.358   7.298   0.264 -2.3305  1.6328 -0.2458
 1114SOL     OW 3911   4.904   0.557   5.116 -0.0410  0.0405 -0.1559
 1114SOL    HW1 3912   4.990   0.542   5.076 -0.3659 -1.9078 -0.2136
 1114SOL    HW2 3913   4.917   0.540   5.209 -0.3877 -0.3737 -0.1813
 1115SOL     OW 3914   0.154   5.581   4.918 -0.9576  0.1963 -0.0330
 1115SOL    HW1 3915   0.071   5.568   4.872 -0.4596  0.4433 -1.0081
 1115SOL    HW2 3916   0.220   5.585   4.849 -0.3810  2.1911  0.5718
 1116SOL     OW 3917   1.049   3.129   6.404  0.2797 -0.4004 -0.4031
 1116SOL    HW1 3918   0.992   3.190   6.358 -0.5116 -1.7261 -1.2651
 1116SOL    HW2 3919   1.056   3.164   6.493 -1.3246  0.1630 -0.4710
 1117SOL     OW 3920   6.313   2.330   4.039  0.5389  0.3410 -0.3622
 1117SOL    HW1 3921   6.331   2.281   3.959  0.6359  0.6581 -0.5356
 1117SOL    HW2 3922   6.273   2.266   4.098  0.0676  0.2123 -0.8179
 1118SOL     OW 3923   5.501   2.290   3.601  0.1283  0.2115  0.0929
 1118SOL    HW1 3924   5.538   2.370   3.564 -2.7425  0.9495 -1.5052
 1118SOL    HW2 3925   5.470   2.316   3.687  1.3689  0.1270  0.5855
 1119SOL     OW 3926   0.155   0.367   5.829 -0.1348 -0.2850 -0.2669
 1119SOL    HW1 3927   0.172   0.440   5.888 -1.7643 -0.1239  0.0544
 1119SOL    HW2 3928   0.241   0.331   5.810  0.7239  1.7531 -0.4964
 1120SOL     OW 3929   2.186   3.952   3.318  0.1375 -0.0805 -0.4994
 1120SOL    HW1 3930   2.119   3.884   3.311  1.4837 -1.3356 -1.7646
 1120SOL    HW2 3931   2.269   3.906   3.311  1.0948  1.7216 -2.0445
 1121SOL     OW 3932   4.987   6.752   1.497  0.1173  0.4018 -0.0432
 1121SOL    HW1 3933   4.919   6.779   1.436 -0.3952 -1.1232 -0.1809
 1121SOL    HW2 3934   5.061   6.727   1.441 -0.8622 -2.4367 -0.2104
 1122SOL     OW 3935   2.653   6.819   6.196  0.4238 -0.0073 -0.7568
 1122SOL    HW1 3936   2.624   6.830   6.286 -0.2775 -1.0152 -0.8412
 1122SOL    HW2 3937   2.720   6.887   6.184 -0.7020  1.2859 -0.0344
 1123SOL     OW 3938   5.088   0.079   0.846 -0.3817 -0.0931 -0.0153
 1123SOL    HW1 3939   5.150   0.055   0.777  1.2475  0.5479  1.1535
 1123SOL    HW2 3940   5.123   0.161   0.882 -3.0691  1.4616 -0.6562
 1124SOL     OW 3941   0.272   2.222   7.279  0.3554 -0.1070 -0.2021
 1124SOL    HW1 3942   0.246   2.255   7.365  0.1803 -1.8507  0.4610
 1124SOL    HW2 3943   0.218   2.144   7.265 -0.2600  0.6178 -2.3181
 1125SOL     OW 3944   5.000   5.126   5.771  0.1563  0.0036  0.0920
 1125SOL    HW1 3945   5.037   5.071   5.701 -0.1748 -0.4361  0.2568
 1125SOL    HW2 3946   5.075   5.149   5.825  0.0848 -1.7231  1.0043
 1126SOL     OW 3947   2.696   3.180   1.479  0.4703  0.2749 -0.0104
 1126SOL    HW1 3948   2.675   3.190   1.387  2.3861  0.7850 -0.4364
 1126SOL    HW2 3949   2.719   3.269   1.508  0.9599 -0.0566  0.6536
 1127SOL     OW 3950   4.848   4.750   4.215  0.0617 -0.1130 -0.3450
 1127SOL    HW1 3951   4.860   4.722   4.306  0.6065  0.3343 -0.2659
 1127SOL    HW2 3952   4.757   4.732   4.196 -0.3273  0.6873  0.6211
 1128SOL     OW 3953   1.590   0.865   6.721 -0.0118  0.3323 -0.4617
 1128SOL    HW1 3954   1.514   0.899   6.768 -0.0413  1.5286 -1.3277
 1128SOL    HW2 3955   1.658   0.857   6.788 -0.8681 -0.7864  0.3305
 1129SOL     OW 3956   1.959   4.204   3.726  0.0082 -0.0095 -0.3290
 1129SOL    HW1 3957   1.998   4.220   3.640  2.4341  0.1604  0.7160
 1129SOL    HW2 3958   1.926   4.114   3.720  0.5540 -0.1653 -1.3112
 1130SOL     OW 3959   4.672   2.718   4.958 -0.2321  0.0719  0.1030
 1130SOL    HW1 3960   4.647   2.800   4.914  1.2689  0.2952 -0.3655
 1130SOL    HW2 3961   4.767   2.719   4.960 -0.1989 -1.3875  0.6507
 1131SOL     OW 3962   5.427   6.086   2.267  0.0531 -0.4333  0.1780
 1131SOL    HW1 3963   5.502   6.045   2.311  0.7295 -0.8207 -1.2825
 1131SOL    HW2 3964   5.453   6.091   2.175 -2.0880 -1.4625 -0.5412
 1132SOL     OW 3965   1.399   6.662   6.601 -0.1782 -0.0001  0.3051
 1132SOL    HW1 3966   1.398   6.750   6.637  2.0595  0.1245  0.2093
 1132SOL    HW2 3967   1.381   6.605   6.676 -0.9754  0.4876  0.4941
 1133SOL     OW 3968   0.137   7.008   2.591  0.3992  0.0717  0.4737
 1133SOL    HW1 3969   0.175   7.096   2.585  1.9322 -0.6551 -2.1722
 1133SOL    HW2 3970   0.199   6.959   2.646  0.5808  0.1870  0.3737
 1134SOL     OW 3971   1.321   5.884   0.171  0.4086  0.2540 -0.4728
 1134SOL    HW1 3972   1.281   5.837   0.098  0.2632  0.4858 -0.5408
 1134SOL    HW2 3973   1.352   5.966   0.133  2.2218 -0.5117 -0.7510
 1135SOL     OW 3974   4.424   2.827   4.061  0.2685 -0.4028 -0.7053
 1135SOL    HW1 3975   4.461   2.909   4.095  1.1166 -0.8644 -0.5085
 1135SOL    HW2 3976   4.471   2.812   3.979  1.9859 -2.0281  0.5024
 1136SOL     OW 3977   3.323   2.159   6.320 -0.4012  0.1885 -0.1086
 1136SOL    HW1 3978   3.412   2.122   6.319 -0.5661 -0.2172 -0.1195
 1136SOL    HW2 3979   3.267   2.086   6.294 -0.6281  0.7443 -1.2402
 1137SOL     OW 3980   2.233   7.217   6.814  0.1484 -0.0783  0.0979
 1137SOL    HW1 3981   2.295   7.195   6.744  0.0093  0.6576 -0.2671
 1137SOL    HW2 3982   2.284   7.209   6.895  1.2416  2.1707 -0.2968
 1138SOL     OW 3983   6.215   6.926   0.454  0.0456  0.2661 -0.2545
 1138SOL    HW1 3984   6.138   6.962   0.409 -0.3441 -0.7149 -0.3973
 1138SOL    HW2 3985   6.215   6.833   0.430 -0.4891 -0.4264  2.2059
 1139SOL     OW 3986   1.568   5.207   6.981  0.4028  0.4839 -0.4989
 1139SOL    HW1 3987   1.563   5.178   7.072 -1.8238 -1.8069 -1.2340
 1139SOL    HW2 3988   1.648   5.165   6.947  0.1865 -0.2795 -0.0903
 1140SOL     OW 3989   0.344   5.750   0.035  0.5254  0.4531 -0.4942
 1140SOL    HW1 3990   0.384   5.798   0.108  0.5303  2.0925 -1.5388
 1140SOL    HW2 3991   0.416   5.734  -0.026  0.6984 -1.6431  0.1453
 1141SOL     OW 3992   2.024   4.748   4.737  0.0330 -0.2520 -0.0268
 1141SOL    HW1 3993   1.961   4.820   4.736  2.2326  1.7784  0.2186
 1141SOL    HW2 3994   2.006   4.702   4.820  0.2212  1.5752  1.0693
 1142SOL     OW 3995   2.686   0.429   3.548  0.4054 -0.3576  0.1903
 1142SOL    HW1 3996   2.693   0.342   3.588  0.7762 -0.7844 -0.7616
 1142SOL    HW2 3997   2.737   0.422   3.467  0.2694  0.6909 -0.0005
 1143SOL     OW 3998   6.278   7.316   1.907 -0.0575  0.2679 -0.1851
 1143SOL    HW1 3999   6.323   7.237   1.876  0.0436 -0.1449  0.9557
 1143SOL    HW2 4000   6.187   7.304   1.880 -0.3460 -0.9433  1.1907
 1144SOL     OW 4001   0.830   4.293   2.812 -0.4508  0.7839  0.2901
 1144SOL    HW1 4002   0.794   4.322   2.728 -0.3106  1.8480  0.5801
 1144SOL    HW2 4003   0.764   4.234   2.848  0.2117 -1.0600 -1.3075
 1145SOL     OW 4004   6.925   1.785   2.871  0.0113  0.5856  0.6102
 1145SOL    HW1 4005   6.873   1.713   2.907 -0.1735  0.6025  0.3799
 1145SOL    HW2 4006   6.918   1.854   2.937 -0.2305  0.5753  0.5979
 1146SOL     OW 4007   3.702   2.233   2.548 -0.6901 -0.3497 -0.1339
 1146SOL    HW1 4008   3.693   2.215   2.455 -0.6682 -1.2072  0.0173
 1146SOL    HW2 4009   3.770   2.171   2.578 -1.5362 -0.9231  0.6720
 1147SOL     OW 4010   1.778   3.328   3.790 -0.1189  0.9604 -0.1307
 1147SOL    HW1 4011   1.829   3.312   3.711 -1.3409  2.0163 -1.1979
 1147SOL    HW2 4012   1.723   3.403   3.768 -1.5933  0.3429  1.1876
 1148SOL     OW 4013   6.359   4.446   4.324 -0.1141  0.9319  0.0567
 1148SOL    HW1 4014   6.412   4.526   4.321 -0.1789  1.0793  1.6838
 1148SOL    HW2 4015   6.310   4.454   4.406 -1.6319  0.1461 -0.7379
 1149SOL     OW 4016   4.871   1.455   5.963 -0.1462  0.1699 -0.5055
 1149SOL    HW1 4017   4.777   1.463   5.980 -0.3220 -0.6721 -1.0513
 1149SOL    HW2 4018   4.883   1.364   5.936  0.7339  0.4257 -1.0119
 1150SOL     OW 4019   3.254   4.233   7.356  0.3019 -0.4793 -0.1404
 1150SOL    HW1 4020   3.287   4.145   7.370  0.3744 -0.4901 -0.3831
 1150SOL    HW2 4021   3.159   4.223   7.356  0.3122 -0.5825 -0.3324
 1151SOL     OW 4022   5.319   0.256   4.160  0.5327 -0.0123 -0.6108
 1151SOL    HW1 4023   5.247   0.236   4.220  1.9930  0.0749  1.2476
 1151SOL    HW2 4024   5.375   0.178   4.164  1.0168  0.2893 -1.3489
 1152SOL     OW 4025   4.107   1.789   2.785 -0.3659 -0.4478  0.1523
 1152SOL    HW1 4026   4.015   1.814   2.786 -0.1533  0.4501 -0.7672
 1152SOL    HW2 4027   4.154   1.864   2.821  0.1489 -0.0855 -1.1806
 1153SOL     OW 4028   1.932   4.077   2.461  0.2621  0.6954 -0.1140
 1153SOL    HW1 4029   1.936   4.007   2.397 -0.1027 -0.5451  1.1709
 1153SOL    HW2 4030   1.895   4.151   2.413  1.3107  0.2535 -1.6835
 1154SOL     OW 4031   5.668   5.829   5.038 -0.1765  0.3476 -0.0661
 1154SOL    HW1 4032   5.636   5.758   5.095 -1.3048  0.9998  0.1494
 1154SOL    HW2 4033   5.616   5.905   5.064  0.2278  0.9794 -1.0684
 1155SOL     OW 4034   4.266   5.497   4.468  0.1311  0.0527  0.5587
 1155SOL    HW1 4035   4.181   5.515   4.508 -0.2346 -0.5298  0.0548
 1155SOL    HW2 4036   4.299   5.583   4.443 -1.9898  0.1223 -2.6437
 1156SOL     OW 4037   1.959   1.569   0.431 -0.3436  0.1613 -0.2935
 1156SOL    HW1 4038   1.919   1.528   0.508  0.5401  0.2972  0.2598
 1156SOL    HW2 4039   2.052   1.573   0.452 -0.1755  0.8081 -1.1024
 1157SOL     OW 4040   2.228   2.610   2.754  0.0862  0.4487 -0.2411
 1157SOL    HW1 4041   2.276   2.549   2.811 -0.5255 -0.3220 -0.5404
 1157SOL    HW2 4042   2.272   2.694   2.768 -0.0149  0.2774  1.3488
 1158SOL     OW 4043   4.894   0.760   1.551 -0.1174  0.1296 -0.6468
 1158SOL    HW1 4044   4.844   0.841   1.566  1.1585  0.9498 -0.7039
 1158SOL    HW2 4045   4.973   0.789   1.507  0.7121 -1.0657  0.0060
 1159SOL     OW 4046   1.262   5.971   6.280  0.3291  0.4176 -0.0703
 1159SOL    HW1 4047   1.242   6.041   6.343  1.7410  0.9673 -0.1908
 1159SOL    HW2 4048   1.339   6.003   6.233  1.1384 -1.3119  0.0045
 1160SOL     OW 4049   6.015   0.060   7.255  0.4517  0.0347 -0.1777
 1160SOL    HW1 4050   6.051   0.007   7.327  1.6732  1.7117  0.5229
 1160SOL    HW2 4051   5.980   0.138   7.299 -2.1767 -0.5588 -1.0789
 1161SOL     OW 4052   1.224   2.444   0.503  0.5752 -0.3634 -0.3013
 1161SOL    HW1 4053   1.142   2.425   0.458  0.7395 -0.7167 -0.4513
 1161SOL    HW2 4054   1.283   2.373   0.478  1.5815  0.9401 -1.8003
 1162SOL     OW 4055   5.788   5.161   4.326  0.3947 -0.8373 -0.1802
 1162SOL    HW1 4056   5.780   5.161   4.422 -0.4846  2.5765 -0.1174
 1162SOL    HW2 4057   5.806   5.070   4.303 -1.0969 -2.1062  3.0842
 1163SOL     OW 4058   2.090   2.339   3.017  0.9341 -0.4770 -0.5972
 1163SOL    HW1 4059   2.046   2.253   3.017  1.9261 -1.0061 -1.6555
 1163SOL    HW2 4060   2.125   2.348   2.929  0.7610  1.0922 -0.5367
 1164SOL     OW 4061   2.029   6.126   6.488 -0.4551  0.2123  0.1373
 1164SOL    HW1 4062   1.994   6.207   6.524 -1.8491 -1.3741  2.6132
 1164SOL    HW2 4063   2.092   6.095   6.554  0.8449 -0.2388 -1.2454
 1165SOL     OW 4064   7.020   1.275   6.033  0.0287 -0.3315  0.1262
 1165SOL    HW1 4065   7.080   1.341   6.068 -0.3373 -0.6001  1.3090
 1165SOL    HW2 4066   6.995   1.223   6.110  0.0921 -1.6690 -0.7325
 1166SOL     OW 4067   0.775   5.621   4.337 -0.1148  0.0728  0.5164
 1166SOL    HW1 4068   0.680   5.618   4.331 -0.0786 -2.4063  0.2271
 1166SOL    HW2 4069   0.800   5.702   4.292 -1.9674 -0.0990 -0.8966
 1167SOL     OW 4070   2.548   2.306   5.050 -1.1974 -0.1363  0.6593
 1167SOL    HW1 4071   2.483   2.321   5.118 -0.2008 -2.0178  2.0953
 1167SOL    HW2 4072   2.611   2.246   5.089  0.8293  0.7633 -1.0533
 1168SOL     OW 4073   1.951   3.448   0.755  0.5156  0.1270  0.6917
 1168SOL    HW1 4074   1.908   3.430   0.839  0.8594  3.3401  1.7135
 1168SOL    HW2 4075   1.889   3.418   0.689  1.1630 -4.5994  1.8646
 1169SOL     OW 4076   4.517   1.993   0.443 -0.0390  0.2656  0.0144
 1169SOL    HW1 4077   4.583   1.928   0.422  0.1858  1.0066 -1.7449
 1169SOL    HW2 4078   4.476   1.961   0.524  2.9973  0.2056  1.6855
 1170SOL     OW 4079   1.606   4.530   0.308 -0.6064  0.7228 -0.4363
 1170SOL    HW1 4080   1.696   4.541   0.277  0.1849 -0.0818  1.4138
 1170SOL    HW2 4081   1.594   4.435   0.312 -0.2459  0.7015  2.5824
 1171SOL     OW 4082   0.021   0.319   5.204  0.2501  0.2845 -0.3459
 1171SOL    HW1 4083   0.012   0.239   5.153  0.8871 -0.7864  1.1350
 1171SOL    HW2 4084   0.083   0.373   5.155  1.4838 -1.0572 -0.3343
 1172SOL     OW 4085   7.211   2.213   3.401  0.4979  0.4821 -0.0193
 1172SOL    HW1 4086   7.185   2.300   3.371  0.6691  0.9915  1.2590
 1172SOL    HW2 4087   7.219   2.162   3.321 -0.3178  1.4415 -0.7415
 1173SOL     OW 4088   3.916   6.530   2.297 -0.4961 -0.0442 -0.7011
 1173SOL    HW1 4089   3.917   6.481   2.379  0.8897 -0.5076 -0.9731
 1173SOL    HW2 4090   3.829   6.571   2.295 -1.2056 -1.4059  0.1605
 1174SOL     OW 4091   2.542   1.131   0.967 -0.2768 -0.1923 -0.1346
 1174SOL    HW1 4092   2.458   1.151   1.008  0.2123  0.1800  0.7100
 1174SOL    HW2 4093   2.552   1.037   0.978 -1.4578 -0.5930 -1.9647
 1175SOL     OW 4094   6.490   0.991   5.006 -0.2777 -0.4206 -0.5897
 1175SOL    HW1 4095   6.417   1.052   5.013 -0.0591 -0.3231  1.0429
 1175SOL    HW2 4096   6.531   1.013   4.922  0.7038  2.6991  0.5926
 1176SOL     OW 4097   2.306   0.941   1.386  0.6088  0.0759  0.7665
 1176SOL    HW1 4098   2.277   1.024   1.348 -0.0799 -0.6182 -0.2862
 1176SOL    HW2 4099   2.401   0.950   1.392  0.4778  1.2013  1.3246
 1177SOL     OW 4100   1.965   2.357   0.335 -0.4300 -0.3446 -0.3663
 1177SOL    HW1 4101   2.057   2.384   0.341 -0.4637 -0.2947 -0.0759
 1177SOL    HW2 4102   1.969   2.266   0.305 -0.2990 -0.2139 -0.7565
 1178SOL     OW 4103   7.190   6.790   4.395  0.1604 -0.5110  0.1033
 1178SOL    HW1 4104   7.176   6.700   4.423 -0.4634 -0.4308  0.0655
 1178SOL    HW2 4105   7.144   6.797   4.312  1.3290 -0.5205 -0.5613
 1179SOL     OW 4106   7.144   3.656   2.462 -0.5999  0.0575  0.3605
 1179SOL    HW1 4107   7.070   3.661   2.522 -1.9067 -1.1243 -1.0664
 1179SOL    HW2 4108   7.145   3.740   2.417 -1.9853 -0.4001 -0.5878
 1180SOL     OW 4109   2.183   4.034   4.773 -0.0114 -0.1835  0.0765
 1180SOL    HW1 4110   2.225   3.975   4.836  1.6576  0.5307 -0.3158
 1180SOL    HW2 4111   2.211   4.121   4.800 -0.4082  0.2414 -0.8443
 1181SOL     OW 4112   6.016   2.344   6.643 -0.4530  0.3830 -0.4430
 1181SOL    HW1 4113   6.054   2.383   6.565 -0.8396  1.8596  0.0715
 1181SOL    HW2 4114   5.925   2.374   6.643  0.1465  2.5521  1.8495
 1182SOL     OW 4115   4.265   1.731   2.442  0.3366  0.1585 -0.6774
 1182SOL    HW1 4116   4.286   1.727   2.535 -0.7608  0.9539 -0.3690
 1182SOL    HW2 4117   4.239   1.642   2.418 -0.3857  0.1690  0.0386
 1183SOL     OW 4118   5.805   3.676   1.268 -0.0034 -0.0317 -0.2479
 1183SOL    HW1 4119   5.866   3.642   1.333 -0.1496 -1.1994 -0.6889
 1183SOL    HW2 4120   5.719   3.649   1.299 -0.0658 -0.7012 -0.9505
 1184SOL     OW 4121   1.479   4.304   0.056  0.2196 -0.2629 -0.3026
 1184SOL    HW1 4122   1.413   4.360   0.016  0.9216  1.4819  0.8557
 1184SOL    HW2 4123   1.540   4.285  -0.015 -0.8755 -0.8946 -1.0892
 1185SOL     OW 4124   3.013   5.872   6.453  0.5046 -0.4116  0.1131
 1185SOL    HW1 4125   3.057   5.798   6.494  0.2089 -1.4246 -1.3255
 1185SOL    HW2 4126   2.965   5.834   6.379 -2.2487  0.7118  1.1774
 1186SOL     OW 4127   2.844   5.161   6.576  0.0943 -0.1767 -0.6486
 1186SOL    HW1 4128   2.833   5.227   6.508 -1.2892  0.2427 -0.0507
 1186SOL    HW2 4129   2.837   5.078   6.530  1.7612  0.0539 -1.3948
 1187SOL     OW 4130   0.268   2.429   2.937  0.0532  0.4008 -0.5049
 1187SOL    HW1 4131   0.255   2.459   2.847  0.0187  0.8525 -0.3502
 1187SOL    HW2 4132   0.290   2.508   2.986 -2.1177  0.5509  0.3237
 1188SOL     OW 4133   2.992   5.217   0.202 -0.2389 -0.0923  0.4299
 1188SOL    HW1 4134   2.999   5.125   0.174 -1.6703 -0.2969  0.6823
 1188SOL    HW2 4135   3.043   5.222   0.282 -0.0694 -0.6441  0.3603
 1189SOL     OW 4136   0.023   1.101   2.703 -0.3546  0.4378  0.2036
 1189SOL    HW1 4137  -0.021   1.184   2.685 -0.1668  0.8398  1.5012
 1189SOL    HW2 4138   0.116   1.122   2.702 -0.2259 -0.1161 -1.1183
 1190SOL     OW 4139   0.280   2.970   6.902  0.0630  0.6934  0.4733
 1190SOL    HW1 4140   0.207   2.973   6.965  0.8178 -1.1544  1.4981
 1190SOL    HW2 4141   0.264   3.044   6.844 -2.4479  0.5379  0.8691
 1191SOL     OW 4142   0.928   7.384   6.910  0.0407 -0.0833 -0.5417
 1191SOL    HW1 4143   0.933   7.479   6.923 -0.5034  0.1321 -1.7460
 1191SOL    HW2 4144   0.952   7.347   6.995  1.4783  1.1096 -0.3788
 1192SOL     OW 4145   5.645   0.806   3.410 -0.1685  0.3855  0.3059
 1192SOL    HW1 4146   5.740   0.815   3.403 -0.1414  0.0756  0.2257
 1192SOL    HW2 4147   5.612   0.895   3.405  0.0899  0.4623 -0.1725
 1193SOL     OW 4148   2.906   6.663   3.700 -0.1220  0.0384  0.7489
 1193SOL    HW1 4149   2.949   6.715   3.632 -0.8289 -0.0356  0.2409
 1193SOL    HW2 4150   2.926   6.709   3.781 -0.7576  1.1372  0.3092
 1194SOL     OW 4151   0.841   5.732   0.353  0.5684 -0.5506 -0.2687
 1194SOL    HW1 4152   0.927   5.772   0.341 -0.0325  0.6329 -0.7498
 1194SOL    HW2 4153   0.796   5.790   0.415  0.3354 -1.5182  0.4924
 1195SOL     OW 4154   6.442   0.666   1.321  0.2128 -0.7738  0.1752
 1195SOL    HW1 4155   6.420   0.756   1.300 -0.8079 -1.6401 -2.9599
 1195SOL    HW2 4156   6.537   0.661   1.308  0.3300 -0.0907  0.7237
 1196SOL     OW 4157   2.462   2.440   0.999 -0.5173 -0.5205 -0.7485
 1196SOL    HW1 4158   2.459   2.432   1.095 -0.8240  1.7753 -0.5177
 1196SOL    HW2 4159   2.371   2.459   0.974 -0.4308 -1.0575 -1.5250
 1197SOL     OW 4160   0.047   0.990   7.008 -0.0459 -0.4373 -0.3006
 1197SOL    HW1 4161  -0.028   1.049   7.012 -0.7897 -1.4113  1.2897
 1197SOL    HW2 4162   0.013   0.910   6.969  0.3717 -0.6045 -0.3248
 1198SOL     OW 4163   0.231   1.888   5.445 -0.2116  0.1727  0.1331
 1198SOL    HW1 4164   0.260   1.802   5.414 -0.4325 -0.8414  2.4600
 1198SOL    HW2 4165   0.138   1.890   5.426 -0.0673  0.2290 -0.5961
 1199SOL     OW 4166   3.503   6.224   5.676 -0.3526 -0.2906  1.1204
 1199SOL    HW1 4167   3.456   6.141   5.673 -0.0832 -0.4358 -1.0742
 1199SOL    HW2 4168   3.435   6.291   5.672 -0.5098 -0.4645  0.7574
 1200SOL     OW 4169   4.389   2.948   3.165 -0.3007  0.1781  0.4588
 1200SOL    HW1 4170   4.438   2.973   3.086 -1.0838 -0.0082 -0.0997
 1200SOL    HW2 4171   4.304   2.919   3.132 -0.7163  0.3001  1.3929
 1201SOL     OW 4172   2.460   4.100   1.210  0.2276 -0.1835 -0.6335
 1201SOL    HW1 4173   2.510   4.163   1.263  0.3273 -0.7135 -0.0911
 1201SOL    HW2 4174   2.372   4.103   1.246  0.4590 -1.0651  0.0547
 1202SOL     OW 4175   2.300   2.511   7.091 -0.3039 -0.1855  0.0237
 1202SOL    HW1 4176   2.306   2.459   7.010 -2.4361  0.9755 -0.9869
 1202SOL    HW2 4177   2.388   2.544   7.106 -0.4052  2.5401 -3.9656
 1203SOL     OW 4178   2.405   4.518   5.991 -0.8960 -0.1057  0.4825
 1203SOL    HW1 4179   2.382   4.437   6.037  0.9471 -0.0328  1.6713
 1203SOL    HW2 4180   2.494   4.501   5.959  0.0586  1.8700  1.8998
 1204SOL     OW 4181   4.392   1.100   3.257 -0.6345  0.2737  0.1621
 1204SOL    HW1 4182   4.391   1.102   3.162 -0.1527  0.7749  0.1665
 1204SOL    HW2 4183   4.394   1.192   3.284 -0.9194  0.1422  0.6591
 1205SOL     OW 4184   3.956   3.640   5.023 -0.3873 -0.5271 -0.7063
 1205SOL    HW1 4185   3.888   3.696   5.061  1.4456  0.3857  1.4399
 1205SOL    HW2 4186   3.946   3.556   5.068  0.2585 -0.1883  0.1074
 1206SOL     OW 4187   4.555   4.657   5.582 -0.0803  0.1466 -0.4997
 1206SOL    HW1 4188   4.564   4.743   5.624 -0.6636 -0.2775  0.5245
 1206SOL    HW2 4189   4.501   4.675   5.505 -1.3979  0.5110  0.4556
 1207SOL     OW 4190   6.989   1.566   0.142 -0.2507  0.4088  0.2832
 1207SOL    HW1 4191   6.937   1.550   0.220 -0.4844 -1.7515 -0.2527
 1207SOL    HW2 4192   7.066   1.511   0.152  0.4705  1.2641 -0.3383
 1208SOL     OW 4193   6.331   2.263   1.057 -0.2103 -0.4357  0.3092
 1208SOL    HW1 4194   6.320   2.348   1.015 -1.2731 -0.5458  0.3445
 1208SOL    HW2 4195   6.413   2.229   1.020  0.7810  1.0295  1.0721
 1209SOL     OW 4196   0.135   2.499   5.996  0.4021  0.1591 -0.8369
 1209SOL    HW1 4197   0.150   2.503   6.090 -2.9020 -0.7187 -0.1519
 1209SOL    HW2 4198   0.148   2.589   5.965 -0.5490  0.9317  0.8804
 1210SOL     OW 4199   6.099   0.133   4.329  0.1026 -0.4107  0.5737
 1210SOL    HW1 4200   6.073   0.092   4.247  0.5571  0.7181 -0.1525
 1210SOL    HW2 4201   6.018   0.167   4.366  0.0164 -0.1814  0.1738
 1211SOL     OW 4202   0.967   4.597   1.013 -0.4775 -0.4128  0.7883
 1211SOL    HW1 4203   1.039   4.592   1.075 -0.8172 -1.0001  1.1470
 1211SOL    HW2 4204   0.979   4.521   0.956 -0.4951 -0.1968  0.4920
 1212SOL     OW 4205   0.814   3.102   0.298  0.2400  0.3591  0.5900
 1212SOL    HW1 4206   0.801   3.034   0.364  0.0928  0.4671  0.6747
 1212SOL    HW2 4207   0.733   3.101   0.246  0.1245  0.6456  0.7570
 1213SOL     OW 4208   4.065   6.399   3.056  0.9654  0.2088  0.7162
 1213SOL    HW1 4209   4.030   6.388   3.144  1.2396 -0.9748  0.6980
 1213SOL    HW2 4210   4.143   6.454   3.067  0.0883  1.4379  0.9772
 1214SOL     OW 4211   1.805   1.539   6.944  0.0571  0.5929 -0.4561
 1214SOL    HW1 4212   1.825   1.632   6.929  0.7194  0.5687  0.2420
 1214SOL    HW2 4213   1.802   1.530   7.039  0.9684 -0.3046 -0.4996
 1215SOL     OW 4214   1.350   1.555   7.158 -0.5928  0.2016  0.2111
 1215SOL    HW1 4215   1.395   1.541   7.076 -0.2716  0.7344  0.2920
 1215SOL    HW2 4216   1.278   1.492   7.157 -0.3282 -0.0971 -0.2748
 1216SOL     OW 4217   3.857   2.223   1.516  0.6211  0.4181  0.1464
 1216SOL    HW1 4218   3.784   2.237   1.455  1.2716  1.3225 -0.4632
 1216SOL    HW2 4219   3.935   2.249   1.466  1.4158 -0.8727  0.6534
 1217SOL     OW 4220   4.410   4.228   5.502  0.3380 -0.2670  0.1382
 1217SOL    HW1 4221   4.372   4.238   5.415 -1.2278 -2.3346  0.4948
 1217SOL    HW2 4222   4.489   4.175   5.489  0.5339  0.0741 -0.0812
 1218SOL     OW 4223   0.092   6.210   3.256  0.2780 -0.2836 -0.0346
 1218SOL    HW1 4224   0.067   6.169   3.173  3.5978 -1.2419 -0.7039
 1218SOL    HW2 4225   0.050   6.296   3.254  0.4186 -0.1961 -2.8380
 1219SOL     OW 4226   3.270   4.207   2.977 -0.3057  0.6102 -0.1001
 1219SOL    HW1 4227   3.311   4.135   3.026  0.9939  0.8658 -0.7530
 1219SOL    HW2 4228   3.335   4.277   2.980 -0.9573  1.2476 -0.6794
 1220SOL     OW 4229   0.167   7.023   5.231 -0.2228  0.2572 -0.1344
 1220SOL    HW1 4230   0.089   6.968   5.220 -1.1479  1.2706  0.9925
 1220SOL    HW2 4231   0.136   7.111   5.208  0.8057  0.5591 -0.3903
 1221SOL     OW 4232   2.154   3.220   6.009 -0.0243 -0.0010 -0.4097
 1221SOL    HW1 4233   2.225   3.160   6.031  0.9899  0.8676 -1.2239
 1221SOL    HW2 4234   2.084   3.198   6.071  0.7022 -1.3119 -0.0238
 1222SOL     OW 4235   5.467   1.280   2.774 -0.4231  0.2608  0.0683
 1222SOL    HW1 4236   5.539   1.329   2.733  0.4470 -0.5733  0.5439
 1222SOL    HW2 4237   5.487   1.284   2.868 -0.5322 -0.7069  0.1333
 1223SOL     OW 4238   2.655   0.266   3.919  0.2288 -0.1894  0.0809
 1223SOL    HW1 4239   2.698   0.209   3.856  0.9785  0.2936  0.1484
 1223SOL    HW2 4240   2.611   0.205   3.979 -1.0614 -0.6447 -1.2638
 1224SOL     OW 4241   7.421   1.668   1.730 -0.4513  0.1329  0.0240
 1224SOL    HW1 4242   7.415   1.759   1.759 -0.0455 -0.5314  2.3757
 1224SOL    HW2 4243   7.431   1.674   1.635 -0.7814  2.5140  0.0805
 1225SOL     OW 4244   5.898   6.342   6.767  0.4041 -0.2216  0.3580
 1225SOL    HW1 4245   5.878   6.291   6.846  0.4664  0.9193  1.1259
 1225SOL    HW2 4246   5.992   6.329   6.754  0.6988  0.7493  1.3438
 1226SOL     OW 4247   3.140   0.487   2.934  0.4531  0.0186 -0.6148
 1226SOL    HW1 4248   3.157   0.443   3.017 -1.8698  0.0244 -0.0678
 1226SOL    HW2 4249   3.135   0.580   2.956  1.2628  0.1816 -1.0523
 1227SOL     OW 4250   2.909   0.343   1.726 -0.3054  0.3834 -0.6748
 1227SOL    HW1 4251   2.991   0.388   1.749 -0.9061  1.5247 -0.7067
 1227SOL    HW2 4252   2.921   0.317   1.635 -0.0078  0.6121 -0.7024
 1228SOL     OW 4253   4.720   1.557   3.749  0.0880 -0.1190 -0.1258
 1228SOL    HW1 4254   4.677   1.513   3.822 -1.4445  0.3729 -0.6810
 1228SOL    HW2 4255   4.738   1.487   3.686  2.5786 -0.7653  1.1664
 1229SOL     OW 4256   6.476   6.931   4.808  0.2938 -0.0250 -0.3061
 1229SOL    HW1 4257   6.483   6.856   4.867  0.9684  1.2775  1.3460
 1229SOL    HW2 4258   6.384   6.958   4.814  0.1590 -0.4152 -0.5468
 1230SOL     OW 4259   4.627   6.694   3.556 -0.2076  0.2485  0.0626
 1230SOL    HW1 4260   4.651   6.609   3.591 -0.1786  0.4871  0.6287
 1230SOL    HW2 4261   4.611   6.678   3.463 -0.3350 -0.3961  0.1946
 1231SOL     OW 4262   2.944   2.367   3.950 -0.0553  0.0027 -0.7945
 1231SOL    HW1 4263   3.036   2.394   3.952 -0.4212  1.4934 -2.1199
 1231SOL    HW2 4264   2.946   2.279   3.914  0.8255  0.1836 -1.2326
 1232SOL     OW 4265   0.362   1.282   4.133 -0.1800 -0.3218  0.0310
 1232SOL    HW1 4266   0.387   1.195   4.162 -2.1330 -1.2000 -0.7490
 1232SOL    HW2 4267   0.382   1.284   4.040  0.5393  0.3417  0.1905
 1233SOL     OW 4268   2.730   2.398   3.598 -0.2510  0.0868  0.1645
 1233SOL    HW1 4269   2.713   2.304   3.586  2.1737 -0.2838 -1.0829
 1233SOL    HW2 4270   2.664   2.441   3.545 -0.4390 -1.0097 -0.5325
 1234SOL     OW 4271   3.378   1.042   0.963  0.2177  0.2967 -0.0758
 1234SOL    HW1 4272   3.465   1.060   0.997  0.2386  0.4678 -0.2162
 1234SOL    HW2 4273   3.319   1.076   1.031  0.2600  0.1026  0.0584
 1235SOL     OW 4274   6.896   1.306   4.158  0.8203  0.3152 -0.2818
 1235SOL    HW1 4275   6.808   1.305   4.197  1.4930 -2.6211  1.4421
 1235SOL    HW2 4276   6.883   1.274   4.069  0.0855  0.2670 -0.1647
 1236SOL     OW 4277   7.109   1.611   7.120 -0.0682 -0.3249  0.4191
 1236SOL    HW1 4278   7.191   1.639   7.161 -0.3449 -1.9272  2.2406
 1236SOL    HW2 4279   7.042   1.630   7.185 -0.8552 -0.8633 -0.2131
 1237SOL     OW 4280   3.523   7.423   4.456  0.1066 -0.3983 -0.3037
 1237SOL    HW1 4281   3.458   7.478   4.411  1.8714  0.2917 -2.1801
 1237SOL    HW2 4282   3.568   7.377   4.385  2.1765 -0.2646  0.8498
 1238SOL     OW 4283   1.786   6.450   1.127  0.0206 -0.4220  0.2621
 1238SOL    HW1 4284   1.817   6.386   1.192 -0.3309 -1.0457 -0.1774
 1238SOL    HW2 4285   1.713   6.406   1.083  0.2841 -0.0194 -0.5852
 1239SOL     OW 4286   4.085   7.230   6.318  0.4244 -0.0424  0.5710
 1239SOL    HW1 4287   4.034   7.152   6.295 -0.7031  0.9841 -0.5771
 1239SOL    HW2 4288   4.020   7.294   6.345  1.0426  1.3381 -1.0146
 1240SOL     OW 4289   0.190   2.883   3.121 -0.5620 -0.1411 -0.3577
 1240SOL    HW1 4290   0.151   2.970   3.118 -1.5244 -0.5809 -1.9975
 1240SOL    HW2 4291   0.115   2.825   3.137  0.1460 -0.6542  1.3002
 1241SOL     OW 4292   0.444   5.167   5.626 -0.2795 -0.3411 -0.1563
 1241SOL    HW1 4293   0.397   5.145   5.546 -0.6746 -1.7753  0.4419
 1241SOL    HW2 4294   0.376   5.180   5.691  0.0396  0.8518 -0.0367
 1242SOL     OW 4295   6.477   6.445   1.042  0.0627  0.4388 -0.1592
 1242SOL    HW1 4296   6.463   6.378   0.976  0.8405 -0.9565  1.0302
 1242SOL    HW2 4297   6.419   6.421   1.115 -0.9968  2.1067 -0.4005
 1243SOL     OW 4298   3.082   0.593   1.034  0.1194 -0.0467 -0.2898
 1243SOL    HW1 4299   3.136   0.544   0.972 -0.6540 -1.0081 -0.2345
 1243SOL    HW2 4300   3.054   0.671   0.985 -2.0034 -1.6638 -1.8944
 1244SOL     OW 4301   4.426   0.997   1.893  0.3817 -0.0828 -0.0398
 1244SOL    HW1 4302   4.366   1.042   1.953  2.0094 -0.4862  2.0241
 1244SOL    HW2 4303   4.511   1.037   1.910  1.2675 -1.6644 -0.5559
 1245SOL     OW 4304   1.174   2.256   4.493  0.1403 -0.8219  0.5782
 1245SOL    HW1 4305   1.240   2.258   4.425  0.3668 -2.0668  0.7268
 1245SOL    HW2 4306   1.100   2.304   4.457  1.2246  0.9107  0.5498
 1246SOL     OW 4307   7.307   5.776   5.714 -0.0795  0.2435  0.0039
 1246SOL    HW1 4308   7.226   5.781   5.663 -0.2859 -0.1799  0.2818
 1246SOL    HW2 4309   7.338   5.866   5.720 -1.0508  0.5452  0.7198
 1247SOL     OW 4310   5.512   6.986   4.354  0.0669 -0.2165  0.4734
 1247SOL    HW1 4311   5.500   6.904   4.307  2.3286  0.4113 -1.4209
 1247SOL    HW2 4312   5.479   7.053   4.294  0.4503  0.4078  0.9426
 1248SOL     OW 4313   4.701   5.181   2.209  0.4601 -0.0357  0.1319
 1248SOL    HW1 4314   4.764   5.119   2.247  1.1968  0.6590  0.0558
 1248SOL    HW2 4315   4.664   5.134   2.134  0.5618 -0.6071  0.4306
 1249SOL     OW 4316   2.082   1.403   2.957  0.2487 -0.2106 -0.2465
 1249SOL    HW1 4317   2.054   1.479   2.905  0.7531 -0.6515 -1.1814
 1249SOL    HW2 4318   2.079   1.330   2.896  2.9344 -0.3820 -0.2673
 1250SOL     OW 4319   3.267   0.226   2.622 -0.5927  0.8116 -0.2840
 1250SOL    HW1 4320   3.330   0.272   2.678 -0.0126 -0.5913  0.2767
 1250SOL    HW2 4321   3.322   0.169   2.568 -1.2908  0.7650 -0.9562
 1251SOL     OW 4322   1.693   2.917   0.792  0.2234  0.8006 -0.1858
 1251SOL    HW1 4323   1.630   2.982   0.823  1.9353  2.8583 -0.7261
 1251SOL    HW2 4324   1.778   2.963   0.796  1.6207 -1.6379 -0.0125
 1252SOL     OW 4325   2.204   3.493   7.210 -0.7860 -0.6050 -0.1231
 1252SOL    HW1 4326   2.169   3.582   7.205 -0.1698 -0.4026 -0.9814
 1252SOL    HW2 4327   2.296   3.501   7.185  0.1602 -1.0211  2.7509
 1253SOL     OW 4328   2.630   6.604   1.477 -0.1357 -0.4607  0.2524
 1253SOL    HW1 4329   2.722   6.578   1.481 -0.2294 -0.7172  0.7207
 1253SOL    HW2 4330   2.602   6.579   1.389  0.5409  0.6222 -0.3091
 1254SOL     OW 4331   3.714   5.887   6.072  0.5265 -0.2566  0.5283
 1254SOL    HW1 4332   3.802   5.867   6.040  0.8036  0.7814  0.5887
 1254SOL    HW2 4333   3.666   5.917   5.995  0.2451 -0.7375  0.5120
 1255SOL     OW 4334   1.928   2.206   1.301  0.4707  0.2509 -0.2968
 1255SOL    HW1 4335   1.909   2.149   1.375  1.3083  1.2401  0.7339
 1255SOL    HW2 4336   1.845   2.249   1.281  0.3075  0.2320  0.3189
 1256SOL     OW 4337   5.282   1.671   7.271  0.3339 -0.0807 -0.0633
 1256SOL    HW1 4338   5.361   1.685   7.322  0.1273 -2.6247  1.1493
 1256SOL    HW2 4339   5.274   1.748   7.216  1.9706  1.6472  1.9538
 1257SOL     OW 4340   2.629   1.816   0.930  0.0428  0.6438  0.2250
 1257SOL    HW1 4341   2.613   1.870   0.853 -0.9456 -0.6063 -0.4731
 1257SOL    HW2 4342   2.702   1.759   0.905  1.1259  1.6262  0.9830
 1258SOL     OW 4343   5.628   1.076   3.439 -0.7811  0.4955 -0.4022
 1258SOL    HW1 4344   5.706   1.098   3.388  0.0638 -2.0363 -0.2982
 1258SOL    HW2 4345   5.654   1.087   3.530 -0.6111 -0.1074 -0.3751
 1259SOL     OW 4346   5.935   3.431   2.292 -0.3987  0.4751  0.2508
 1259SOL    HW1 4347   5.851   3.410   2.331  0.5553  0.0988  2.2123
 1259SOL    HW2 4348   5.914   3.489   2.219 -2.4289 -0.6812 -0.1348
 1260SOL     OW 4349   0.459   0.563   3.185 -0.2844 -0.4026 -0.0128
 1260SOL    HW1 4350   0.453   0.479   3.139  2.2851 -0.7185  0.0355
 1260SOL    HW2 4351   0.432   0.628   3.120 -0.1980 -1.1199 -0.7838
 1261SOL     OW 4352   6.268   0.468   2.397 -0.2128  0.3735  0.0773
 1261SOL    HW1 4353   6.205   0.528   2.437 -1.1210  0.4886 -1.4085
 1261SOL    HW2 4354   6.235   0.380   2.419 -2.6686  0.3359 -2.9625
 1262SOL     OW 4355   2.713   6.996   1.878 -0.2264 -0.9774  0.7880
 1262SOL    HW1 4356   2.619   7.004   1.858 -0.0457  0.2796  0.2996
 1262SOL    HW2 4357   2.717   6.947   1.960 -1.5274  1.9021  2.7192
 1263SOL     OW 4358   1.930   4.702   2.087  0.2104 -0.6783  0.0148
 1263SOL    HW1 4359   1.858   4.659   2.132  1.4962 -2.3002  0.6499
 1263SOL    HW2 4360   1.931   4.791   2.121 -0.8063 -0.9504  0.8046
 1264SOL     OW 4361   2.694   4.611   7.022  0.5428 -0.4222 -0.2095
 1264SOL    HW1 4362   2.762   4.656   7.072  0.6058 -0.2609 -0.4400
 1264SOL    HW2 4363   2.626   4.677   7.008  0.4601 -0.5079 -0.2122
 1265SOL     OW 4364   6.158   2.306   1.722 -0.1870  0.1522 -0.1106
 1265SOL    HW1 4365   6.127   2.368   1.656  1.1450  0.7517 -0.2128
 1265SOL    HW2 4366   6.118   2.223   1.698  1.0551  0.1110 -2.3120
 1266SOL     OW 4367   3.411   2.086   4.250  0.5493 -0.0674 -0.3331
 1266SOL    HW1 4368   3.478   2.107   4.315  0.3770  2.7668 -0.9173
 1266SOL    HW2 4369   3.367   2.009   4.284  0.9120  0.9049  2.5841
 1267SOL     OW 4370   2.201   1.492   5.328  0.1663 -0.3241  0.5656
 1267SOL    HW1 4371   2.288   1.488   5.369  1.1059  0.8652 -1.2048
 1267SOL    HW2 4372   2.169   1.401   5.332  1.8551 -0.9617  0.5110
 1268SOL     OW 4373   7.049   4.543   0.350  0.0057 -0.1443  0.2140
 1268SOL    HW1 4374   7.130   4.556   0.399 -0.7290  0.2903  1.3735
 1268SOL    HW2 4375   6.991   4.613   0.381  0.1502  1.4445 -2.8010
 1269SOL     OW 4376   2.619   3.988   5.715  0.1531 -0.0957 -0.0890
 1269SOL    HW1 4377   2.586   3.900   5.732 -0.9657  0.3541  0.1472
 1269SOL    HW2 4378   2.612   3.998   5.620 -0.0779 -0.1243 -0.0746
 1270SOL     OW 4379   3.355   2.899   4.633  0.3272  0.0091  0.0480
 1270SOL    HW1 4380   3.372   2.985   4.672  0.1196  0.5731 -1.0656
 1270SOL    HW2 4381   3.438   2.874   4.593  0.1523  0.0876 -0.3662
 1271SOL     OW 4382   5.808   5.034   3.253 -0.6938 -0.6365 -0.6692
 1271SOL    HW1 4383   5.737   5.023   3.189 -2.8225 -0.5607  1.5496
 1271SOL    HW2 4384   5.839   4.945   3.270 -2.2758 -1.0093  0.4484
 1272SOL     OW 4385   3.070   2.196   3.035  0.3169 -0.0066  0.3631
 1272SOL    HW1 4386   3.069   2.111   2.990 -0.3612  0.2652 -0.1541
 1272SOL    HW2 4387   3.051   2.260   2.967  0.1176  0.4961  0.8785
 1273SOL     OW 4388   0.288   1.792   5.704  0.1151 -0.4187 -0.0407
 1273SOL    HW1 4389   0.229   1.827   5.638  0.8106  0.8583 -0.0167
 1273SOL    HW2 4390   0.313   1.706   5.670 -1.0043 -0.5844 -0.4964
 1274SOL     OW 4391   0.922   3.791   4.925 -0.2436 -0.2029 -0.5494
 1274SOL    HW1 4392   1.016   3.781   4.908 -0.0411  1.3043 -0.4602
 1274SOL    HW2 4393   0.910   3.756   5.013  0.7440  1.8477  0.4773
 1275SOL     OW 4394   0.482   3.784   0.814 -0.3173  0.1741  0.1722
 1275SOL    HW1 4395   0.484   3.717   0.882  2.9859 -0.7205 -0.6302
 1275SOL    HW2 4396   0.470   3.735   0.732  1.0227  0.6272 -0.3203
 1276SOL     OW 4397   5.609   4.399   6.171  0.1406  0.6393  0.0741
 1276SOL    HW1 4398   5.539   4.453   6.132  0.6800  1.2059 -0.1166
 1276SOL    HW2 4399   5.680   4.403   6.107  0.9917  1.4632  1.0638
 1277SOL     OW 4400   5.947   6.634   4.530  0.2689  0.3937 -0.2697
 1277SOL    HW1 4401   5.964   6.718   4.487 -0.9539  0.8977  0.1911
 1277SOL    HW2 4402   5.931   6.657   4.621 -2.0108 -0.0856 -0.4916
 1278SOL     OW 4403   6.689   6.509   0.906 -0.6097 -0.1539  0.0010
 1278SOL    HW1 4404   6.680   6.591   0.858 -0.0277  0.8578  1.5403
 1278SOL    HW2 4405   6.612   6.506   0.963 -0.4930 -0.5634  0.1438
 1279SOL     OW 4406   6.801   6.260   6.416  0.0297 -0.4652  0.4117
 1279SOL    HW1 4407   6.838   6.321   6.353  1.0699  0.8250  2.1790
 1279SOL    HW2 4408   6.855   6.182   6.409 -0.4243 -0.6900 -0.8742
 1280SOL     OW 4409   4.381   2.731   4.742  0.3765 -0.4278 -0.0234
 1280SOL    HW1 4410   4.413   2.641   4.751 -1.7691 -1.4488 -1.5630
 1280SOL    HW2 4411   4.454   2.779   4.703  0.8547 -2.0814 -1.2888
 1281SOL     OW 4412   4.055   4.940   6.941  0.0418 -0.0867  0.4172
 1281SOL    HW1 4413   4.097   4.992   7.009 -1.0599  0.1888  0.9138
 1281SOL    HW2 4414   4.078   4.984   6.859 -0.8581  1.2005  0.8224
 1282SOL     OW 4415   2.023   1.943   5.244  0.1988  0.1828  0.1817
 1282SOL    HW1 4416   1.976   1.958   5.326  1.0746 -0.4392  0.8203
 1282SOL    HW2 4417   2.049   1.851   5.248  1.0332  0.3810 -0.3647
 1283SOL     OW 4418   0.420   1.021   2.801 -0.3658 -0.2102  0.1440
 1283SOL    HW1 4419   0.426   1.090   2.735  2.7903 -0.9151 -0.4261
 1283SOL    HW2 4420   0.356   0.959   2.765  0.7518 -0.2206 -1.9332
 1284SOL     OW 4421   6.513   0.190   4.521  0.1681 -0.1766  0.0201
 1284SOL    HW1 4422   6.585   0.214   4.463 -0.3529 -1.6645 -1.3135
 1284SOL    HW2 4423   6.529   0.098   4.543  0.6299  0.4438  2.7428
 1285SOL     OW 4424   2.490   3.227   5.348 -0.4472 -0.3305  0.5058
 1285SOL    HW1 4425   2.493   3.131   5.340 -1.0664 -0.2090 -2.4459
 1285SOL    HW2 4426   2.398   3.249   5.340 -0.1795  0.5728 -0.2882
 1286SOL     OW 4427   4.044   2.481   2.373  0.3554  0.1458  0.3182
 1286SOL    HW1 4428   4.105   2.424   2.421 -0.8814 -0.2882  1.4308
 1286SOL    HW2 4429   3.970   2.493   2.433 -0.8693  0.2865 -1.1609
 1287SOL     OW 4430   5.481   5.666   1.595 -0.1763 -0.9792  0.2972
 1287SOL    HW1 4431   5.533   5.693   1.519 -1.0468  0.1121  0.0689
 1287SOL    HW2 4432   5.530   5.699   1.671 -1.2083  1.4031  0.0302
 1288SOL     OW 4433   2.197   6.248   5.809 -0.3270  0.7324 -0.1981
 1288SOL    HW1 4434   2.244   6.273   5.889 -1.4049  1.5923  0.2046
 1288SOL    HW2 4435   2.265   6.233   5.744  0.5636  0.3235  0.8023
 1289SOL     OW 4436   2.536   4.157   5.952 -0.1074  0.0488 -0.0740
 1289SOL    HW1 4437   2.601   4.227   5.955  0.1932 -0.1825 -0.8178
 1289SOL    HW2 4438   2.556   4.109   5.871 -1.2617  0.0227 -0.3675
 1290SOL     OW 4439   0.607   0.771   6.167  0.2232 -1.0035  0.0490
 1290SOL    HW1 4440   0.576   0.773   6.077  0.9570 -1.1620 -0.2179
 1290SOL    HW2 4441   0.670   0.842   6.172 -0.2720 -0.5973  0.6165
 1291SOL     OW 4442   6.811   6.888   1.157 -0.0187  0.5983 -0.5472
 1291SOL    HW1 4443   6.887   6.934   1.192  0.2924 -0.4562  0.1977
 1291SOL    HW2 4444   6.790   6.822   1.224 -1.0300  0.2852 -1.1577
 1292SOL     OW 4445   6.602   6.409   4.992 -0.5756  0.4896 -0.5006
 1292SOL    HW1 4446   6.657   6.332   4.999 -1.1835  0.1088  0.2361
 1292SOL    HW2 4447   6.606   6.450   5.079  0.3815  1.7462 -1.0991
 1293SOL     OW 4448   3.083   7.118   5.291 -0.1872  0.3787 -0.5126
 1293SOL    HW1 4449   3.131   7.200   5.284 -1.3342  0.9512 -2.2938
 1293SOL    HW2 4450   3.022   7.119   5.217 -0.4559 -1.9385 -0.4058
 1294SOL     OW 4451   0.310   1.065   6.962  0.3599  0.4327 -0.1687
 1294SOL    HW1 4452   0.218   1.041   6.960  0.3891  0.2613  0.4079
 1294SOL    HW2 4453   0.310   1.160   6.976  0.2698  0.4003  0.0587
 1295SOL     OW 4454   0.191   1.474   5.788  0.0158 -0.3456  0.2358
 1295SOL    HW1 4455   0.246   1.479   5.710  0.7713 -0.0742  0.7803
 1295SOL    HW2 4456   0.229   1.537   5.849 -1.5154  0.6307  0.2462
 1296SOL     OW 4457   1.722   6.583   2.741  0.4455 -0.1159 -0.2962
 1296SOL    HW1 4458   1.627   6.597   2.738  0.7186  2.1201  0.1308
 1296SOL    HW2 4459   1.733   6.491   2.715 -1.9407 -0.9791  1.3851
 1297SOL     OW 4460   4.539   5.694   5.637  0.6018  0.2486 -0.0227
 1297SOL    HW1 4461   4.579   5.610   5.616 -0.0490 -0.1468  0.2962
 1297SOL    HW2 4462   4.516   5.688   5.729  0.9792  0.9642  0.1323
 1298SOL     OW 4463   1.520   0.239   6.762  0.0659 -0.4494 -0.1864
 1298SOL    HW1 4464   1.586   0.214   6.697  0.7502  0.7191  0.0396
 1298SOL    HW2 4465   1.438   0.244   6.712  0.6019  0.5255 -0.9835
 1299SOL     OW 4466   3.232   3.993   1.373  0.5943  0.5207 -0.3327
 1299SOL    HW1 4467   3.318   4.008   1.413  0.2156  1.2840  0.2301
 1299SOL    HW2 4468   3.242   4.023   1.283  0.9238  0.5853 -0.2778
 1300SOL     OW 4469   3.544   6.841   4.391 -0.2336 -0.3464 -0.0886
 1300SOL    HW1 4470   3.493   6.775   4.437  1.5472 -1.6668  0.0841
 1300SOL    HW2 4471   3.494   6.859   4.311 -0.2872 -2.7018 -0.6576
 1301SOL     OW 4472   0.122   4.046   3.710 -0.6248 -0.0603  0.1092
 1301SOL    HW1 4473   0.103   4.068   3.619 -4.1048  1.7753  1.1006
 1301SOL    HW2 4474   0.175   4.119   3.742  0.6563 -0.7393 -0.3968
 1302SOL     OW 4475   2.737   7.394   5.251 -0.2007  0.0967  0.3724
 1302SOL    HW1 4476   2.699   7.466   5.200  0.5982  0.1884 -0.1049
 1302SOL    HW2 4477   2.784   7.342   5.186  0.3567 -0.1051  0.9380
 1303SOL     OW 4478   5.582   2.519   2.009  0.4874 -0.0445  0.2398
 1303SOL    HW1 4479   5.649   2.554   1.951 -2.5577  3.4543 -1.5841
 1303SOL    HW2 4480   5.553   2.438   1.967  3.0379 -1.3627  0.8157
 1304SOL     OW 4481   6.761   2.391   6.349  0.1656  0.4345  0.1410
 1304SOL    HW1 4482   6.836   2.345   6.311 -0.4478  0.2800 -0.9285
 1304SOL    HW2 4483   6.778   2.484   6.332  0.5925  0.4719  0.7848
 1305SOL     OW 4484   5.470   6.543   3.714 -0.6109 -0.0675  0.2773
 1305SOL    HW1 4485   5.478   6.459   3.759 -1.7424  0.5909  1.7567
 1305SOL    HW2 4486   5.410   6.525   3.641  0.7537 -0.9914 -0.6747
 1306SOL     OW 4487   5.316   0.117   1.310 -0.4559 -0.0635  0.0690
 1306SOL    HW1 4488   5.232   0.077   1.288 -0.2459  0.1373 -1.1828
 1306SOL    HW2 4489   5.308   0.208   1.281  0.0088  0.0951  0.4227
 1307SOL     OW 4490   1.236   1.123   6.109  0.6496 -0.3092 -0.2939
 1307SOL    HW1 4491   1.310   1.174   6.074  0.6185 -1.1317 -1.6221
 1307SOL    HW2 4492   1.173   1.189   6.137  1.0748  0.4023 -0.9613
 1308SOL     OW 4493   7.000   5.802   2.075  0.1435  0.7325 -0.0912
 1308SOL    HW1 4494   6.946   5.878   2.051 -0.2047  0.5618  0.1499
 1308SOL    HW2 4495   6.983   5.739   2.005  0.5592  0.9342 -0.3799
 1309SOL     OW 4496   3.595   4.629   4.140  0.1373  0.0482  0.0149
 1309SOL    HW1 4497   3.505   4.604   4.117  0.2554 -1.3164  0.8903
 1309SOL    HW2 4498   3.591   4.724   4.151 -0.9217  0.1597 -1.0983
 1310SOL     OW 4499   3.077   5.638   0.321  0.1155  0.3087 -0.0292
 1310SOL    HW1 4500   3.088   5.679   0.406 -1.0939 -0.8018  0.6969
 1310SOL    HW2 4501   3.134   5.561   0.324  0.0526  0.2538 -0.2152
 1311SOL     OW 4502   4.261   2.456   3.965 -0.2477 -0.0339  0.1017
 1311SOL    HW1 4503   4.296   2.375   4.001  0.5207  0.2920  0.1269
 1311SOL    HW2 4504   4.278   2.522   4.033 -1.8677 -0.0402  0.5571
 1312SOL     OW 4505   3.296   2.662   6.147  0.8585  0.5132  0.1916
 1312SOL    HW1 4506   3.285   2.742   6.095  0.0235  0.5666  0.4393
 1312SOL    HW2 4507   3.390   2.654   6.159  0.9347  1.5841  0.3542
 1313SOL     OW 4508   1.357   6.172   1.399 -0.5061  0.4527  0.1447
 1313SOL    HW1 4509   1.372   6.265   1.415 -0.9190  0.7619 -1.1670
 1313SOL    HW2 4510   1.401   6.154   1.316 -0.6082 -0.4821  0.2816
 1314SOL     OW 4511   0.067   4.468   6.886 -0.1884 -0.0645  0.5270
 1314SOL    HW1 4512  -0.003   4.449   6.949 -0.2238  0.4212  0.6413
 1314SOL    HW2 4513   0.029   4.447   6.801 -1.2704  2.2127  0.3654
 1315SOL     OW 4514   7.355   2.973   2.855 -0.3402 -0.3375 -0.2152
 1315SOL    HW1 4515   7.300   3.048   2.877 -0.0467 -0.2938  0.4051
 1315SOL    HW2 4516   7.298   2.915   2.805 -1.0915 -0.5002  0.7938
 1316SOL     OW 4517   3.168   5.407   1.327 -0.6194 -0.3368  0.3459
 1316SOL    HW1 4518   3.247   5.398   1.274 -0.3897  1.0609  0.3964
 1316SOL    HW2 4519   3.143   5.318   1.349  0.1857 -0.8694 -0.7825
 1317SOL     OW 4520   4.209   2.705   0.049  0.3492  0.3484  1.3269
 1317SOL    HW1 4521   4.177   2.720   0.138  1.3104 -0.6953  1.8804
 1317SOL    HW2 4522   4.238   2.614   0.049 -0.0267  0.1971 -0.1910
 1318SOL     OW 4523   4.608   6.337   4.751  0.1264  0.1098  0.5157
 1318SOL    HW1 4524   4.651   6.421   4.760  0.9026 -0.1132 -0.9195
 1318SOL    HW2 4525   4.522   6.357   4.714 -0.0660  0.3385  1.0756
 1319SOL     OW 4526   6.973   6.334   1.820 -0.2017 -0.2255  0.2180
 1319SOL    HW1 4527   7.036   6.400   1.794 -0.4365  0.2414  0.8093
 1319SOL    HW2 4528   7.024   6.270   1.870 -0.2709  0.4232  1.1515
 1320SOL     OW 4529   3.236   2.104   4.016  0.5910 -0.2757 -0.1465
 1320SOL    HW1 4530   3.264   2.126   4.105 -0.1426  0.6194 -0.1154
 1320SOL    HW2 4531   3.318   2.092   3.968  1.1875  3.5431 -0.3838
 1321SOL     OW 4532   4.183   4.325   7.334  0.0876  0.3336 -0.1036
 1321SOL    HW1 4533   4.252   4.392   7.325 -1.5021  1.8456 -2.0316
 1321SOL    HW2 4534   4.111   4.372   7.376  0.7074 -1.7175  3.7109
 1322SOL     OW 4535   7.109   3.305   0.620 -0.6731  0.0856  0.1481
 1322SOL    HW1 4536   7.185   3.353   0.588 -0.8881  0.0625 -0.4113
 1322SOL    HW2 4537   7.115   3.219   0.578 -0.7000 -0.1166  0.5488
 1323SOL     OW 4538   1.515   2.560   5.230  0.0302  0.1759  0.1081
 1323SOL    HW1 4539   1.602   2.544   5.266 -0.4541 -1.0025  0.7877
 1323SOL    HW2 4540   1.502   2.654   5.242  0.6048  0.1162  1.3814
 1324SOL     OW 4541   1.922   1.626   3.759 -0.1539  0.0500 -0.0627
 1324SOL    HW1 4542   1.849   1.622   3.697 -0.3259 -0.0842  0.1477
 1324SOL    HW2 4543   1.883   1.604   3.844 -0.1009  1.0798  0.2484
 1325SOL     OW 4544   6.103   5.497   0.262  0.7813 -0.2187  0.1467
 1325SOL    HW1 4545   6.105   5.434   0.334 -0.9511 -1.2671 -0.6773
 1325SOL    HW2 4546   6.130   5.447   0.185  0.1529  0.2423 -0.3818
 1326SOL     OW 4547   5.936   3.529   0.056 -0.1225 -0.0872  0.0802
 1326SOL    HW1 4548   5.859   3.578   0.083  0.0030  0.0049  0.2739
 1326SOL    HW2 4549   5.981   3.507   0.138  0.3574  0.3565 -0.0547
 1327SOL     OW 4550   5.107   0.901   0.180 -0.2941  0.2883 -0.1429
 1327SOL    HW1 4551   5.099   0.854   0.097 -2.6903 -0.5573  0.4847
 1327SOL    HW2 4552   5.130   0.990   0.155 -0.2337 -0.1313 -1.6698
 1328SOL     OW 4553   0.785   2.662   2.969 -0.4688 -0.0992 -0.1495
 1328SOL    HW1 4554   0.794   2.606   3.046  0.0919  0.3393  0.1054
 1328SOL    HW2 4555   0.875   2.681   2.942 -0.6023 -1.7490 -2.0284
 1329SOL     OW 4556   2.796   2.166   1.591  0.4781 -0.4399 -0.2032
 1329SOL    HW1 4557   2.877   2.190   1.637  0.3648 -2.0074  0.9036
 1329SOL    HW2 4558   2.741   2.127   1.659 -1.0395  0.1632 -1.0347
 1330SOL     OW 4559   2.572   5.259   6.687  0.2022 -1.2996 -0.3298
 1330SOL    HW1 4560   2.653   5.250   6.637  0.9679  0.6020  0.4477
 1330SOL    HW2 4561   2.582   5.342   6.734 -1.8394 -1.4394  0.4746
 1331SOL     OW 4562   3.594   4.360   2.282  0.2255  0.9501  0.2465
 1331SOL    HW1 4563   3.542   4.318   2.213  0.4182  0.2967  0.4961
 1331SOL    HW2 4564   3.561   4.322   2.364 -2.1306  3.8657  0.8492
 1332SOL     OW 4565   1.211   0.515   6.236  0.2907 -0.1330 -0.0311
 1332SOL    HW1 4566   1.195   0.521   6.142 -0.2536 -1.7345 -0.0742
 1332SOL    HW2 4567   1.306   0.504   6.244  0.4256  0.7491 -0.3315
 1333SOL     OW 4568   3.931   1.184   6.358 -0.8032  0.1942 -0.2349
 1333SOL    HW1 4569   3.966   1.097   6.340 -0.4428 -0.4688  3.0029
 1333SOL    HW2 4570   3.997   1.226   6.413 -1.5534  2.0257 -0.6523
 1334SOL     OW 4571   5.253   0.482   2.845  0.2462  0.3114 -0.8000
 1334SOL    HW1 4572   5.270   0.576   2.848 -0.7596  0.7330 -4.1821
 1334SOL    HW2 4573   5.322   0.447   2.788 -0.7082 -0.5762 -1.4625
 1335SOL     OW 4574   3.907   1.245   5.798  0.5188 -0.0783 -0.1013
 1335SOL    HW1 4575   3.953   1.228   5.880  0.9888 -0.9806 -0.5394
 1335SOL    HW2 4576   3.815   1.223   5.816  0.8500 -1.6670 -0.1986
 1336SOL     OW 4577   3.585   2.073   6.295 -0.0891 -0.1753 -0.4506
 1336SOL    HW1 4578   3.674   2.107   6.304 -0.4865  0.8499 -0.2827
 1336SOL    HW2 4579   3.577   2.007   6.364 -0.2037  1.3614  1.0669
 1337SOL     OW 4580   6.493   4.290   0.031 -0.3469  0.0533 -0.0294
 1337SOL    HW1 4581   6.518   4.243  -0.049  1.1760 -0.0243  0.4500
 1337SOL    HW2 4582   6.423   4.236   0.069 -0.1739 -0.6244 -0.6389
 1338SOL     OW 4583   1.375   6.470   5.184 -0.3711  0.2821 -0.0307
 1338SOL    HW1 4584   1.292   6.450   5.228  0.3248 -0.6622  0.9117
 1338SOL    HW2 4585   1.377   6.411   5.109 -0.1889 -0.3091  0.4256
 1339SOL     OW 4586   3.102   3.854   4.466  0.0180  0.4112 -0.2648
 1339SOL    HW1 4587   3.146   3.795   4.527 -0.4002  1.4772  1.1285
 1339SOL    HW2 4588   3.172   3.909   4.431  0.0252  1.1820  0.8934
 1340SOL     OW 4589   4.810   1.386   1.195 -0.7801 -0.0600 -0.1568
 1340SOL    HW1 4590   4.789   1.303   1.153  0.9976  0.4102 -2.0930
 1340SOL    HW2 4591   4.849   1.439   1.126  0.6217  1.4205  1.6790
 1341SOL     OW 4592   7.120   1.501   6.177  0.6996 -0.0529 -0.1486
 1341SOL    HW1 4593   7.171   1.472   6.252 -0.1196  1.1080  0.8905
 1341SOL    HW2 4594   7.162   1.584   6.151  0.1422  0.2418 -0.1105
 1342SOL     OW 4595   0.494   5.609   0.880  0.4072 -0.2907  0.4074
 1342SOL    HW1 4596   0.434   5.621   0.807 -0.6727 -0.3671  1.2641
 1342SOL    HW2 4597   0.472   5.523   0.916  0.6482 -0.0822  1.0716
 1343SOL     OW 4598   0.239   6.283   6.076 -0.6054  0.3040 -0.3191
 1343SOL    HW1 4599   0.229   6.247   6.164 -2.4855 -0.5591 -0.8295
 1343SOL    HW2 4600   0.265   6.374   6.090  0.4707 -0.1790  1.0714
 1344SOL     OW 4601   3.242   5.635   1.448  0.7216 -0.1761 -0.2300
 1344SOL    HW1 4602   3.209   5.551   1.415 -0.7001  0.6669 -1.0406
 1344SOL    HW2 4603   3.173   5.667   1.505  0.9346  0.7706 -0.4909
 1345SOL     OW 4604   1.667   2.143   3.689  0.3134  0.6791  0.3230
 1345SOL    HW1 4605   1.646   2.126   3.781 -0.1238 -1.3643 -0.1051
 1345SOL    HW2 4606   1.629   2.069   3.641 -0.7391  2.4177 -1.6901
 1346SOL     OW 4607   6.289   1.796   5.592  0.0377 -1.0115 -0.5618
 1346SOL    HW1 4608   6.221   1.829   5.651  2.5105  0.7942  1.5155
 1346SOL    HW2 4609   6.312   1.710   5.628 -0.1586 -1.0128 -0.4359
 1347SOL     OW 4610   0.743   6.674   3.353  0.0222 -0.2212 -0.5605
 1347SOL    HW1 4611   0.668   6.642   3.402 -0.4110 -1.7856 -2.1514
 1347SOL    HW2 4612   0.806   6.702   3.420 -0.6597 -1.9518  0.8686
 1348SOL     OW 4613   2.159   0.948   0.942  0.6567  0.0848 -0.5470
 1348SOL    HW1 4614   2.085   0.949   0.882  1.2829  0.1215 -1.3289
 1348SOL    HW2 4615   2.188   0.857   0.943  1.4487  0.3167 -1.3116
 1349SOL     OW 4616   3.470   3.601   6.412  0.0623  0.1648  0.3933
 1349SOL    HW1 4617   3.420   3.656   6.473 -2.4777 -1.2313 -0.3446
 1349SOL    HW2 4618   3.461   3.513   6.447  0.5672 -0.3402 -0.7378
 1350SOL     OW 4619   6.149   4.423   6.765  0.0131  0.7530 -1.0017
 1350SOL    HW1 4620   6.137   4.340   6.720  0.1701  0.6394 -0.8361
 1350SOL    HW2 4621   6.094   4.417   6.843  1.5609 -0.0269  0.0995
 1351SOL     OW 4622   1.763   1.181   7.307 -0.0280 -0.0575 -0.4623
 1351SOL    HW1 4623   1.823   1.152   7.238 -1.5026 -1.4169 -1.2449
 1351SOL    HW2 4624   1.816   1.178   7.387  1.1704 -0.3720 -1.2355
 1352SOL     OW 4625   0.198   3.876   5.418 -0.0534 -0.6831  0.6392
 1352SOL    HW1 4626   0.171   3.886   5.327 -0.7910 -0.3482  0.8802
 1352SOL    HW2 4627   0.194   3.782   5.435 -0.6204 -0.6813  0.5249
 1353SOL     OW 4628   5.973   1.240   0.247  0.2688  0.5637  0.2887
 1353SOL    HW1 4629   5.968   1.327   0.209 -1.7430  0.0509 -0.7214
 1353SOL    HW2 4630   5.959   1.254   0.341  2.0295  1.4846  0.4680
 1354SOL     OW 4631   0.808   1.305   5.606  0.6617 -0.3795 -0.2019
 1354SOL    HW1 4632   0.874   1.314   5.675 -0.5895  1.6662  0.8171
 1354SOL    HW2 4633   0.741   1.249   5.644  0.0610  0.5986  0.2351
 1355SOL     OW 4634   2.793   2.536   3.838 -0.1558 -0.7017  0.0862
 1355SOL    HW1 4635   2.765   2.510   3.750 -0.5499  0.6368 -0.2016
 1355SOL    HW2 4636   2.844   2.461   3.869 -0.4094 -1.3984 -1.0835
 1356SOL     OW 4637   7.373   0.445   1.940  0.0080  0.2056 -0.3294
 1356SOL    HW1 4638   7.329   0.473   1.860 -1.9066 -1.8737 -0.1043
 1356SOL    HW2 4639   7.415   0.362   1.917  1.7095  0.8763  0.1791
 1357SOL     OW 4640   6.954   1.400   2.853  0.2243 -0.7242  0.0355
 1357SOL    HW1 4641   6.925   1.490   2.866  0.5120 -0.1978 -2.4529
 1357SOL    HW2 4642   6.874   1.350   2.840  0.1635 -0.2442 -1.5719
 1358SOL     OW 4643   3.495   0.305   4.767  0.0625 -0.3136  0.6575
 1358SOL    HW1 4644   3.437   0.357   4.711 -0.3797 -0.4652  0.9645
 1358SOL    HW2 4645   3.548   0.370   4.813 -0.4378 -0.1262  0.9854
 1359SOL     OW 4646   1.946   6.635   6.140  0.2300 -0.1614 -0.4810
 1359SOL    HW1 4647   2.011   6.638   6.070 -0.4883 -0.6058 -1.1778
 1359SOL    HW2 4648   1.929   6.542   6.154  0.8398 -0.1065  0.7452
 1360SOL     OW 4649   1.540   2.706   1.310 -0.3217  0.3358  0.3623
 1360SOL    HW1 4650   1.545   2.797   1.281 -0.3451  0.5574  1.0384
 1360SOL    HW2 4651   1.481   2.664   1.247 -1.4964  1.1360  0.8959
 1361SOL     OW 4652   0.087   6.941   1.663  0.4123  0.2574 -0.1181
 1361SOL    HW1 4653   0.105   7.016   1.719 -0.2469  0.9187 -0.7829
 1361SOL    HW2 4654   0.167   6.930   1.611  0.8412 -0.0604  0.5850
 1362SOL     OW 4655   5.881   0.656   2.428 -0.4384 -0.3494 -0.8832
 1362SOL    HW1 4656   5.879   0.672   2.523 -0.8155  1.5992 -1.1880
 1362SOL    HW2 4657   5.788   0.653   2.403 -0.3449  0.6844 -1.4051
 1363SOL     OW 4658   5.287   6.237   4.732 -0.2769  0.2841 -0.9665
 1363SOL    HW1 4659   5.292   6.142   4.726 -0.2180  0.1192  1.0061
 1363SOL    HW2 4660   5.376   6.267   4.716  0.5844 -0.3197  2.0992
 1364SOL     OW 4661   6.340   3.321   4.789 -0.4117 -0.2604  0.0235
 1364SOL    HW1 4662   6.412   3.258   4.797 -0.5279 -0.6638 -1.6506
 1364SOL    HW2 4663   6.260   3.268   4.798 -0.5588  0.2245  2.1440
 1365SOL     OW 4664   7.046   4.034   4.787  0.3965 -0.0208 -0.4979
 1365SOL    HW1 4665   7.135   4.063   4.807  0.3242 -0.3582  0.3918
 1365SOL    HW2 4666   6.990   4.107   4.814  0.4251  0.3463 -1.4221
 1366SOL     OW 4667   1.552   7.172   0.397  0.0504  0.0429  0.8991
 1366SOL    HW1 4668   1.640   7.137   0.388  0.4344  1.4639 -1.6851
 1366SOL    HW2 4669   1.564   7.264   0.419 -0.7507  0.3017  0.3381
 1367SOL     OW 4670   0.370   6.115   7.080  0.4842 -0.7821  0.0328
 1367SOL    HW1 4671   0.302   6.051   7.065  0.2143 -0.2556 -1.0939
 1367SOL    HW2 4672   0.425   6.111   7.002  1.0227 -0.3249  0.3771
 1368SOL     OW 4673   7.177   4.682   0.080 -0.5808  0.4295  0.3053
 1368SOL    HW1 4674   7.118   4.645   0.145 -2.7624  1.1978 -1.1404
 1368SOL    HW2 4675   7.241   4.731   0.131 -1.9960  0.7083  1.8897
 1369SOL     OW 4676   5.799   2.500   5.382  0.6115 -0.0515  0.4763
 1369SOL    HW1 4677   5.892   2.494   5.404  0.5418  0.7899  1.0380
 1369SOL    HW2 4678   5.774   2.589   5.407 -0.7368 -0.7863  1.8599
 1370SOL     OW 4679   2.983   6.335   5.904  0.1762  0.2655  0.1987
 1370SOL    HW1 4680   3.023   6.256   5.868 -1.8938 -0.2062 -1.2505
 1370SOL    HW2 4681   2.979   6.395   5.829  0.1613  1.1152  0.8655
 1371SOL     OW 4682   2.917   2.553   6.426 -0.3482 -0.3533  0.6245
 1371SOL    HW1 4683   2.870   2.471   6.412 -0.9756  0.2984 -1.3779
 1371SOL    HW2 4684   2.856   2.608   6.476 -1.4605  0.1962 -1.2587
 1372SOL     OW 4685   3.319   5.312   0.848  0.6668 -0.5352  0.0455
 1372SOL    HW1 4686   3.295   5.381   0.910  3.1629 -0.9976  1.6548
 1372SOL    HW2 4687   3.400   5.343   0.808  0.3843 -1.3626 -1.2237
 1373SOL     OW 4688   7.147   6.936   6.083 -0.6628 -0.2266  0.3055
 1373SOL    HW1 4689   7.228   6.899   6.049 -0.3006  1.7544 -1.1888
 1373SOL    HW2 4690   7.147   6.914   6.176  1.6464 -0.2064  0.3596
 1374SOL     OW 4691   1.656   3.179   4.010 -0.3258 -0.1087 -0.1903
 1374SOL    HW1 4692   1.628   3.260   4.054 -0.8747  0.4424 -1.4860
 1374SOL    HW2 4693   1.737   3.203   3.964  1.9488 -1.4556  2.7854
 1375SOL     OW 4694   0.305   4.180   2.202  0.6894  0.6774  0.1460
 1375SOL    HW1 4695   0.267   4.260   2.237 -0.1509  0.3545 -0.0181
 1375SOL    HW2 4696   0.230   4.128   2.173  1.0224 -1.1083  2.2086
 1376SOL     OW 4697   2.357   3.443   3.763  0.3980 -0.0169 -0.3053
 1376SOL    HW1 4698   2.340   3.468   3.854 -0.4937 -0.3973 -0.3546
 1376SOL    HW2 4699   2.450   3.459   3.751  0.7871 -1.0512  1.0182
 1377SOL     OW 4700   3.025   5.704   3.007  0.0338 -0.4759  0.1843
 1377SOL    HW1 4701   3.073   5.639   3.059 -0.5408 -0.3961  0.8212
 1377SOL    HW2 4702   3.090   5.773   2.990  0.7304 -1.3388 -0.7444
 1378SOL     OW 4703   0.495   7.404   3.288 -0.0834 -0.0205 -0.2351
 1378SOL    HW1 4704   0.430   7.431   3.353 -0.0079 -1.1664  0.3340
 1378SOL    HW2 4705   0.452   7.419   3.204  0.1314  2.3299 -0.0112
 1379SOL     OW 4706   5.205   6.493   4.035  0.4370 -0.3368 -0.4727
 1379SOL    HW1 4707   5.253   6.575   4.025 -2.8288  1.6984 -1.1238
 1379SOL    HW2 4708   5.142   6.493   3.963 -0.6512 -2.7180  0.3731
 1380SOL     OW 4709   2.095   6.141   4.905  0.5641  0.3335 -0.1495
 1380SOL    HW1 4710   2.189   6.125   4.896  0.4722  0.0091 -0.5694
 1380SOL    HW2 4711   2.076   6.207   4.839  0.5481  0.6267  0.1430
 1381SOL     OW 4712   6.723   0.968   4.218  0.0472  0.4534  0.1631
 1381SOL    HW1 4713   6.781   1.003   4.150 -1.2545  0.7543 -0.8464
 1381SOL    HW2 4714   6.764   0.887   4.246  0.0418 -0.3114 -1.8690
 1382SOL     OW 4715   1.359   1.960   3.974 -0.0036 -0.1793 -0.5103
 1382SOL    HW1 4716   1.418   2.025   3.936 -0.1102  0.0690 -0.2513
 1382SOL    HW2 4717   1.346   1.896   3.904 -1.2987  0.9771 -1.3807
 1383SOL     OW 4718   3.540   0.170   7.207  0.3923 -0.0255 -0.1360
 1383SOL    HW1 4719   3.570   0.112   7.137 -1.0404 -0.8850 -0.0752
 1383SOL    HW2 4720   3.449   0.145   7.222 -0.9769  3.4504 -1.4247
 1384SOL     OW 4721   6.149   3.389   6.907 -0.8084 -0.0360 -0.0119
 1384SOL    HW1 4722   6.159   3.444   6.829 -0.2246 -1.2685 -0.8381
 1384SOL    HW2 4723   6.228   3.405   6.958 -1.0383  0.5262  0.1727
 1385SOL     OW 4724   7.141   5.619   6.452 -0.0250  0.1526 -0.0963
 1385SOL    HW1 4725   7.060   5.588   6.412  1.4282 -0.3223 -2.9589
 1385SOL    HW2 4726   7.209   5.597   6.388  2.1555  1.9676  1.4369
 1386SOL     OW 4727   2.359   1.944   5.395 -0.1832  0.4682 -0.0425
 1386SOL    HW1 4728   2.304   2.019   5.418 -1.3294  0.1493 -1.6035
 1386SOL    HW2 4729   2.315   1.869   5.436 -0.0717  0.4087 -0.0316
 1387SOL     OW 4730   5.870   0.516   5.713 -0.0353 -0.6381 -0.3513
 1387SOL    HW1 4731   5.781   0.531   5.745 -1.1130 -0.2144 -3.2962
 1387SOL    HW2 4732   5.859   0.476   5.627  2.6934 -2.5790  0.0646
 1388SOL     OW 4733   4.963   7.099   3.348 -0.1491 -0.1989 -0.6305
 1388SOL    HW1 4734   5.047   7.100   3.394  0.0772 -0.9377 -1.0149
 1388SOL    HW2 4735   4.951   7.190   3.320  0.0930  0.0938  0.1879
 1389SOL     OW 4736   2.430   4.652   0.047 -0.5226  0.2031  0.0910
 1389SOL    HW1 4737   2.426   4.556   0.047 -3.0898  0.2328 -0.2832
 1389SOL    HW2 4738   2.342   4.679   0.075 -0.4042  2.4401 -1.4466
 1390SOL     OW 4739   7.196   4.441   2.426 -0.3692  0.6216 -0.1419
 1390SOL    HW1 4740   7.224   4.532   2.413 -1.6094  0.7914 -2.0845
 1390SOL    HW2 4741   7.109   4.437   2.386 -0.2430 -1.4791 -0.3107
 1391SOL     OW 4742   4.846   0.970   5.680 -0.0463 -0.2349  1.0483
 1391SOL    HW1 4743   4.805   1.029   5.617 -1.1612 -0.0452  1.9143
 1391SOL    HW2 4744   4.905   0.916   5.628 -0.9017 -0.0548 -0.1464
 1392SOL     OW 4745   1.830   6.694   7.410  0.3885 -0.3096  0.2973
 1392SOL    HW1 4746   1.922   6.681   7.390  0.4400 -0.2713  0.5140
 1392SOL    HW2 4747   1.820   6.789   7.415  0.3564 -0.3164  0.3660
 1393SOL     OW 4748   0.080   5.761   3.713 -0.3920 -0.1130  0.4474
 1393SOL    HW1 4749   0.163   5.800   3.741 -1.0010  0.1484  1.9303
 1393SOL    HW2 4750   0.082   5.770   3.617  0.4575  1.6027  0.5727
 1394SOL     OW 4751   6.993   6.334   2.660 -0.2406 -0.9604  0.0757
 1394SOL    HW1 4752   6.905   6.316   2.691  0.5116 -0.7131  2.5698
 1394SOL    HW2 4753   7.027   6.249   2.631 -0.9212 -1.2447  0.1056
 1395SOL     OW 4754   6.099   0.630   3.609  0.2146  0.1013  0.6950
 1395SOL    HW1 4755   6.185   0.672   3.606 -0.3117  1.1782 -0.2096
 1395SOL    HW2 4756   6.088   0.605   3.701  1.7508 -0.6532  0.7138
 1396SOL     OW 4757   3.947   6.167   1.755  0.4078  0.3746 -0.2996
 1396SOL    HW1 4758   4.033   6.130   1.736  0.2665 -0.5084  0.6314
 1396SOL    HW2 4759   3.924   6.130   1.840  0.3550  2.8831  0.8422
 1397SOL     OW 4760   4.943   5.452   4.934  0.4192 -0.0257 -0.4657
 1397SOL    HW1 4761   4.882   5.387   4.899  0.8098 -0.8475  0.3490
 1397SOL    HW2 4762   4.887   5.518   4.975  0.0496 -0.3319 -0.4681
 1398SOL     OW 4763   2.710   6.562   3.546  0.3265  0.7982 -0.1480
 1398SOL    HW1 4764   2.778   6.592   3.607  1.1992  1.1938 -1.2860
 1398SOL    HW2 4765   2.711   6.627   3.476 -1.5676  1.0770  0.0189
 1399SOL     OW 4766   3.551   4.494   1.078 -0.4643  0.0105  0.5560
 1399SOL    HW1 4767   3.641   4.481   1.107  0.4548  1.4399 -1.4402
 1399SOL    HW2 4768   3.500   4.430   1.128  1.4659 -0.0551  2.5614
 1400SOL     OW 4769   3.364   0.436   2.338  0.0627 -0.0636 -0.1446
 1400SOL    HW1 4770   3.454   0.465   2.321  0.4291  0.7066  2.6458
 1400SOL    HW2 4771   3.310   0.503   2.297  0.8731  1.9158  1.7934
 1401SOL     OW 4772   2.415   5.769   3.098  0.6544  0.6786  0.4018
 1401SOL    HW1 4773   2.400   5.752   3.005 -2.0082 -0.8880  1.0028
 1401SOL    HW2 4774   2.504   5.736   3.114  1.1818  1.0317 -1.5678
 1402SOL     OW 4775   0.629   5.377   4.460  0.2570 -0.5278 -0.2542
 1402SOL    HW1 4776   0.583   5.298   4.489  1.0563 -0.6210  0.8170
 1402SOL    HW2 4777   0.590   5.448   4.511 -0.0892 -0.2977 -0.8262
 1403SOL     OW 4778   3.691   5.856   0.210  0.6362  0.1218  0.4138
 1403SOL    HW1 4779   3.609   5.898   0.237 -0.8454 -0.9707 -2.0856
 1403SOL    HW2 4780   3.672   5.762   0.213  1.8049 -0.1520 -0.2410
 1404SOL     OW 4781   3.340   5.582   1.003 -0.0333 -0.4235 -0.7835
 1404SOL    HW1 4782   3.304   5.597   0.916  1.1443 -0.5684 -1.3174
 1404SOL    HW2 4783   3.372   5.668   1.031 -0.7764 -0.2978 -0.3229
 1405SOL     OW 4784   3.100   3.961   0.645  0.2499 -0.0170  0.0977
 1405SOL    HW1 4785   3.137   4.045   0.621 -0.3785 -0.1324 -1.3981
 1405SOL    HW2 4786   3.005   3.973   0.638  0.1483 -1.4522 -2.6334
 1406SOL     OW 4787   4.407   5.873   2.058 -0.0685 -0.3613 -0.1092
 1406SOL    HW1 4788   4.357   5.804   2.103  0.8288 -1.4781 -0.7680
 1406SOL    HW2 4789   4.369   5.955   2.090 -0.1963 -1.1235  1.8400
 1407SOL     OW 4790   2.011   0.166   3.758  0.1677  0.1723  0.0021
 1407SOL    HW1 4791   2.011   0.252   3.800  1.1503 -0.0225  0.4151
 1407SOL    HW2 4792   2.055   0.180   3.674 -0.2109  0.1934 -0.1948
 1408SOL     OW 4793   6.791   5.778   1.699 -0.4222 -0.3876 -0.2760
 1408SOL    HW1 4794   6.707   5.737   1.682 -0.6816 -0.1394  0.3704
 1408SOL    HW2 4795   6.826   5.800   1.613 -1.2439 -0.0368 -0.5225
 1409SOL     OW 4796   3.183   3.143   7.212  0.0545 -0.3861  0.0999
 1409SOL    HW1 4797   3.269   3.116   7.244  0.6285  0.9247 -0.2861
 1409SOL    HW2 4798   3.194   3.148   7.117 -0.6975 -1.0152 -0.0316
 1410SOL     OW 4799   3.267   2.586   5.082 -0.1293  0.0938  0.3502
 1410SOL    HW1 4800   3.305   2.581   4.995  1.3841 -1.1196  1.0386
 1410SOL    HW2 4801   3.325   2.643   5.131 -0.6367  0.2912  0.7367
 1411SOL     OW 4802   3.352   0.509   7.382  0.4847  0.0590 -0.2154
 1411SOL    HW1 4803   3.363   0.544   7.471  0.6501  2.3187 -1.0517
 1411SOL    HW2 4804   3.262   0.530   7.359  0.7979  0.6075 -0.9996
 1412SOL     OW 4805   2.669   3.840   7.283  0.1764 -0.0539 -0.1100
 1412SOL    HW1 4806   2.610   3.783   7.331 -0.9556 -2.0919 -3.5598
 1412SOL    HW2 4807   2.615   3.916   7.259  0.1571 -0.0106  0.0669
 1413SOL     OW 4808   4.827   5.963   1.875 -0.0858 -0.3473 -0.1065
 1413SOL    HW1 4809   4.740   5.998   1.897  0.1200 -0.3599  0.7482
 1413SOL    HW2 4810   4.813   5.868   1.867  0.2225 -0.6003  2.0089
 1414SOL     OW 4811   2.511   4.264   4.227 -0.0546  0.8560  0.8263
 1414SOL    HW1 4812   2.598   4.282   4.264 -0.2486  1.0612  1.1847
 1414SOL    HW2 4813   2.451   4.280   4.299 -0.2931 -0.5695  0.9595
 1415SOL     OW 4814   4.865   1.803   3.829  1.3232 -0.1328 -0.2488
 1415SOL    HW1 4815   4.858   1.804   3.924 -0.2606 -0.5735 -0.3313
 1415SOL    HW2 4816   4.865   1.710   3.806  0.1719 -0.0194 -0.7523
 1416SOL     OW 4817   3.386   5.919   4.326 -0.3452 -0.0707 -0.1647
 1416SOL    HW1 4818   3.320   5.956   4.269  0.1292 -0.5699 -1.0687
 1416SOL    HW2 4819   3.397   5.983   4.397 -1.1054  0.4475 -0.5097
 1417SOL     OW 4820   7.319   2.113   3.619  0.3748 -0.3508 -0.2037
 1417SOL    HW1 4821   7.319   2.020   3.596  0.6376 -0.0159 -1.6267
 1417SOL    HW2 4822   7.269   2.155   3.549 -2.2212  0.2819  1.8771
 1418SOL     OW 4823   4.872   1.650   0.529 -0.4926  0.1284 -0.5298
 1418SOL    HW1 4824   4.951   1.703   0.541 -0.5429  0.2886 -0.9142
 1418SOL    HW2 4825   4.885   1.606   0.445 -1.2295  0.8860 -1.0606
 1419SOL     OW 4826   6.730   5.036   4.385  0.7337 -0.0699 -0.4762
 1419SOL    HW1 4827   6.747   4.959   4.331 -1.7904 -1.6056  0.7192
 1419SOL    HW2 4828   6.752   5.009   4.474 -2.1861 -0.3051  0.2908
 1420SOL     OW 4829   5.207   4.266   2.504 -0.0571 -0.0702 -0.2846
 1420SOL    HW1 4830   5.145   4.236   2.438 -1.1531 -1.4105  1.2668
 1420SOL    HW2 4831   5.152   4.286   2.581  1.3946 -1.1952  1.0996
 1421SOL     OW 4832   0.643   0.896   2.324 -0.2924 -0.1788  0.2716
 1421SOL    HW1 4833   0.672   0.951   2.397 -0.1901  3.0317 -2.0168
 1421SOL    HW2 4834   0.548   0.904   2.324 -0.2244  0.7175 -0.5666
 1422SOL     OW 4835   5.871   4.986   0.530  0.5570  0.1999 -0.5929
 1422SOL    HW1 4836   5.852   4.995   0.623  1.8849  0.8227 -0.3524
 1422SOL    HW2 4837   5.836   5.065   0.491  0.5149  0.2079 -0.5403
 1423SOL     OW 4838   0.190   4.291   0.144 -0.6331  0.1887  0.3426
 1423SOL    HW1 4839   0.245   4.219   0.174 -0.6217 -0.5463 -1.2964
 1423SOL    HW2 4840   0.102   4.254   0.139 -0.9046  0.7354  0.9144
 1424SOL     OW 4841   4.168   2.432   0.021 -0.4529  0.7107 -0.3333
 1424SOL    HW1 4842   4.163   2.406  -0.071 -0.1239  0.6746 -0.3414
 1424SOL    HW2 4843   4.076   2.442   0.048 -0.6393 -1.4100 -0.0618
 1425SOL     OW 4844   2.929   5.328   5.297 -0.1681  0.1351 -0.1955
 1425SOL    HW1 4845   2.859   5.270   5.265 -1.9484  0.6958  2.4006
 1425SOL    HW2 4846   2.997   5.321   5.230 -1.0994 -3.3825 -0.9933
 1426SOL     OW 4847   0.922   7.013   1.094  0.3265 -0.1919  0.0921
 1426SOL    HW1 4848   0.940   7.064   1.015 -0.2728 -1.9775 -1.2764
 1426SOL    HW2 4849   0.961   6.928   1.076  1.5806 -0.1813  2.4270
 1427SOL     OW 4850   6.456   2.012   3.055  0.8862 -0.0063 -0.2305
 1427SOL    HW1 4851   6.376   1.980   3.012  0.3948  0.7226  0.1279
 1427SOL    HW2 4852   6.425   2.075   3.120  1.8198  1.1743 -0.8765
 1428SOL     OW 4853   0.258   4.061   6.390 -0.2808 -0.2966 -0.1260
 1428SOL    HW1 4854   0.167   4.031   6.390 -1.0072  1.7607  0.4182
 1428SOL    HW2 4855   0.305   3.993   6.439 -1.3181 -1.8493 -1.1775
 1429SOL     OW 4856   3.411   0.774   1.255 -0.2683 -0.3693 -0.0966
 1429SOL    HW1 4857   3.410   0.773   1.160 -0.3873 -1.3629 -0.0966
 1429SOL    HW2 4858   3.420   0.682   1.280  2.4248  0.0683  0.8372
 1430SOL     OW 4859   3.754   7.157   5.895  0.1583 -0.2344  0.3147
 1430SOL    HW1 4860   3.784   7.232   5.844 -1.1203  0.2903  0.2862
 1430SOL    HW2 4861   3.811   7.085   5.869  1.2093  0.6459  0.1085
 1431SOL     OW 4862   6.970   2.623   4.647 -0.1406  0.3700  0.0021
 1431SOL    HW1 4863   6.977   2.601   4.555 -0.6767  1.8143 -0.4185
 1431SOL    HW2 4864   6.929   2.547   4.688 -1.2186  0.2619 -1.2154
 1432SOL     OW 4865   5.147   1.846   2.629  0.3803  0.0647  0.3174
 1432SOL    HW1 4866   5.190   1.815   2.550 -0.2529 -0.3774  0.1379
 1432SOL    HW2 4867   5.219   1.868   2.688  0.8690  0.7363 -0.4946
 1433SOL     OW 4868   2.764   0.509   1.884 -0.0460  0.3585  0.7819
 1433SOL    HW1 4869   2.800   0.456   1.813  0.7827  1.1753  0.5771
 1433SOL    HW2 4870   2.683   0.464   1.909 -0.2390 -0.0625 -0.5311
 1434SOL     OW 4871   3.228   1.088   4.025  0.6494 -0.3518 -0.9308
 1434SOL    HW1 4872   3.161   1.020   4.026  0.9953 -0.7647  1.7633
 1434SOL    HW2 4873   3.191   1.158   3.970 -1.3678 -1.1260 -0.6315
 1435SOL     OW 4874   1.737   6.750   2.003 -0.3159 -0.0261 -0.4579
 1435SOL    HW1 4875   1.682   6.678   1.971  1.0845 -1.7471  0.8094
 1435SOL    HW2 4876   1.681   6.796   2.065 -1.8161  1.1310 -2.5142
 1436SOL     OW 4877   0.116   3.967   4.831  0.2884 -0.0134 -0.0874
 1436SOL    HW1 4878   0.182   4.036   4.836  0.5812 -0.2484 -0.6262
 1436SOL    HW2 4879   0.156   3.894   4.880 -0.3440  0.4384  1.1527
 1437SOL     OW 4880   6.448   4.127   3.610 -0.0946 -0.0612  0.5193
 1437SOL    HW1 4881   6.465   4.040   3.574 -1.9489 -0.7428  1.1917
 1437SOL    HW2 4882   6.535   4.162   3.631  0.6461 -2.2619  1.3963
 1438SOL     OW 4883   3.895   1.973   1.849  0.0347 -0.5907  0.2531
 1438SOL    HW1 4884   3.891   2.062   1.883  1.7013  0.2493 -1.5399
 1438SOL    HW2 4885   3.807   1.938   1.861 -1.0666  1.8062 -0.3042
 1439SOL     OW 4886   7.190   3.751   3.511  0.7461  0.2793  0.0579
 1439SOL    HW1 4887   7.117   3.732   3.451  0.2977  2.5488 -0.2376
 1439SOL    HW2 4888   7.162   3.716   3.595  0.6667 -1.5215 -0.6626
 1440SOL     OW 4889   0.573   5.445   6.421 -0.0797  0.1645  0.0214
 1440SOL    HW1 4890   0.528   5.522   6.455 -0.1612 -0.1208  0.5842
 1440SOL    HW2 4891   0.528   5.425   6.339  0.4679  1.1880 -0.5381
 1441SOL     OW 4892   4.649   1.861   4.529  0.6664 -0.4819 -0.1841
 1441SOL    HW1 4893   4.578   1.808   4.493  1.1830 -0.5373 -1.1804
 1441SOL    HW2 4894   4.620   1.884   4.617 -0.6421 -0.3900 -0.6080
 1442SOL     OW 4895   5.518   1.690   7.379 -1.2011  0.1488 -0.1499
 1442SOL    HW1 4896   5.492   1.690   7.472 -0.2279 -0.5239  0.1470
 1442SOL    HW2 4897   5.594   1.631   7.376 -1.1120  0.3018 -1.3502
 1443SOL     OW 4898   2.236   4.861   3.462  0.2445  0.1491  0.0751
 1443SOL    HW1 4899   2.252   4.955   3.459  0.4658  0.1505  0.8731
 1443SOL    HW2 4900   2.287   4.831   3.538  1.1430 -0.8054 -0.8665
 1444SOL     OW 4901   6.369   1.710   4.829  0.1979 -0.0063 -0.3238
 1444SOL    HW1 4902   6.410   1.671   4.906 -0.9077  0.1571  0.3704
 1444SOL    HW2 4903   6.275   1.712   4.850 -0.2152 -0.6725 -1.9962
 1445SOL     OW 4904   0.174   2.920   1.379 -0.5093 -0.4666 -0.2517
 1445SOL    HW1 4905   0.218   2.869   1.311  0.5140 -1.0175  0.7934
 1445SOL    HW2 4906   0.153   2.857   1.448  0.7669  0.4658  1.0681
 1446SOL     OW 4907   1.898   6.927   3.354 -0.4123 -0.4515  0.5463
 1446SOL    HW1 4908   1.963   6.971   3.299 -3.1936  2.0447 -1.0827
 1446SOL    HW2 4909   1.897   6.977   3.436  0.0747 -0.8225  0.7792
 1447SOL     OW 4910   4.214   3.583   3.640  0.4769 -0.1637  0.5749
 1447SOL    HW1 4911   4.123   3.553   3.642  0.2905  0.3550  0.1466
 1447SOL    HW2 4912   4.238   3.579   3.548  0.7617  0.0720  0.6396
 1448SOL     OW 4913   0.113   6.770   4.097 -0.0943  0.4469 -0.2590
 1448SOL    HW1 4914   0.120   6.856   4.055  1.1047  0.1947 -0.6130
 1448SOL    HW2 4915   0.173   6.714   4.048  0.5385 -0.1269  1.1050
 1449SOL     OW 4916   3.633   1.588   4.051 -0.3027  0.1156 -0.4431
 1449SOL    HW1 4917   3.715   1.560   4.089 -0.2686 -0.0364 -0.6249
 1449SOL    HW2 4918   3.651   1.676   4.016 -0.2034  0.0632 -0.5248
 1450SOL     OW 4919   5.896   7.175   7.250  0.3868 -0.1096  0.4411
 1450SOL    HW1 4920   5.930   7.142   7.168  1.4587 -0.8207  1.1449
 1450SOL    HW2 4921   5.843   7.104   7.285 -2.2320  1.1069 -0.8042
 1451SOL     OW 4922   5.045   4.301   4.548  0.2649 -0.2221  0.1809
 1451SOL    HW1 4923   5.047   4.397   4.549 -1.0451 -0.1334 -1.4228
 1451SOL    HW2 4924   5.137   4.276   4.540  0.7359  0.8329  1.7447
 1452SOL     OW 4925   3.984   6.690   6.179 -0.3899 -0.6513  0.3854
 1452SOL    HW1 4926   4.040   6.633   6.231 -1.5017 -0.8363  1.4342
 1452SOL    HW2 4927   4.044   6.743   6.127  0.7395 -0.9969  1.3036
 1453SOL     OW 4928   6.394   6.255   6.239 -0.0592  0.1203  0.2834
 1453SOL    HW1 4929   6.367   6.286   6.326 -1.5516 -0.6037  0.1223
 1453SOL    HW2 4930   6.445   6.176   6.257 -2.5672 -1.5637  0.4943
 1454SOL     OW 4931   3.002   3.654   4.090  0.0152  0.2429 -0.1846
 1454SOL    HW1 4932   3.050   3.571   4.098 -0.4764 -0.1857 -1.3939
 1454SOL    HW2 4933   2.944   3.656   4.167 -0.1805 -0.6918 -0.2897
 1455SOL     OW 4934   1.836   0.396   2.700  0.2768 -0.2279  0.0501
 1455SOL    HW1 4935   1.751   0.356   2.682  0.8000 -1.4530  0.1980
 1455SOL    HW2 4936   1.887   0.326   2.742  0.9519  0.8585  1.1100
 1456SOL     OW 4937   6.926   4.937   3.234  0.0513 -0.7040  0.0305
 1456SOL    HW1 4938   6.998   4.999   3.247  1.2542 -2.2821  1.2793
 1456SOL    HW2 4939   6.864   4.957   3.304 -0.2943  0.0501 -0.4821
 1457SOL     OW 4940   6.129   3.995   4.884 -0.4112 -0.0150 -0.0694
 1457SOL    HW1 4941   6.189   3.986   4.957  0.3987  0.6135 -0.6389
 1457SOL    HW2 4942   6.144   3.918   4.830  1.1777  0.9705 -1.1133
 1458SOL     OW 4943   5.295   0.825   2.306 -0.1780  0.1851 -0.5066
 1458SOL    HW1 4944   5.350   0.895   2.343 -0.8779  0.5937 -0.2240
 1458SOL    HW2 4945   5.357   0.770   2.258  0.1756  1.9582 -2.2193
 1459SOL     OW 4946   1.138   0.792   3.164  0.0640 -0.7793 -0.0009
 1459SOL    HW1 4947   1.174   0.840   3.240  3.0961 -1.2810 -0.9836
 1459SOL    HW2 4948   1.110   0.861   3.104  0.4548 -0.3061  0.3439
 1460SOL     OW 4949   6.044   5.779   1.275 -0.1560  0.2858 -0.1348
 1460SOL    HW1 4950   6.059   5.741   1.361 -0.7113 -0.5100 -0.3851
 1460SOL    HW2 4951   6.044   5.705   1.214 -3.9352  0.2274 -0.3100
 1461SOL     OW 4952   3.271   6.361   5.712  0.0113 -0.5459  0.0374
 1461SOL    HW1 4953   3.231   6.290   5.761  0.1190 -0.5109  0.1772
 1461SOL    HW2 4954   3.200   6.423   5.696 -0.0218 -0.5535  0.1549
 1462SOL     OW 4955   3.404   6.657   2.958 -0.0385 -0.3101 -0.7260
 1462SOL    HW1 4956   3.459   6.717   3.010  0.7645 -2.1596  0.6497
 1462SOL    HW2 4957   3.348   6.716   2.907 -0.1395  1.6375  1.4384
 1463SOL     OW 4958   4.337   7.036   3.087  0.2623 -0.1667 -0.5837
 1463SOL    HW1 4959   4.400   7.026   3.015 -0.6592 -1.2620 -1.2657
 1463SOL    HW2 4960   4.314   6.947   3.111 -0.9325  0.2155 -0.2566
 1464SOL     OW 4961   4.607   1.621   0.692  0.2001 -0.4957  0.3148
 1464SOL    HW1 4962   4.679   1.639   0.632 -0.2517 -1.2073 -0.4503
 1464SOL    HW2 4963   4.535   1.594   0.636 -0.1771 -1.3639  1.1877
 1465SOL     OW 4964   3.909   4.017   1.516 -0.1101 -0.2835 -0.4938
 1465SOL    HW1 4965   3.894   3.923   1.526  1.2983 -0.5374 -0.6184
 1465SOL    HW2 4966   4.004   4.026   1.517 -0.2146  1.0702 -1.1352
 1466SOL     OW 4967   5.797   5.428   0.610 -0.6138  0.1557 -0.2704
 1466SOL    HW1 4968   5.749   5.509   0.589  0.0095  1.2626  2.1914
 1466SOL    HW2 4969   5.734   5.358   0.593 -1.5740  1.2232 -1.3430
 1467SOL     OW 4970   1.695   1.836   3.730 -0.6077 -0.6797 -0.1229
 1467SOL    HW1 4971   1.678   1.899   3.660  1.3507 -1.6492 -1.5550
 1467SOL    HW2 4972   1.669   1.751   3.693 -0.3080 -1.1020  0.6083
 1468SOL     OW 4973   0.724   6.214   5.770 -0.1972 -0.0609  0.2857
 1468SOL    HW1 4974   0.654   6.149   5.771 -0.7141  0.4768  1.6156
 1468SOL    HW2 4975   0.802   6.166   5.800  0.6198 -1.2006 -3.1526
 1469SOL     OW 4976   1.661   2.343   4.638 -0.2094 -0.1614 -0.1622
 1469SOL    HW1 4977   1.702   2.360   4.553 -1.5519 -0.5932 -0.9121
 1469SOL    HW2 4978   1.630   2.253   4.632  1.3919 -0.8805  1.5195
 1470SOL     OW 4979   3.356   3.057   6.517 -0.0398  0.4955  0.3388
 1470SOL    HW1 4980   3.436   3.035   6.469  0.1954  0.4855  0.7270
 1470SOL    HW2 4981   3.328   3.141   6.482 -0.2797  0.1428 -0.3264
 1471SOL     OW 4982   1.553   3.115   0.915  0.1596 -0.2521  0.4233
 1471SOL    HW1 4983   1.589   3.201   0.937 -2.1176  0.4230  1.8813
 1471SOL    HW2 4984   1.473   3.134   0.865  0.5784 -1.5925 -0.8156
 1472SOL     OW 4985   2.874   3.961   1.776  0.3453 -0.1064 -0.0406
 1472SOL    HW1 4986   2.940   3.933   1.713  0.0953  0.8501 -0.7448
 1472SOL    HW2 4987   2.797   3.908   1.756  1.2974 -2.3733  1.7944
 1473SOL     OW 4988   3.204   1.038   2.965 -0.0835  0.3539 -0.3650
 1473SOL    HW1 4989   3.268   0.998   3.024 -1.5660 -0.2623  0.9239
 1473SOL    HW2 4990   3.183   1.122   3.006 -0.6744  0.1924 -0.3251
 1474SOL     OW 4991   6.249   0.086   0.739  0.0451 -0.3543 -0.2684
 1474SOL    HW1 4992   6.330   0.077   0.790  0.3881  0.6606 -0.6228
 1474SOL    HW2 4993   6.204   0.002   0.752  0.3560 -0.3163  1.3035
 1475SOL     OW 4994   6.047   1.292   3.998  1.0966  0.4114 -0.2854
 1475SOL    HW1 4995   5.980   1.359   4.004  2.0940  1.4517 -0.3476
 1475SOL    HW2 4996   6.034   1.236   4.074  1.1535  1.5537  0.5726
 1476SOL     OW 4997   4.921   5.626   2.568  0.0254 -0.7347  0.0390
 1476SOL    HW1 4998   4.939   5.622   2.474  1.2088 -0.0036  0.2024
 1476SOL    HW2 4999   4.967   5.705   2.597 -2.0492  0.2303  0.8783
 1477SOL     OW 5000   7.235   5.959   0.830  0.1296 -0.8185 -0.1330
 1477SOL    HW1 5001   7.206   5.868   0.833  0.1267 -0.8249 -0.3579
 1477SOL    HW2 5002   7.183   6.002   0.898 -1.5066 -0.5328 -1.4931
 1478SOL     OW 5003   3.014   0.928   2.384 -0.2408  0.0885  0.1360
 1478SOL    HW1 5004   2.975   0.997   2.437  1.4236  0.6948  0.6408
 1478SOL    HW2 5005   3.015   0.963   2.295 -1.9202 -0.4432 -0.1387
 1479SOL     OW 5006   6.795   1.743   4.588  0.0902  0.0896  0.0501
 1479SOL    HW1 5007   6.840   1.828   4.590 -1.6653  1.0805 -0.0532
 1479SOL    HW2 5008   6.802   1.711   4.678  2.4467 -0.6396 -0.3308
 1480SOL     OW 5009   4.329   3.899   2.866 -0.5661  0.3967  0.1182
 1480SOL    HW1 5010   4.259   3.896   2.801  0.7134  0.0195 -1.3170
 1480SOL    HW2 5011   4.336   3.809   2.898  0.8287 -0.1507 -1.5611
 1481SOL     OW 5012   2.368   1.341   0.196 -0.0976 -0.0576 -0.1973
 1481SOL    HW1 5013   2.424   1.361   0.121 -0.8533  1.8374 -0.3220
 1481SOL    HW2 5014   2.285   1.311   0.158  0.0113 -0.5191 -0.0753
 1482SOL     OW 5015   4.157   2.006   1.738  0.0407  0.4905 -0.4167
 1482SOL    HW1 5016   4.090   1.971   1.797 -0.0597  1.6963  0.2321
 1482SOL    HW2 5017   4.108   2.050   1.669  0.1614 -0.0563 -0.8486
 1483SOL     OW 5018   6.972   2.172   7.154  0.0280 -0.2854  0.3389
 1483SOL    HW1 5019   6.992   2.189   7.062 -0.9282 -0.5781  0.0657
 1483SOL    HW2 5020   7.045   2.211   7.203  0.2071  0.4459 -0.5059
 1484SOL     OW 5021   2.689   6.041   2.062 -0.0337  0.9037  0.1395
 1484SOL    HW1 5022   2.768   6.059   2.113 -0.5998  2.5813  0.4662
 1484SOL    HW2 5023   2.635   5.986   2.119  0.9544 -0.4357 -0.1690
 1485SOL     OW 5024   4.570   0.212   5.799 -0.3364  0.3285 -0.3558
 1485SOL    HW1 5025   4.513   0.289   5.805 -1.4695 -0.5462  0.7502
 1485SOL    HW2 5026   4.522   0.151   5.742 -0.4635 -0.3523  0.4564
 1486SOL     OW 5027   5.847   4.525   4.295  0.0706  0.9360  0.1420
 1486SOL    HW1 5028   5.874   4.589   4.228  0.3519  0.2511 -0.4172
 1486SOL    HW2 5029   5.862   4.440   4.254  0.3454  0.4956  1.1210
 1487SOL     OW 5030   6.218   4.125   3.839  0.5310 -0.8222  0.2922
 1487SOL    HW1 5031   6.242   4.144   3.930 -2.3868 -0.5888  1.1340
 1487SOL    HW2 5032   6.241   4.204   3.791  0.8129 -0.3930  1.1188
 1488SOL     OW 5033   7.156   2.391   7.333  0.0737 -0.3652 -0.0703
 1488SOL    HW1 5034   7.161   2.465   7.393 -0.1436  0.0132 -0.5055
 1488SOL    HW2 5035   7.158   2.431   7.246  1.1790 -0.9439 -0.3385
 1489SOL     OW 5036   7.325   6.531   4.750  0.1075  0.1833 -0.0010
 1489SOL    HW1 5037   7.388   6.589   4.793  0.9932  0.0121 -1.0351
 1489SOL    HW2 5038   7.374   6.452   4.730  0.3090  0.9762 -3.0672
 1490SOL     OW 5039   0.124   3.999   6.949 -0.1734  0.2806 -0.1513
 1490SOL    HW1 5040   0.084   3.917   6.978 -0.2536  0.3419 -0.0851
 1490SOL    HW2 5041   0.117   3.998   6.854 -0.2738  0.2602 -0.1437
 1491SOL     OW 5042   5.571   6.831   6.406  0.0261 -0.1532 -0.2105
 1491SOL    HW1 5043   5.571   6.769   6.479 -0.9129 -1.4477 -1.2447
 1491SOL    HW2 5044   5.613   6.909   6.440 -0.0570 -0.8559  1.5953
 1492SOL     OW 5045   3.353   6.244   4.162  0.4569  0.9843 -0.0914
 1492SOL    HW1 5046   3.444   6.252   4.190  0.9633  0.8146 -1.6016
 1492SOL    HW2 5047   3.349   6.159   4.117 -0.3723  1.1209 -0.2909
 1493SOL     OW 5048   3.812   6.687   2.718  0.0846  0.1315  0.0411
 1493SOL    HW1 5049   3.729   6.642   2.735  0.5869 -1.5974 -1.6886
 1493SOL    HW2 5050   3.855   6.693   2.804 -1.4158  0.2569  0.8102
 1494SOL     OW 5051   0.888   1.366   0.737  0.1974  0.2116  0.3758
 1494SOL    HW1 5052   0.801   1.359   0.697 -0.5814  0.9017  1.8667
 1494SOL    HW2 5053   0.875   1.339   0.828  1.6009  0.1371  0.5781
 1495SOL     OW 5054   2.323   0.875   7.190  0.1408 -0.7374  0.1644
 1495SOL    HW1 5055   2.267   0.798   7.203 -0.9944 -0.0063 -0.2407
 1495SOL    HW2 5056   2.287   0.918   7.113  1.9545 -0.8178 -0.7770
 1496SOL     OW 5057   5.851   3.877   6.049 -0.0988  0.0639  0.2337
 1496SOL    HW1 5058   5.940   3.863   6.018  0.0222 -1.3240  1.0920
 1496SOL    HW2 5059   5.832   3.969   6.031  0.6254 -0.1862 -2.1660
 1497SOL     OW 5060   6.468   2.243   4.301 -0.2324  0.1472 -0.1930
 1497SOL    HW1 5061   6.562   2.253   4.281  0.0926 -0.3222  1.0298
 1497SOL    HW2 5062   6.465   2.175   4.368 -1.3564  0.9167  0.5724
 1498SOL     OW 5063   0.271   3.604   5.394  0.7586 -0.0384  0.1573
 1498SOL    HW1 5064   0.319   3.664   5.337  0.6207 -1.0132 -1.0255
 1498SOL    HW2 5065   0.304   3.517   5.371 -0.3792 -0.5825  0.5042
 1499SOL     OW 5066   0.711   3.489   5.420  0.0452 -0.0221  0.2864
 1499SOL    HW1 5067   0.626   3.450   5.441  0.1161  0.0811  0.7905
 1499SOL    HW2 5068   0.775   3.427   5.457  0.1957 -0.2058 -0.2737
 1500SOL     OW 5069   2.352   1.652   4.171  0.3236 -0.0454 -0.2473
 1500SOL    HW1 5070   2.354   1.724   4.108 -0.3749  0.5642  0.4005
 1500SOL    HW2 5071   2.346   1.573   4.117 -2.9782  0.5483 -1.0055
 1501SOL     OW 5072   2.438   4.125   1.766  0.5014  0.2051 -0.5583
 1501SOL    HW1 5073   2.511   4.186   1.762 -0.9429  1.9829 -1.5644
 1501SOL    HW2 5074   2.373   4.169   1.820  0.3427 -1.5850  0.7778
 1502SOL     OW 5075   3.094   7.415   4.278 -0.3879 -0.1230  0.7734
 1502SOL    HW1 5076   3.017   7.460   4.315 -0.4370 -0.7607  1.4687
 1502SOL    HW2 5077   3.164   7.479   4.288 -1.0110  0.8832 -0.8377
 1503SOL     OW 5078   1.702   6.169   0.345  0.2089 -0.4633 -0.0399
 1503SOL    HW1 5079   1.642   6.228   0.391 -1.4623 -0.9575 -1.4842
 1503SOL    HW2 5080   1.775   6.157   0.406  0.2080  2.3669  0.6623
 1504SOL     OW 5081   5.421   2.804   3.236  0.3630  0.1707  0.0924
 1504SOL    HW1 5082   5.342   2.858   3.239  0.6184  0.6915 -1.4170
 1504SOL    HW2 5083   5.479   2.842   3.302 -0.0845  0.7285  0.1738
 1505SOL     OW 5084   0.967   5.896   4.574  0.2527  0.4012 -0.7016
 1505SOL    HW1 5085   0.884   5.851   4.582  0.2911  0.5631  0.9957
 1505SOL    HW2 5086   1.032   5.835   4.610  0.7004  0.7080 -0.9685
 1506SOL     OW 5087   0.686   2.377   4.952 -0.2366  0.8441  0.6751
 1506SOL    HW1 5088   0.597   2.387   4.918  0.0337 -0.5008 -0.5407
 1506SOL    HW2 5089   0.743   2.392   4.876  0.3770 -2.5935  0.2957
 1507SOL     OW 5090   1.162   5.476   3.556 -0.5471 -0.3646  0.2327
 1507SOL    HW1 5091   1.097   5.414   3.522 -2.0697  1.2893 -0.0142
 1507SOL    HW2 5092   1.141   5.559   3.514  2.0363  0.1734 -0.1725
 1508SOL     OW 5093   4.664   6.664   1.943 -0.0018  0.2539  0.1687
 1508SOL    HW1 5094   4.582   6.620   1.964 -0.4999  0.8042 -0.5525
 1508SOL    HW2 5095   4.697   6.615   1.867  0.6287 -0.3143  0.8000
 1509SOL     OW 5096   3.659   4.473   2.008 -0.4314 -0.9945  0.0607
 1509SOL    HW1 5097   3.645   4.472   1.913 -0.1992 -2.9546  0.0180
 1509SOL    HW2 5098   3.633   4.562   2.034  0.7906  0.0565 -2.0035
 1510SOL     OW 5099   2.030   2.992   7.162 -0.8171  0.2348  0.0372
 1510SOL    HW1 5100   2.047   2.967   7.252 -2.2217  0.4047  0.3693
 1510SOL    HW2 5101   2.089   3.066   7.146 -0.8014  0.4198  0.9159
 1511SOL     OW 5102   4.334   5.250   1.268  0.0398 -0.6389 -0.5569
 1511SOL    HW1 5103   4.364   5.336   1.237 -0.9719 -0.1645 -0.2373
 1511SOL    HW2 5104   4.315   5.201   1.188  1.3114 -0.8315 -0.7592
 1512SOL     OW 5105   1.623   4.508   2.677 -0.5179 -0.1694  0.1920
 1512SOL    HW1 5106   1.582   4.438   2.729  1.7308 -2.1877 -0.5788
 1512SOL    HW2 5107   1.614   4.479   2.587 -0.9159  1.3570 -0.2848
 1513SOL     OW 5108   3.184   3.594   0.954 -0.7458  0.0799  0.1788
 1513SOL    HW1 5109   3.201   3.503   0.931  1.5730  0.7243 -0.9782
 1513SOL    HW2 5110   3.155   3.635   0.872  1.2366  0.9892 -0.1331
 1514SOL     OW 5111   2.531   1.733   0.684  0.3031  0.0941 -0.0201
 1514SOL    HW1 5112   2.521   1.720   0.589  0.4214  2.5591 -0.4548
 1514SOL    HW2 5113   2.605   1.678   0.708  0.8849  0.1344 -1.5759
 1515SOL     OW 5114   0.329   7.279   6.512 -0.0806 -0.0578  0.2056
 1515SOL    HW1 5115   0.360   7.249   6.597  0.5497 -1.3005 -0.4337
 1515SOL    HW2 5116   0.365   7.368   6.504 -0.7235  0.3427  1.5072
 1516SOL     OW 5117   4.104   2.270   4.482  0.5472  0.2533 -0.1479
 1516SOL    HW1 5118   4.173   2.212   4.513  0.2098 -1.1385 -1.8131
 1516SOL    HW2 5119   4.087   2.241   4.392 -1.6378  1.0546 -0.0621
 1517SOL     OW 5120   0.939   0.644   4.948  0.3764 -0.5536 -0.2160
 1517SOL    HW1 5121   1.026   0.680   4.963  0.8503 -1.1560 -1.4148
 1517SOL    HW2 5122   0.902   0.634   5.036  2.3515 -2.2845  0.4991
 1518SOL     OW 5123   3.462   2.394   1.665  0.0643 -1.0642  0.3779
 1518SOL    HW1 5124   3.528   2.432   1.723  0.2114 -0.7105 -0.0082
 1518SOL    HW2 5125   3.416   2.470   1.629  0.3174 -1.2481 -0.3591
 1519SOL     OW 5126   4.431   4.557   0.203  0.1568 -0.2221  0.1592
 1519SOL    HW1 5127   4.481   4.596   0.274  0.0788 -2.1260  1.3488
 1519SOL    HW2 5128   4.423   4.626   0.137  3.7540  0.3667  0.1743
 1520SOL     OW 5129   7.070   2.118   5.646 -0.7587 -0.5101 -0.3266
 1520SOL    HW1 5130   7.111   2.182   5.588  1.0845 -0.9535  0.4112
 1520SOL    HW2 5131   6.987   2.158   5.671  0.3536  1.6596  0.1438
 1521SOL     OW 5132   2.063   3.253   1.424 -0.0025 -0.3951 -0.5942
 1521SOL    HW1 5133   2.104   3.301   1.496 -2.2395  0.3063  0.2943
 1521SOL    HW2 5134   2.000   3.314   1.387 -0.6170 -1.5751 -1.5804
 1522SOL     OW 5135   6.696   7.034   1.362 -0.1145 -0.1771 -0.3373
 1522SOL    HW1 5136   6.736   7.118   1.338 -0.9306  0.1154 -0.6987
 1522SOL    HW2 5137   6.681   6.990   1.278 -1.9222  0.3622 -0.3371
 1523SOL     OW 5138   1.895   7.060   3.613 -1.1115  0.0550  0.3207
 1523SOL    HW1 5139   1.835   7.131   3.589 -0.5198  0.5032  0.1385
 1523SOL    HW2 5140   1.849   7.013   3.683 -2.6412 -0.9667 -1.2903
 1524SOL     OW 5141   6.454   3.418   0.954  0.2766  0.1102  0.2333
 1524SOL    HW1 5142   6.526   3.437   0.894 -0.8286 -0.4126 -1.2973
 1524SOL    HW2 5143   6.464   3.325   0.974 -0.0578 -0.0002 -0.1057
 1525SOL     OW 5144   3.753   3.251   7.356 -0.4520 -0.2215  0.2220
 1525SOL    HW1 5145   3.760   3.345   7.368 -3.6361  0.0795  0.5022
 1525SOL    HW2 5146   3.834   3.227   7.310  0.6047  2.5428  0.4384
 1526SOL     OW 5147   7.306   6.048   5.793  0.0717  0.0540 -0.0721
 1526SOL    HW1 5148   7.351   6.133   5.783  0.4401 -0.0545  0.5701
 1526SOL    HW2 5149   7.260   6.056   5.877  0.5049 -0.5521  0.2318
 1527SOL     OW 5150   6.287   0.201   5.077  0.4254 -0.0010  0.0978
 1527SOL    HW1 5151   6.307   0.282   5.029 -0.7491 -0.5139 -1.3552
 1527SOL    HW2 5152   6.284   0.133   5.009 -1.2004 -0.7837  0.9009
 1528SOL     OW 5153   3.507   3.056   3.721 -0.2364  0.0800 -0.3888
 1528SOL    HW1 5154   3.568   3.025   3.788  0.0854  0.6599 -0.4065
 1528SOL    HW2 5155   3.558   3.118   3.669 -0.6582  0.0860 -0.7988
 1529SOL     OW 5156   5.134   6.443   2.134  0.0315 -0.0549  0.5237
 1529SOL    HW1 5157   5.182   6.360   2.142 -0.3248 -0.7943 -3.1492
 1529SOL    HW2 5158   5.042   6.417   2.129 -0.3632  0.8894  2.2517
 1530SOL     OW 5159   3.385   6.935   5.676  0.0440 -0.0547  0.0339
 1530SOL    HW1 5160   3.373   6.978   5.760  0.4592 -1.3032  0.7721
 1530SOL    HW2 5161   3.329   6.857   5.681  0.7836 -0.6372 -0.4398
 1531SOL     OW 5162   0.328   6.829   2.740  0.0820  0.2925 -0.6467
 1531SOL    HW1 5163   0.320   6.740   2.706 -0.3470  0.1770 -0.2575
 1531SOL    HW2 5164   0.326   6.818   2.835  2.8056  0.4480 -0.4875
 1532SOL     OW 5165   5.165   3.742   7.107  0.4134  0.5338 -0.6371
 1532SOL    HW1 5166   5.160   3.773   7.017  0.4771  0.5579 -0.6328
 1532SOL    HW2 5167   5.240   3.682   7.108  1.1860  1.4771 -0.3169
 1533SOL     OW 5168   2.602   6.928   3.635 -0.1570  0.1020  0.3699
 1533SOL    HW1 5169   2.540   6.894   3.570 -0.9281 -2.0973  2.0949
 1533SOL    HW2 5170   2.687   6.921   3.594 -0.7670  0.1893 -0.9453
 1534SOL     OW 5171   6.072   7.369   0.406  0.8369 -0.0314 -0.3536
 1534SOL    HW1 5172   6.166   7.367   0.389  1.3284 -1.4315  2.1016
 1534SOL    HW2 5173   6.061   7.436   0.474  0.2852 -0.8072  0.3513
 1535SOL     OW 5174   2.223   3.122   5.371 -0.4816 -0.6269  0.4407
 1535SOL    HW1 5175   2.232   3.036   5.413 -2.0676 -0.7525  0.6149
 1535SOL    HW2 5176   2.140   3.116   5.324  0.8066 -0.1771 -2.0543
 1536SOL     OW 5177   2.047   2.847   3.518  0.5077 -0.1900  0.1688
 1536SOL    HW1 5178   2.096   2.769   3.544  0.0025  0.0852  2.0546
 1536SOL    HW2 5179   2.041   2.900   3.597 -0.2948  1.1676 -0.7491
 1537SOL     OW 5180   1.760   3.357   0.555 -0.4047  0.5368  0.3071
 1537SOL    HW1 5181   1.741   3.388   0.467  0.8519 -2.0006 -0.9607
 1537SOL    HW2 5182   1.679   3.313   0.582 -0.2066 -0.2558 -0.3525
 1538SOL     OW 5183   6.100   7.163   4.388 -0.4001  0.1620  0.5111
 1538SOL    HW1 5184   6.152   7.194   4.462  0.4590  0.7236 -0.3110
 1538SOL    HW2 5185   6.146   7.196   4.311 -1.5320 -0.0196 -0.2634
 1539SOL     OW 5186   5.309   2.258   4.433  0.3225 -0.0596 -0.7755
 1539SOL    HW1 5187   5.257   2.247   4.353  0.0747  0.2630 -0.6564
 1539SOL    HW2 5188   5.370   2.328   4.412 -1.7766  2.2205  0.3424
 1540SOL     OW 5189   5.033   1.494   1.342 -0.3799  0.1936  0.2427
 1540SOL    HW1 5190   5.054   1.411   1.299 -0.2431  1.2064 -1.7410
 1540SOL    HW2 5191   4.974   1.469   1.414 -2.5490 -1.4120 -1.9069
 1541SOL     OW 5192   4.561   5.284   2.439 -0.0884  0.4571 -0.4356
 1541SOL    HW1 5193   4.488   5.338   2.409  0.2128  1.1256  0.0150
 1541SOL    HW2 5194   4.618   5.275   2.362 -0.1536  0.7522 -0.5174
 1542SOL     OW 5195   0.930   1.521   6.012 -0.0603  0.3696 -0.3332
 1542SOL    HW1 5196   1.000   1.461   6.039  0.7141  0.6496 -1.6608
 1542SOL    HW2 5197   0.929   1.588   6.080  0.3397 -0.1307  0.1785
 1543SOL     OW 5198   0.874   5.396   6.876  0.2285  0.0564 -0.3531
 1543SOL    HW1 5199   0.915   5.408   6.790 -0.0536 -0.4149 -0.5546
 1543SOL    HW2 5200   0.917   5.320   6.913  0.2593  0.1830 -0.1294
 1544SOL     OW 5201   5.421   1.547   5.513 -0.0842  0.6428  0.0962
 1544SOL    HW1 5202   5.392   1.618   5.570 -0.7531 -0.2980  0.9646
 1544SOL    HW2 5203   5.368   1.471   5.540  1.4337 -0.4931  0.0056
 1545SOL     OW 5204   4.697   5.881   0.024  0.1990  0.6187  0.6392
 1545SOL    HW1 5205   4.694   5.833  -0.058 -0.3349  0.1943  0.9046
 1545SOL    HW2 5206   4.772   5.940   0.015 -0.3870  1.2125 -0.4978
 1546SOL     OW 5207   1.666   1.047   3.924 -0.7030  0.6020 -0.3418
 1546SOL    HW1 5208   1.657   1.085   4.011  1.4938 -1.6498  1.0097
 1546SOL    HW2 5209   1.737   1.097   3.884  2.3299 -1.8239  1.5113
 1547SOL     OW 5210   3.013   5.375   2.473  0.4617  0.5337 -0.5141
 1547SOL    HW1 5211   2.941   5.437   2.461  0.1513  0.2413 -0.1665
 1547SOL    HW2 5212   2.977   5.305   2.527  1.6588  1.5556  1.7692
 1548SOL     OW 5213   5.933   4.813   2.642  0.0191  0.0952 -0.6071
 1548SOL    HW1 5214   5.843   4.810   2.674 -0.0624  0.3337 -0.8182
 1548SOL    HW2 5215   5.973   4.886   2.689  0.2936 -0.4299 -0.0135
 1549SOL     OW 5216   1.681   5.561   0.012  0.5380  0.0544  0.1718
 1549SOL    HW1 5217   1.599   5.585   0.056 -0.8900 -2.5995 -0.8225
 1549SOL    HW2 5218   1.725   5.504   0.075  0.1282 -0.9717 -0.4455
 1550SOL     OW 5219   2.358   0.048   1.291 -0.2205  0.1560  0.1780
 1550SOL    HW1 5220   2.418   0.053   1.217  2.6888 -1.7882  2.1541
 1550SOL    HW2 5221   2.375   0.128   1.341  0.9051 -0.4349  0.7841
 1551SOL     OW 5222   4.819   4.624   6.599  0.1296 -0.4156 -0.0206
 1551SOL    HW1 5223   4.768   4.568   6.541  0.4621 -2.4622  1.5293
 1551SOL    HW2 5224   4.780   4.612   6.686  1.7445 -0.1976  0.7853
 1552SOL     OW 5225   5.387   0.184   5.491  0.1873  0.3523 -0.4457
 1552SOL    HW1 5226   5.459   0.239   5.461 -0.1361  0.3031 -1.3483
 1552SOL    HW2 5227   5.402   0.100   5.448  0.2052 -0.0108  0.2500
 1553SOL     OW 5228   6.812   5.966   2.438  0.1883  0.2458  0.0029
 1553SOL    HW1 5229   6.759   6.045   2.447 -0.2467 -0.0142 -0.2653
 1553SOL    HW2 5230   6.805   5.943   2.345 -1.3679 -1.2571  0.4351
 1554SOL     OW 5231   1.139   6.764   4.573 -0.1389 -0.2467 -0.0091
 1554SOL    HW1 5232   1.115   6.777   4.481 -1.9009  0.9392  0.5673
 1554SOL    HW2 5233   1.078   6.697   4.604 -1.7145  1.5752  1.0456
 1555SOL     OW 5234   6.179   6.768   6.026  0.0994  0.9117 -0.0382
 1555SOL    HW1 5235   6.207   6.851   6.065  0.2828  0.2683  1.2633
 1555SOL    HW2 5236   6.084   6.777   6.017  0.1332  1.3055 -0.0195
 1556SOL     OW 5237   0.105   2.222   3.365  0.0564 -0.2974  0.2058
 1556SOL    HW1 5238   0.068   2.298   3.319 -0.8572 -0.9326 -0.1379
 1556SOL    HW2 5239   0.036   2.194   3.425  0.6826 -0.3893  0.8964
 1557SOL     OW 5240   2.208   3.846   4.553  0.0066  0.0361  0.1475
 1557SOL    HW1 5241   2.218   3.766   4.605  2.2438  0.1000 -0.0680
 1557SOL    HW2 5242   2.174   3.911   4.615 -2.2337 -1.1180  0.2269
 1558SOL     OW 5243   4.996   3.417   0.822  0.3654  0.0605 -0.3148
 1558SOL    HW1 5244   5.062   3.444   0.759 -0.4885  3.1083 -0.0684
 1558SOL    HW2 5245   5.045   3.372   0.891  1.6533 -0.8585 -1.7840
 1559SOL     OW 5246   1.297   4.816   5.164 -0.0008 -0.2344  0.4461
 1559SOL    HW1 5247   1.217   4.858   5.196  0.1782 -0.9567  1.9076
 1559SOL    HW2 5248   1.265   4.744   5.109 -0.3080  0.9712 -1.0361
 1560SOL     OW 5249   4.377   3.544   2.025 -0.1225  0.6107 -0.6781
 1560SOL    HW1 5250   4.308   3.560   1.961 -1.1191  0.7183  0.3838
 1560SOL    HW2 5251   4.412   3.458   2.001 -0.4382  0.6761 -1.4023
 1561SOL     OW 5252   1.902   3.155   4.277  0.2451 -0.1646  0.2829
 1561SOL    HW1 5253   1.817   3.194   4.298  0.3673  0.0278  0.4317
 1561SOL    HW2 5254   1.940   3.133   4.362  0.6956  0.5134  0.2653
 1562SOL     OW 5255   5.826   7.350   3.564  0.2014  0.0418  0.1995
 1562SOL    HW1 5256   5.791   7.268   3.597  1.1479 -0.1581  0.7554
 1562SOL    HW2 5257   5.874   7.326   3.484  0.3654  0.0778  0.2872
 1563SOL     OW 5258   4.669   2.572   2.427  0.1712 -0.5247  0.4428
 1563SOL    HW1 5259   4.675   2.533   2.514  4.1512  1.1977  1.1882
 1563SOL    HW2 5260   4.727   2.518   2.373 -2.1850 -1.5242 -1.2287
 1564SOL     OW 5261   3.952   0.648   5.531 -0.3591 -0.4585  0.0552
 1564SOL    HW1 5262   3.865   0.680   5.555 -1.4344 -2.4082 -0.9756
 1564SOL    HW2 5263   3.944   0.624   5.438  1.5476  0.1068 -0.2982
 1565SOL     OW 5264   0.514   1.605   5.200  0.6075  0.2877 -0.3111
 1565SOL    HW1 5265   0.478   1.526   5.159  0.8705  0.6150 -1.1996
 1565SOL    HW2 5266   0.609   1.592   5.197  0.6385  0.4648 -0.1041
 1566SOL     OW 5267   1.062   2.939   4.463  0.0254  0.4763  0.0544
 1566SOL    HW1 5268   1.133   2.884   4.430  1.1890  1.5137  0.7605
 1566SOL    HW2 5269   1.058   3.013   4.402 -0.9819  0.0522 -0.4182
 1567SOL     OW 5270   2.461   4.523   0.562 -0.1397  0.2039 -0.3573
 1567SOL    HW1 5271   2.437   4.476   0.642  2.5258 -0.4186  0.1770
 1567SOL    HW2 5272   2.427   4.469   0.491 -1.6841  0.2488  0.3015
 1568SOL     OW 5273   3.228   0.924   5.070  0.7949 -0.1946  0.0599
 1568SOL    HW1 5274   3.189   0.916   5.157  0.4320 -0.9567 -0.1664
 1568SOL    HW2 5275   3.292   0.853   5.066  2.6600  1.3485  0.6281
 1569SOL     OW 5276   2.709   2.846   0.567 -0.7925 -0.1295 -0.0243
 1569SOL    HW1 5277   2.745   2.829   0.480 -0.9765 -0.4333 -0.0430
 1569SOL    HW2 5278   2.635   2.904   0.551 -0.7299 -0.0573 -0.0542
 1570SOL     OW 5279   5.916   6.338   3.263  0.5423 -0.3983  0.2584
 1570SOL    HW1 5280   5.914   6.427   3.297  1.2359  0.3450 -1.4967
 1570SOL    HW2 5281   6.007   6.326   3.233  0.2058 -1.3162 -0.4545
 1571SOL     OW 5282   0.948   5.604   6.676 -0.1488 -0.0774 -0.0726
 1571SOL    HW1 5283   0.950   5.667   6.749 -1.7215  0.6627 -0.6102
 1571SOL    HW2 5284   0.974   5.656   6.600 -1.6258  0.0173 -0.5496
 1572SOL     OW 5285   3.456   3.338   5.076  0.6503  0.1329  0.0951
 1572SOL    HW1 5286   3.448   3.329   5.171  2.7225  0.6493  0.3604
 1572SOL    HW2 5287   3.429   3.252   5.042 -0.0952 -0.0634  1.1214
 1573SOL     OW 5288   4.136   3.533   1.477 -0.1472  0.7386 -0.0008
 1573SOL    HW1 5289   4.083   3.470   1.526  0.1540  0.1883 -0.3742
 1573SOL    HW2 5290   4.155   3.602   1.541  2.7736 -1.3701  1.6469
 1574SOL     OW 5291   1.153   4.004   4.695 -0.1692  0.1495 -0.2486
 1574SOL    HW1 5292   1.153   3.917   4.736  1.3351  0.4771  0.5335
 1574SOL    HW2 5293   1.070   4.043   4.722  0.0777 -0.2525  1.2037
 1575SOL     OW 5294   4.623   0.207   4.170  0.6330 -0.3199 -0.6040
 1575SOL    HW1 5295   4.589   0.291   4.141  1.3779  0.2075  0.0315
 1575SOL    HW2 5296   4.689   0.183   4.105 -0.8204 -1.3005 -1.7879
 1576SOL     OW 5297   4.491   2.295   2.205 -1.3572 -0.6087  0.1173
 1576SOL    HW1 5298   4.464   2.381   2.239 -0.3532 -0.6417  1.0356
 1576SOL    HW2 5299   4.423   2.235   2.236 -2.5411 -0.0464 -1.2572
 1577SOL     OW 5300   4.361   3.295   0.273  0.2110  0.1568  0.5049
 1577SOL    HW1 5301   4.435   3.259   0.320 -0.3338 -1.7847 -0.0281
 1577SOL    HW2 5302   4.400   3.344   0.201  1.0010 -0.4101  0.5316
 1578SOL     OW 5303   0.138   1.835   2.231  0.3571 -0.3547  0.5810
 1578SOL    HW1 5304   0.229   1.863   2.218  0.1716 -0.4072 -1.0614
 1578SOL    HW2 5305   0.144   1.740   2.245  0.6095 -0.2346  1.3145
 1579SOL     OW 5306   6.638   1.085   4.802  0.5542 -0.1524 -0.1180
 1579SOL    HW1 5307   6.723   1.120   4.830  0.9568 -1.0662 -0.1758
 1579SOL    HW2 5308   6.660   1.009   4.748 -0.2836  0.0531 -0.7627
 1580SOL     OW 5309   6.916   4.534   4.973  0.1601  0.1969 -0.4616
 1580SOL    HW1 5310   6.971   4.608   4.947 -1.1667  1.0606 -0.8810
 1580SOL    HW2 5311   6.831   4.573   4.995 -0.3521 -1.1257 -0.0053
 1581SOL     OW 5312   6.433   4.099   2.308 -0.3760 -0.1308  0.3568
 1581SOL    HW1 5313   6.473   4.184   2.289  1.1051 -1.1087 -1.2141
 1581SOL    HW2 5314   6.483   4.065   2.383 -0.8463  0.2758  0.8652
 1582SOL     OW 5315   6.512   1.705   1.616 -0.1284 -0.3080 -0.4121
 1582SOL    HW1 5316   6.509   1.733   1.524 -1.3918 -1.8381 -0.8704
 1582SOL    HW2 5317   6.557   1.620   1.614  0.7830  0.1251  0.5491
 1583SOL     OW 5318   7.032   2.866   3.112  0.5369  0.2573  0.7036
 1583SOL    HW1 5319   7.079   2.947   3.092  2.0537 -0.6661  0.3727
 1583SOL    HW2 5320   7.003   2.833   3.027 -0.6841  0.7695  0.8972
 1584SOL     OW 5321   3.785   5.575   1.125  0.0404 -0.2086 -0.4963
 1584SOL    HW1 5322   3.822   5.491   1.096  0.3200  0.0510 -0.9005
 1584SOL    HW2 5323   3.774   5.564   1.220 -0.6908 -0.9979 -0.6591
 1585SOL     OW 5324   0.205   4.887   0.667  0.0918 -0.0445 -0.2980
 1585SOL    HW1 5325   0.191   4.978   0.640 -0.4456  0.1393  0.5376
 1585SOL    HW2 5326   0.191   4.836   0.588 -0.3424  0.5508 -0.6171
 1586SOL     OW 5327   0.631   1.405   6.757 -0.1950 -0.0662  0.0736
 1586SOL    HW1 5328   0.600   1.332   6.703 -0.3149  1.0887 -1.4989
 1586SOL    HW2 5329   0.586   1.395   6.841  0.5286 -2.3254  0.2658
 1587SOL     OW 5330   1.527   5.236   1.826 -0.1322 -0.6094 -0.0362
 1587SOL    HW1 5331   1.574   5.271   1.751 -0.3357 -0.3424 -0.0379
 1587SOL    HW2 5332   1.435   5.251   1.806 -0.2636 -1.6790 -0.3117
 1588SOL     OW 5333   0.506   2.790   0.259  0.4555  0.0779  0.4472
 1588SOL    HW1 5334   0.571   2.737   0.213 -0.1521  0.6095 -1.0824
 1588SOL    HW2 5335   0.422   2.754   0.230 -0.0824 -1.9458  3.9120
 1589SOL     OW 5336   1.054   0.025   3.648 -0.4731  0.3273 -0.4764
 1589SOL    HW1 5337   1.095   0.096   3.697 -0.5860 -0.4087  0.7108
 1589SOL    HW2 5338   0.970   0.010   3.692  0.2756 -1.6865  0.4338
 1590SOL     OW 5339   0.145   1.996   2.545 -0.2318 -0.6630  0.1057
 1590SOL    HW1 5340   0.154   1.903   2.523 -1.3734 -0.3756 -1.8200
 1590SOL    HW2 5341   0.063   2.022   2.504  0.0874  1.2294  0.5833
 1591SOL     OW 5342   6.198   1.654   3.044 -0.4464 -0.1353 -0.5361
 1591SOL    HW1 5343   6.127   1.698   3.091 -0.8686 -2.3593  1.0272
 1591SOL    HW2 5344   6.191   1.562   3.068  0.9231 -1.0031 -3.0010
 1592SOL     OW 5345   4.018   5.557   6.046  0.3309 -0.1829  0.2342
 1592SOL    HW1 5346   3.952   5.543   6.114 -0.7526  0.7300 -0.5962
 1592SOL    HW2 5347   3.976   5.615   5.983  1.3868 -0.8266 -1.1204
 1593SOL     OW 5348   2.748   6.176   6.923  0.2862 -0.3994 -0.0025
 1593SOL    HW1 5349   2.710   6.203   7.007 -0.8985 -0.8519 -0.3738
 1593SOL    HW2 5350   2.842   6.190   6.934  0.1273 -0.2094  1.3094
 1594SOL     OW 5351   4.106   7.335   2.665  0.2511 -0.0295  0.4770
 1594SOL    HW1 5352   4.140   7.391   2.735  1.0283 -0.6409  0.6016
 1594SOL    HW2 5353   4.110   7.246   2.702 -1.2292 -0.1644  0.3942
 1595SOL     OW 5354   6.301   4.760   2.940  0.8493 -0.4863 -0.7720
 1595SOL    HW1 5355   6.333   4.701   3.008  0.5322 -1.3557 -1.3593
 1595SOL    HW2 5356   6.294   4.705   2.862 -0.7980 -0.0241 -0.9901
 1596SOL     OW 5357   6.296   0.214   1.656  0.0314  0.4040 -0.8544
 1596SOL    HW1 5358   6.287   0.260   1.739  1.2684  0.7526 -0.8989
 1596SOL    HW2 5359   6.220   0.242   1.605 -1.5909 -0.9853  0.6685
 1597SOL     OW 5360   0.972   5.285   4.121  0.6730  0.2262 -0.1049
 1597SOL    HW1 5361   0.994   5.192   4.113 -0.7867 -0.4575  2.5781
 1597SOL    HW2 5362   1.054   5.326   4.147  0.9160 -0.6749  0.6352
 1598SOL     OW 5363   6.410   0.618   4.399 -0.0293 -0.2345  0.5341
 1598SOL    HW1 5364   6.323   0.587   4.372 -0.6451  0.4530  1.6954
 1598SOL    HW2 5365   6.458   0.628   4.316 -1.4672  0.6322 -0.2296
 1599SOL     OW 5366   4.148   2.980   6.437 -0.3094  0.1163  0.0021
 1599SOL    HW1 5367   4.192   2.983   6.351 -1.4200 -0.6530 -0.6209
 1599SOL    HW2 5368   4.166   2.892   6.469 -1.2602 -0.1612 -0.2022
 1600SOL     OW 5369   3.226   4.704   5.330 -0.5614  0.0063 -0.3207
 1600SOL    HW1 5370   3.244   4.717   5.237 -0.3234 -0.6799 -0.3723
 1600SOL    HW2 5371   3.183   4.785   5.357 -0.1846  0.4127 -0.9120
 1601SOL     OW 5372   5.671   4.524   5.561 -0.1794 -0.5996  0.3480
 1601SOL    HW1 5373   5.596   4.542   5.617 -0.1256 -0.4656  0.3776
 1601SOL    HW2 5374   5.682   4.429   5.564 -1.3171 -0.7965 -0.9016
 1602SOL     OW 5375   3.571   2.140   3.437  0.2122  0.6739  0.5214
 1602SOL    HW1 5376   3.580   2.140   3.342  0.7809  2.6563  0.5320
 1602SOL    HW2 5377   3.550   2.049   3.459 -2.1954  0.5799 -1.6735
 1603SOL     OW 5378   6.389   0.694   3.537 -0.1893 -0.0011  0.2473
 1603SOL    HW1 5379   6.463   0.753   3.528 -0.6248  0.3773 -1.1705
 1603SOL    HW2 5380   6.422   0.609   3.509  0.0862 -0.1594  1.0287
 1604SOL     OW 5381   7.431   4.674   6.240 -0.2488  0.3433 -0.2280
 1604SOL    HW1 5382   7.510   4.620   6.234 -0.4532 -0.0491  0.4485
 1604SOL    HW2 5383   7.398   4.657   6.329 -0.4066  1.4690 -0.0648
 1605SOL     OW 5384   3.325   1.898   3.329 -0.3083 -0.1228  0.1356
 1605SOL    HW1 5385   3.399   1.899   3.390 -0.8963  0.1866  0.8602
 1605SOL    HW2 5386   3.266   1.965   3.363 -0.0557  1.0109 -1.5417
 1606SOL     OW 5387   6.363   7.406   0.522  0.3561 -0.0840  0.2126
 1606SOL    HW1 5388   6.339   7.474   0.585  0.8503 -0.2158  0.5514
 1606SOL    HW2 5389   6.456   7.390   0.539  0.3366 -0.5740 -0.1234
 1607SOL     OW 5390   2.527   0.788   1.027 -0.2382 -0.1094 -0.0012
 1607SOL    HW1 5391   2.565   0.804   0.941  0.6028 -1.0210  0.1748
 1607SOL    HW2 5392   2.602   0.767   1.082 -0.7882  0.2658  0.9098
 1608SOL     OW 5393   2.680   2.380   0.623 -0.6828 -0.5875 -0.2819
 1608SOL    HW1 5394   2.590   2.348   0.620 -0.5979 -0.9476  0.6170
 1608SOL    HW2 5395   2.687   2.425   0.708 -0.3948  0.6107 -0.9159
 1609SOL     OW 5396   2.184   4.196   6.473  0.1688  0.6596 -0.1980
 1609SOL    HW1 5397   2.192   4.290   6.491 -2.1857  0.9184 -0.1135
 1609SOL    HW2 5398   2.093   4.185   6.444  0.3669 -1.6185 -0.1457
 1610SOL     OW 5399   1.064   4.342   5.798 -0.1491 -0.3187  0.0756
 1610SOL    HW1 5400   0.994   4.402   5.772 -0.0919 -0.2337  0.1168
 1610SOL    HW2 5401   1.081   4.363   5.890 -1.0206 -1.2842  0.4647
 1611SOL     OW 5402   6.009   0.946   4.734 -0.0510  0.8645 -0.2255
 1611SOL    HW1 5403   5.968   0.935   4.819  0.5741  0.4969  0.0337
 1611SOL    HW2 5404   6.071   0.874   4.727 -0.0880  0.8929 -0.9898
 1612SOL     OW 5405   5.552   3.662   1.397 -0.0766  0.0419 -0.1728
 1612SOL    HW1 5406   5.469   3.651   1.443  0.0833  1.3146  0.4858
 1612SOL    HW2 5407   5.559   3.757   1.384  0.4397 -0.1860 -1.8127
 1613SOL     OW 5408   6.641   4.570   1.851  0.7382  0.0626 -0.1525
 1613SOL    HW1 5409   6.686   4.495   1.814  1.4185  0.4234 -0.0760
 1613SOL    HW2 5410   6.551   4.563   1.818  1.1467 -0.0014 -1.3140
 1614SOL     OW 5411   1.107   4.473   1.981  0.4954 -0.2006 -0.6744
 1614SOL    HW1 5412   1.056   4.459   1.901  0.2943  0.6457 -0.7011
 1614SOL    HW2 5413   1.059   4.541   2.028 -0.4126 -1.9487  1.0663
 1615SOL     OW 5414   3.420   3.565   5.312 -0.2249 -0.1834 -0.2981
 1615SOL    HW1 5415   3.451   3.588   5.400 -1.8191 -0.6981  0.4352
 1615SOL    HW2 5416   3.480   3.497   5.283 -0.3669 -0.8643  0.9150
 1616SOL     OW 5417   2.165   3.236   1.952 -0.4735  0.1620 -0.1384
 1616SOL    HW1 5418   2.117   3.299   2.007 -0.8147 -0.4526  0.2771
 1616SOL    HW2 5419   2.174   3.158   2.007  0.3566  0.0027 -0.4843
 1617SOL     OW 5420   3.792   0.899   2.551  0.3038  0.4395 -0.5241
 1617SOL    HW1 5421   3.772   0.833   2.484 -0.7990 -1.0902  1.1961
 1617SOL    HW2 5422   3.711   0.949   2.561  0.4102  0.5572 -0.2393
 1618SOL     OW 5423   0.533   2.328   1.338 -0.1504  0.6202  0.7403
 1618SOL    HW1 5424   0.447   2.361   1.310 -1.6842 -2.8158  0.8482
 1618SOL    HW2 5425   0.594   2.363   1.273 -2.0701  1.0338 -0.9539
 1619SOL     OW 5426   0.476   3.169   0.229  0.2497  0.0056 -0.5072
 1619SOL    HW1 5427   0.443   3.079   0.225 -0.2916  0.2419 -2.1194
 1619SOL    HW2 5428   0.441   3.210   0.150  1.7731  1.2016 -0.5875
 1620SOL     OW 5429   3.050   4.407   0.772 -0.6765  0.3566  0.0678
 1620SOL    HW1 5430   2.999   4.436   0.696  0.9810 -1.1161 -1.7034
 1620SOL    HW2 5431   2.993   4.344   0.816 -1.0523 -0.0128 -0.9128
 1621SOL     OW 5432   5.483   6.610   3.182 -0.0705  0.2825  0.0900
 1621SOL    HW1 5433   5.485   6.633   3.275  0.8001 -0.9746  0.4097
 1621SOL    HW2 5434   5.576   6.606   3.156 -0.2891  0.0891 -0.6958
 1622SOL     OW 5435   4.333   3.326   3.007 -0.3149  0.2098  0.1136
 1622SOL    HW1 5436   4.359   3.355   3.095  0.1868 -1.8117  0.6752
 1622SOL    HW2 5437   4.273   3.253   3.023 -0.4983  0.0370 -1.2512
 1623SOL     OW 5438   3.764   3.069   7.037  0.1344  0.2959 -0.2782
 1623SOL    HW1 5439   3.805   3.091   7.121  0.3577 -2.5740  0.4999
 1623SOL    HW2 5440   3.837   3.064   6.975 -0.0047  2.2006 -0.6599
 1624SOL     OW 5441   3.807   3.291   3.127  0.7204 -0.0555 -0.4590
 1624SOL    HW1 5442   3.807   3.342   3.208 -0.8589 -0.3937 -0.2063
 1624SOL    HW2 5443   3.737   3.330   3.074 -0.3503 -1.7477 -0.3715
 1625SOL     OW 5444   5.445   1.215   1.999 -0.2941 -0.0442 -0.5092
 1625SOL    HW1 5445   5.358   1.249   1.981  1.1153  2.7777 -2.6871
 1625SOL    HW2 5446   5.484   1.200   1.913  1.1518 -2.0824  0.4101
 1626SOL     OW 5447   6.308   1.946   6.059 -0.1340 -0.5875 -0.6972
 1626SOL    HW1 5448   6.288   2.038   6.079  1.6808 -0.3101  0.0414
 1626SOL    HW2 5449   6.391   1.930   6.104  1.2949 -1.6092 -3.4710
 1627SOL     OW 5450   3.881   0.631   3.721  0.0526 -0.2129 -0.1801
 1627SOL    HW1 5451   3.973   0.627   3.747  0.1941 -0.9523 -0.7878
 1627SOL    HW2 5452   3.848   0.542   3.732 -0.1084 -0.3698 -1.6742
 1628SOL     OW 5453   2.496   4.464   1.767  0.0625 -0.2741 -0.2618
 1628SOL    HW1 5454   2.591   4.456   1.777  0.1398  0.3337 -0.4031
 1628SOL    HW2 5455   2.465   4.491   1.853  0.2891  1.5219 -0.6911
 1629SOL     OW 5456   4.710   3.395   5.548 -0.1315 -0.0087 -0.5595
 1629SOL    HW1 5457   4.674   3.378   5.635  1.0626 -0.9499 -0.2073
 1629SOL    HW2 5458   4.717   3.308   5.508  1.1529  0.2001 -0.8285
 1630SOL     OW 5459   0.724   0.384   6.458  0.0921 -0.7950 -0.6638
 1630SOL    HW1 5460   0.766   0.367   6.374  0.4410 -0.5886 -0.5322
 1630SOL    HW2 5461   0.707   0.478   6.457  1.6414 -0.4686  0.1945
 1631SOL     OW 5462   4.077   6.314   7.316  0.5732 -0.4306  0.3469
 1631SOL    HW1 5463   4.108   6.318   7.407 -0.6602 -1.6439  0.8680
 1631SOL    HW2 5464   4.057   6.221   7.302 -3.3960  0.2669  0.3216
 1632SOL     OW 5465   4.606   0.098   7.362  0.1012  0.4365  0.0187
 1632SOL    HW1 5466   4.596   0.180   7.313 -0.2212  0.6078  0.3617
 1632SOL    HW2 5467   4.547   0.037   7.319 -1.6444  1.1101  1.3057
 1633SOL     OW 5468   3.125   0.708   1.264 -0.2428  0.0493  0.5715
 1633SOL    HW1 5469   3.217   0.731   1.251 -0.3953  1.0506  1.1119
 1633SOL    HW2 5470   3.097   0.671   1.180  0.3678  0.7396  0.0526
 1634SOL     OW 5471   3.554   1.467   1.407 -0.0789  0.2111  0.2770
 1634SOL    HW1 5472   3.574   1.540   1.466  0.6227 -0.2518  0.6158
 1634SOL    HW2 5473   3.492   1.413   1.456  1.4046 -0.7999  1.0816
 1635SOL     OW 5474   1.023   5.383   2.262  0.0339 -0.0725  0.4565
 1635SOL    HW1 5475   0.975   5.312   2.305  0.8579 -1.2413 -0.5012
 1635SOL    HW2 5476   1.074   5.340   2.194  0.6610  1.4357 -0.0689
 1636SOL     OW 5477   2.169   6.376   0.259  0.5482 -0.0810  0.1559
 1636SOL    HW1 5478   2.221   6.432   0.201  0.9851 -1.9312 -1.3565
 1636SOL    HW2 5479   2.085   6.420   0.267  0.8947  0.8164 -0.9329
 1637SOL     OW 5480   1.052   1.240   6.498  0.5729  0.5480 -0.1874
 1637SOL    HW1 5481   1.025   1.154   6.532 -1.1919  1.0635 -0.1825
 1637SOL    HW2 5482   1.130   1.263   6.548  0.7402 -0.7940  0.2039
 1638SOL     OW 5483   3.672   5.802   3.064 -0.1798  0.4233  0.2364
 1638SOL    HW1 5484   3.738   5.736   3.038  0.2519  0.7207  0.5705
 1638SOL    HW2 5485   3.649   5.779   3.154 -2.3506 -1.1612 -0.6355
 1639SOL     OW 5486   1.333   5.820   0.572 -0.1263  0.1470 -0.3759
 1639SOL    HW1 5487   1.254   5.835   0.520 -1.5366 -4.8579 -0.2223
 1639SOL    HW2 5488   1.333   5.725   0.588  5.9217 -0.2047 -0.3053
 1640SOL     OW 5489   0.585   0.978   5.968 -0.2541  0.0703 -0.3375
 1640SOL    HW1 5490   0.516   0.944   5.912 -0.1209  0.6724 -0.8732
 1640SOL    HW2 5491   0.539   1.021   6.040 -0.4290 -1.2575  0.3967
 1641SOL     OW 5492   4.982   5.190   4.026 -0.4262  0.0987 -0.3162
 1641SOL    HW1 5493   4.913   5.124   4.033 -1.3241  0.9830 -0.6229
 1641SOL    HW2 5494   5.048   5.162   4.090 -1.0958 -0.7207  0.0378
 1642SOL     OW 5495   3.053   6.777   6.195 -0.1084 -0.0956  0.1004
 1642SOL    HW1 5496   3.010   6.696   6.223 -2.0092  0.4028 -1.2100
 1642SOL    HW2 5497   2.985   6.843   6.199  0.9397  1.0694 -0.6446
 1643SOL     OW 5498   4.451   3.550   1.658  0.2725 -0.0448 -0.3145
 1643SOL    HW1 5499   4.521   3.590   1.709 -1.8030  1.6974  1.3913
 1643SOL    HW2 5500   4.469   3.456   1.660  1.3672  0.1640  1.9713
 1644SOL     OW 5501   0.552   3.679   1.631  0.3370 -0.2042  0.1857
 1644SOL    HW1 5502   0.498   3.706   1.556  2.2813 -1.5082 -1.8344
 1644SOL    HW2 5503   0.500   3.614   1.677 -0.5897  0.0255 -0.5078
 1645SOL     OW 5504   6.024   0.978   2.079 -0.4818  0.0460  0.5685
 1645SOL    HW1 5505   5.947   0.925   2.058  1.2379 -2.4346  0.0862
 1645SOL    HW2 5506   6.063   0.934   2.154  0.9719  0.6716  0.2082
 1646SOL     OW 5507   5.036   7.388   6.014  0.5144 -0.1188 -0.0163
 1646SOL    HW1 5508   5.035   7.298   5.980  0.9035 -1.0157  2.1582
 1646SOL    HW2 5509   4.958   7.393   6.069 -0.2981  1.3947 -1.2428
 1647SOL     OW 5510   0.239   4.349   5.785 -0.2846  0.0391  0.3434
 1647SOL    HW1 5511   0.192   4.396   5.854 -1.4203 -0.5597  0.0078
 1647SOL    HW2 5512   0.310   4.305   5.831  0.4106  1.5441  0.7494
 1648SOL     OW 5513   6.603   3.797   3.717  0.0361 -0.7875 -0.2844
 1648SOL    HW1 5514   6.511   3.824   3.726  0.2159 -0.5064  0.9351
 1648SOL    HW2 5515   6.611   3.721   3.775  0.4372 -1.1666 -0.8350
 1649SOL     OW 5516   4.533   3.649   0.532  0.6037  0.0273  0.3773
 1649SOL    HW1 5517   4.555   3.722   0.475  0.4425 -0.0884  0.1645
 1649SOL    HW2 5518   4.610   3.591   0.527  1.0146  0.5035  1.0786
 1650SOL     OW 5519   6.803   5.972   1.107  0.1974  0.4717 -0.0424
 1650SOL    HW1 5520   6.833   5.885   1.133 -0.2252  0.5971  0.8751
 1650SOL    HW2 5521   6.708   5.965   1.104  0.2221  0.4390 -1.6662
 1651SOL     OW 5522   5.016   0.846   6.761  0.2428 -0.1633 -0.7929
 1651SOL    HW1 5523   5.015   0.751   6.763  0.0216 -0.1574  0.3367
 1651SOL    HW2 5524   5.001   0.869   6.670  0.1893 -1.2070 -1.0576
 1652SOL     OW 5525   4.714   2.084   6.939 -0.3782 -0.1813 -0.0030
 1652SOL    HW1 5526   4.707   1.993   6.913 -0.9319 -0.4522  1.0253
 1652SOL    HW2 5527   4.788   2.087   7.000 -0.9017 -0.1110  0.6350
 1653SOL     OW 5528   4.624   6.371   7.281 -0.6906 -0.4605 -0.6666
 1653SOL    HW1 5529   4.697   6.327   7.323 -0.9992 -0.1242  0.2607
 1653SOL    HW2 5530   4.597   6.312   7.211 -0.3124 -1.1560 -0.2412
 1654SOL     OW 5531   2.622   6.085   3.814 -0.3792  0.3793 -0.7109
 1654SOL    HW1 5532   2.685   6.156   3.801  1.1442 -0.8653 -0.3162
 1654SOL    HW2 5533   2.560   6.095   3.741 -0.1924  2.0688 -0.6925
 1655SOL     OW 5534   0.616   4.484   2.429  0.6904  0.2109  0.0560
 1655SOL    HW1 5535   0.702   4.479   2.387  0.4260  0.1117 -0.4791
 1655SOL    HW2 5536   0.634   4.520   2.516  1.3954 -0.6395  0.2837
 1656SOL     OW 5537   1.252   3.426   1.808 -0.2301 -0.0543 -0.2037
 1656SOL    HW1 5538   1.250   3.369   1.731 -1.8607 -0.4789  0.1195
 1656SOL    HW2 5539   1.253   3.515   1.772  1.1900 -0.2464 -0.6991
 1657SOL     OW 5540   3.010   6.698   2.929 -0.3434 -0.0041  0.0253
 1657SOL    HW1 5541   3.077   6.757   2.895  0.5006 -0.5172  0.7258
 1657SOL    HW2 5542   2.949   6.686   2.857  0.2267  0.6176 -0.5777
 1658SOL     OW 5543   4.411   4.571   5.301  0.2291 -0.0378  0.4588
 1658SOL    HW1 5544   4.351   4.588   5.228  1.0494  0.7352 -0.0485
 1658SOL    HW2 5545   4.425   4.476   5.299  0.0289 -0.0550 -0.2073
 1659SOL     OW 5546   6.925   2.358   3.873 -0.0323 -0.1078 -0.0646
 1659SOL    HW1 5547   6.933   2.283   3.813  2.4334 -0.2380  0.3097
 1659SOL    HW2 5548   6.936   2.435   3.817 -1.0114 -0.0679 -0.2202
 1660SOL     OW 5549   3.005   7.102   6.007 -0.4685  0.1312  0.5759
 1660SOL    HW1 5550   2.978   7.047   6.081  1.7086 -2.2746 -0.2493
 1660SOL    HW2 5551   3.077   7.155   6.042  0.7437 -1.2034  0.1814
 1661SOL     OW 5552   4.548   5.923   4.494  0.6030  0.6842  0.1552
 1661SOL    HW1 5553   4.514   6.001   4.537 -1.9246  0.4002 -1.1348
 1661SOL    HW2 5554   4.606   5.956   4.425 -0.0540  1.4230 -0.0569
 1662SOL     OW 5555   3.693   2.825   2.678  0.1156 -0.5119 -0.2009
 1662SOL    HW1 5556   3.675   2.913   2.646 -2.1069  0.0284  2.1712
 1662SOL    HW2 5557   3.784   2.829   2.708  0.4468  0.5767 -1.2875
 1663SOL     OW 5558   6.874   5.184   3.832 -0.0245 -0.4476 -0.5854
 1663SOL    HW1 5559   6.818   5.258   3.805 -0.4202  0.4230  2.3110
 1663SOL    HW2 5560   6.829   5.107   3.798 -1.8436  0.3900 -0.2135
 1664SOL     OW 5561   3.173   0.630   0.519 -0.3827 -0.3029 -0.1309
 1664SOL    HW1 5562   3.090   0.679   0.516 -0.3944 -0.3657 -0.9479
 1664SOL    HW2 5563   3.165   0.576   0.598 -0.1899  1.3067  1.0417
 1665SOL     OW 5564   6.602   3.607   1.611 -0.3274  0.3908 -0.2395
 1665SOL    HW1 5565   6.561   3.523   1.632 -0.3492  0.6048  0.6040
 1665SOL    HW2 5566   6.654   3.628   1.688 -1.8952  2.1223  0.4249
 1666SOL     OW 5567   6.177   3.104   4.786 -0.3464 -0.0982 -0.2959
 1666SOL    HW1 5568   6.108   3.112   4.721 -1.5130 -0.3616  0.8636
 1666SOL    HW2 5569   6.206   3.013   4.778 -0.1539  0.0004 -0.7567
 1667SOL     OW 5570   1.485   3.072   4.322 -0.2053  0.0450  0.2356
 1667SOL    HW1 5571   1.540   3.148   4.341 -1.7273  1.3551 -0.3521
 1667SOL    HW2 5572   1.412   3.108   4.271 -0.4199 -1.9991 -0.9880
 1668SOL     OW 5573   3.253   3.637   6.218 -0.6185 -0.2760  0.4377
 1668SOL    HW1 5574   3.197   3.561   6.203 -0.4809 -0.7216  1.9932
 1668SOL    HW2 5575   3.323   3.605   6.275 -1.1186  1.2185  1.9941
 1669SOL     OW 5576   0.108   2.649   1.373  0.2259 -0.2607 -0.4189
 1669SOL    HW1 5577   0.158   2.602   1.440  0.4444  0.8003  0.1915
 1669SOL    HW2 5578   0.128   2.604   1.291 -0.1441 -1.6625  0.2422
 1670SOL     OW 5579   1.615   1.535   5.236 -0.0698  0.4369 -0.4185
 1670SOL    HW1 5580   1.624   1.511   5.143 -1.7395  1.3868 -0.8567
 1670SOL    HW2 5581   1.687   1.488   5.279 -0.8896 -2.2801 -1.7539
 1671SOL     OW 5582   2.591   5.113   0.932  0.6521  0.0128 -0.8900
 1671SOL    HW1 5583   2.514   5.082   0.981 -0.0103  0.6932 -1.4856
 1671SOL    HW2 5584   2.663   5.058   0.964 -0.1438 -0.8819 -0.5868
 1672SOL     OW 5585   6.947   6.910   1.521 -0.2600 -0.1013  0.2532
 1672SOL    HW1 5586   6.871   6.951   1.479 -1.2917 -1.1321  1.0199
 1672SOL    HW2 5587   7.017   6.975   1.515 -0.4555 -0.0413 -2.6684
 1673SOL     OW 5588   0.754   2.049   7.401 -0.0379 -0.0337  0.6839
 1673SOL    HW1 5589   0.731   1.993   7.327  0.7444 -0.6599  0.9133
 1673SOL    HW2 5590   0.825   2.004   7.445  0.7824  1.2432  0.7377
 1674SOL     OW 5591   2.246   7.066   4.169 -0.0763  0.0345  0.5157
 1674SOL    HW1 5592   2.263   7.159   4.156  1.5758  0.0245  2.2029
 1674SOL    HW2 5593   2.284   7.023   4.092  0.0233  0.6769  0.2016
 1675SOL     OW 5594   2.760   3.414   1.147  0.0356 -0.1194 -0.1729
 1675SOL    HW1 5595   2.671   3.404   1.181  0.4517  0.2694  1.1005
 1675SOL    HW2 5596   2.795   3.490   1.194  1.3239 -0.7862  0.0017
 1676SOL     OW 5597   0.382   5.416   6.712  0.0815 -1.2683 -0.4993
 1676SOL    HW1 5598   0.472   5.441   6.733 -0.4688 -0.2417  0.7880
 1676SOL    HW2 5599   0.380   5.321   6.726  0.8909 -1.2564 -0.2273
 1677SOL     OW 5600   0.173   4.338   0.456  0.5166  0.6024 -0.3774
 1677SOL    HW1 5601   0.095   4.309   0.409  0.1985  0.9120 -0.0552
 1677SOL    HW2 5602   0.139   4.400   0.522  0.8107 -0.6275  0.9877
 1678SOL     OW 5603   4.300   4.376   6.087 -0.1902 -0.3456 -0.1931
 1678SOL    HW1 5604   4.218   4.426   6.087 -0.3004 -0.5256 -0.5051
 1678SOL    HW2 5605   4.277   4.291   6.051  0.0004 -0.6266  0.3468
 1679SOL     OW 5606   6.506   0.297   5.280 -0.0571  0.4056 -0.3132
 1679SOL    HW1 5607   6.419   0.271   5.249 -0.8523  0.6546  1.6253
 1679SOL    HW2 5608   6.492   0.381   5.323  0.8841 -0.1875  1.1976
 1680SOL     OW 5609   0.814   0.421   3.998  0.3608  0.1459 -0.5417
 1680SOL    HW1 5610   0.868   0.395   3.924  1.7807 -0.9992  0.8227
 1680SOL    HW2 5611   0.853   0.502   4.030  0.0414  0.3895 -0.7745
 1681SOL     OW 5612   6.383   1.251   0.498 -0.2299  0.7997 -0.1234
 1681SOL    HW1 5613   6.453   1.308   0.531 -0.2809  0.8613 -0.1213
 1681SOL    HW2 5614   6.333   1.226   0.575  0.0799  0.3600 -0.0610
 1682SOL     OW 5615   1.780   7.205   6.615 -0.3156  0.0953  0.4410
 1682SOL    HW1 5616   1.860   7.256   6.633 -0.1611  0.0860 -0.2079
 1682SOL    HW2 5617   1.712   7.250   6.665 -0.3550  1.4714 -0.7690
 1683SOL     OW 5618   0.269   0.928   0.278  0.3050 -0.1101  0.3506
 1683SOL    HW1 5619   0.192   0.876   0.303  0.2751  0.1006  0.7133
 1683SOL    HW2 5620   0.322   0.869   0.225 -1.1008  0.3791 -1.6996
 1684SOL     OW 5621   6.041   2.744   2.313 -0.2939  0.0200 -0.4159
 1684SOL    HW1 5622   6.046   2.744   2.408  0.1135  0.5815 -0.4350
 1684SOL    HW2 5623   5.994   2.663   2.291  0.9405 -0.8944  0.1823
 1685SOL     OW 5624   0.977   6.463   3.230  0.3179 -0.1164 -0.5571
 1685SOL    HW1 5625   0.943   6.432   3.314  1.8431  0.7502  0.4311
 1685SOL    HW2 5626   1.067   6.489   3.249  1.0979 -1.0064 -2.7464
 1686SOL     OW 5627   7.351   6.869   2.579  0.4475 -0.1854  0.2036
 1686SOL    HW1 5628   7.296   6.913   2.514 -0.3416  2.0322  2.2493
 1686SOL    HW2 5629   7.432   6.919   2.580  0.4962 -0.2679  0.8520
 1687SOL     OW 5630   5.324   5.709   0.071 -0.3873 -0.2351 -0.1459
 1687SOL    HW1 5631   5.411   5.700   0.033  0.4688 -0.2415  1.7082
 1687SOL    HW2 5632   5.286   5.786   0.027  0.4801 -0.3257 -1.0759
 1688SOL     OW 5633   6.160   0.380   4.107  0.5505 -0.2439  0.1903
 1688SOL    HW1 5634   6.170   0.297   4.060 -1.8537 -0.0940 -0.7419
 1688SOL    HW2 5635   6.206   0.367   4.190  1.1926 -2.0765 -0.4104
 1689SOL     OW 5636   4.471   6.603   1.572  0.3801 -0.5723  0.4570
 1689SOL    HW1 5637   4.423   6.558   1.641 -1.4488  1.2804  0.4766
 1689SOL    HW2 5638   4.562   6.575   1.584  0.3414  0.3701  4.2554
 1690SOL     OW 5639   2.496   1.963   6.889  0.1403 -0.2132 -0.1186
 1690SOL    HW1 5640   2.590   1.949   6.899 -0.1233 -2.0878  0.0379
 1690SOL    HW2 5641   2.456   1.880   6.913 -1.6967  0.9947  1.3296
 1691SOL     OW 5642   3.618   0.458   3.754 -0.0526  0.2883 -0.7923
 1691SOL    HW1 5643   3.546   0.515   3.778  0.2168  1.0123 -1.6647
 1691SOL    HW2 5644   3.632   0.474   3.661  0.8414 -0.2895 -0.7731
 1692SOL     OW 5645   3.609   6.621   6.455 -0.0638  0.2118  0.0090
 1692SOL    HW1 5646   3.667   6.544   6.456 -1.2069 -0.6756 -0.1219
 1692SOL    HW2 5647   3.562   6.616   6.538 -1.7676 -0.5321 -0.9505
 1693SOL     OW 5648   6.844   4.961   0.036 -0.0771  0.1517  0.3549
 1693SOL    HW1 5649   6.926   4.957  -0.012 -0.9136 -0.3140 -1.1106
 1693SOL    HW2 5650   6.835   5.052   0.063  0.6849  0.3020  0.1132
 1694SOL     OW 5651   1.440   6.136   6.149  0.0347 -0.2379 -0.0061
 1694SOL    HW1 5652   1.381   6.211   6.146 -0.4825 -0.6477 -0.0444
 1694SOL    HW2 5653   1.444   6.105   6.059  3.3948  2.1462 -0.8912
 1695SOL     OW 5654   4.312   4.627   2.857 -0.0744 -0.0184 -0.1571
 1695SOL    HW1 5655   4.310   4.533   2.844 -3.2031  0.1439 -2.2078
 1695SOL    HW2 5656   4.350   4.662   2.776 -0.9282  0.4905 -0.3583
 1696SOL     OW 5657   2.629   1.591   4.036  0.1108 -0.1766  0.0241
 1696SOL    HW1 5658   2.721   1.611   4.054  0.7511 -2.3664 -0.4953
 1696SOL    HW2 5659   2.611   1.634   3.953  0.6291  0.3521  0.1768
 1697SOL     OW 5660   5.151   1.471   0.488  0.0849 -0.5946  0.5329
 1697SOL    HW1 5661   5.191   1.405   0.431 -0.5143  0.7826 -1.5628
 1697SOL    HW2 5662   5.104   1.419   0.554 -0.9320 -2.3354 -1.4241
 1698SOL     OW 5663   0.509   5.323   1.236 -0.5946 -0.3221 -0.1803
 1698SOL    HW1 5664   0.546   5.372   1.310 -0.7277 -1.1718  0.4713
 1698SOL    HW2 5665   0.578   5.261   1.212 -0.7271 -0.3597 -0.4631
 1699SOL     OW 5666   3.318   3.971   0.859 -0.0020 -0.2897 -0.0625
 1699SOL    HW1 5667   3.366   3.889   0.850 -0.9743 -1.0244  1.1903
 1699SOL    HW2 5668   3.240   3.960   0.804 -0.0930 -0.1766  0.0421
 1700SOL     OW 5669   7.368   5.114   5.982 -0.0272 -0.4050 -0.0195
 1700SOL    HW1 5670   7.331   5.092   6.067 -0.5620  1.7259  0.3311
 1700SOL    HW2 5671   7.456   5.145   6.001 -0.0461 -0.1846 -0.2851
 1701SOL     OW 5672   4.272   2.981   4.704 -0.0799 -0.4922  0.0853
 1701SOL    HW1 5673   4.243   3.021   4.785 -1.8199 -0.0836 -0.6896
 1701SOL    HW2 5674   4.290   2.890   4.727  2.5072  0.2930  1.5472
 1702SOL     OW 5675   2.978   3.126   5.556 -0.1474 -0.2917  0.1370
 1702SOL    HW1 5676   2.974   3.151   5.464 -0.5989  0.1640  0.2717
 1702SOL    HW2 5677   2.889   3.142   5.588  0.0635 -0.2407  0.7037
 1703SOL     OW 5678   6.993   5.670   7.103  0.5215 -0.2666  0.0996
 1703SOL    HW1 5679   6.943   5.739   7.060  0.4709 -0.2195  0.2337
 1703SOL    HW2 5680   7.019   5.708   7.187  1.0345 -0.1829 -0.0923
 1704SOL     OW 5681   1.818   3.215   7.059  0.3102 -0.2729  0.2246
 1704SOL    HW1 5682   1.905   3.251   7.039  0.6469 -0.3373  1.4924
 1704SOL    HW2 5683   1.825   3.122   7.038  0.1083 -0.0360 -0.9793
 1705SOL     OW 5684   6.470   6.637   2.842  0.4518 -0.2244 -0.1010
 1705SOL    HW1 5685   6.540   6.647   2.778  0.5467  0.7905  0.1465
 1705SOL    HW2 5686   6.441   6.726   2.860 -1.5869 -0.6509 -0.9519
 1706SOL     OW 5687   6.800   0.328   0.477  0.1389  0.2848 -0.0283
 1706SOL    HW1 5688   6.720   0.308   0.524  1.5391 -2.7988  1.3159
 1706SOL    HW2 5689   6.866   0.339   0.545  1.4575 -0.3423 -1.1520
 1707SOL     OW 5690   5.616   7.397   3.283  0.5765  0.3409  0.6854
 1707SOL    HW1 5691   5.538   7.373   3.333  0.4739 -0.2185  0.2616
 1707SOL    HW2 5692   5.688   7.390   3.346  0.6499 -1.7670  0.4123
 1708SOL     OW 5693   0.848   6.166   7.370  0.0664 -0.4007  0.2358
 1708SOL    HW1 5694   0.792   6.088   7.363 -0.4496 -0.0373  0.3352
 1708SOL    HW2 5695   0.809   6.229   7.309 -0.4379  0.3449  1.3118
 1709SOL     OW 5696   1.188   0.114   1.156  0.2944 -0.2864 -0.1699
 1709SOL    HW1 5697   1.226   0.036   1.197  0.2935 -0.0081  0.3748
 1709SOL    HW2 5698   1.242   0.129   1.079  1.3658  0.1532  0.6357
 1710SOL     OW 5699   5.116   1.031   5.549  0.5818 -0.3789  0.3595
 1710SOL    HW1 5700   5.181   0.969   5.517  0.5325 -0.2969  0.0926
 1710SOL    HW2 5701   5.080   1.071   5.469 -0.7937 -1.4251  0.4042
 1711SOL     OW 5702   1.935   6.144   5.521 -0.2269  0.2953 -0.4998
 1711SOL    HW1 5703   1.873   6.216   5.526  1.0887  1.3926  0.6167
 1711SOL    HW2 5704   1.885   6.072   5.483 -1.6916  1.6517 -1.2332
 1712SOL     OW 5705   0.404   1.023   4.245 -0.3554  0.1846 -0.1418
 1712SOL    HW1 5706   0.443   1.062   4.324  0.1738  2.5690 -1.5103
 1712SOL    HW2 5707   0.335   0.966   4.279 -1.5035  2.6485  2.0172
 1713SOL     OW 5708   3.268   0.349   4.972  0.5716 -0.2372 -0.4982
 1713SOL    HW1 5709   3.308   0.299   4.901  0.1749 -1.3342  0.0353
 1713SOL    HW2 5710   3.189   0.301   4.994  0.3729  0.4264  0.2867
 1714SOL     OW 5711   1.910   3.470   3.356  0.5780  0.3992  0.5016
 1714SOL    HW1 5712   1.842   3.420   3.311 -0.0428  2.5539 -1.1351
 1714SOL    HW2 5713   1.970   3.403   3.390 -1.4923 -1.5000  0.6318
 1715SOL     OW 5714   3.767   2.165   6.003 -0.8519  0.1267  0.1199
 1715SOL    HW1 5715   3.856   2.197   5.985 -0.3131 -1.3210  0.0987
 1715SOL    HW2 5716   3.780   2.076   6.034 -2.2178  0.3397  1.4053
 1716SOL     OW 5717   6.224   2.833   4.772 -0.4179  0.6513  0.1418
 1716SOL    HW1 5718   6.203   2.841   4.865 -0.7482  2.0431 -0.0239
 1716SOL    HW2 5719   6.176   2.756   4.743 -0.5416  0.3713  1.0581
 1717SOL     OW 5720   6.193   7.159   7.395  0.2099  0.9203 -0.5247
 1717SOL    HW1 5721   6.145   7.233   7.433  0.3812  0.1993  1.1450
 1717SOL    HW2 5722   6.134   7.126   7.327 -0.2709  2.0065 -0.6636
 1718SOL     OW 5723   4.434   3.170   0.736 -0.1853  0.2205 -0.6914
 1718SOL    HW1 5724   4.386   3.250   0.713 -2.3690  0.6288  4.0209
 1718SOL    HW2 5725   4.490   3.197   0.809  0.4641 -2.1934 -0.2320
 1719SOL     OW 5726   2.729   0.192   7.304 -0.6975 -0.3279 -0.1120
 1719SOL    HW1 5727   2.649   0.243   7.291 -1.1464 -1.1041 -0.5266
 1719SOL    HW2 5728   2.700   0.101   7.294  0.3738 -0.5840 -0.9864
 1720SOL     OW 5729   4.904   0.935   5.296 -0.2336  0.7354 -0.1719
 1720SOL    HW1 5730   4.932   0.863   5.352  0.5946  0.6334 -0.6995
 1720SOL    HW2 5731   4.825   0.903   5.254 -1.3957  1.1535  1.6001
 1721SOL     OW 5732   0.221   1.900   6.619 -0.6621  0.2089  0.6116
 1721SOL    HW1 5733   0.303   1.879   6.573 -1.1363  0.5379 -0.3997
 1721SOL    HW2 5734   0.222   1.996   6.625 -2.6112  0.5712 -2.6142
 1722SOL     OW 5735   2.782   3.748   2.155  0.2612  0.1468 -0.4919
 1722SOL    HW1 5736   2.726   3.714   2.225  1.6671 -1.7121 -0.2264
 1722SOL    HW2 5737   2.809   3.671   2.106  0.9526  1.2277 -1.8719
 1723SOL     OW 5738   5.474   0.574   3.465  0.1715 -0.1565 -0.3532
 1723SOL    HW1 5739   5.437   0.580   3.553  0.1574  0.4279 -0.3939
 1723SOL    HW2 5740   5.488   0.665   3.439 -1.8094 -0.1871 -1.7766
 1724SOL     OW 5741   3.561   7.194   3.827 -0.7849  0.1215  0.2507
 1724SOL    HW1 5742   3.505   7.184   3.904 -1.9286  0.3864 -0.5133
 1724SOL    HW2 5743   3.608   7.276   3.843 -0.7608  0.0044  0.8219
 1725SOL     OW 5744   1.814   2.485   6.706 -0.4239  0.6223 -0.0787
 1725SOL    HW1 5745   1.782   2.472   6.617  0.0464  0.6702 -0.2541
 1725SOL    HW2 5746   1.773   2.413   6.756 -0.1991  0.2268 -0.4555
 1726SOL     OW 5747   5.999   5.487   3.339 -0.1884 -0.6281 -0.1013
 1726SOL    HW1 5748   6.048   5.567   3.357 -0.5408 -0.3416 -0.3935
 1726SOL    HW2 5749   6.048   5.445   3.268 -0.2201 -0.4759 -0.2128
 1727SOL     OW 5750   6.358   2.190   4.611  0.2687 -0.2441 -0.4110
 1727SOL    HW1 5751   6.296   2.146   4.670 -1.3948  1.4781 -0.7917
 1727SOL    HW2 5752   6.309   2.203   4.530  1.4930  0.2180 -1.1062
 1728SOL     OW 5753   7.381   7.050   1.246  0.1430 -0.3339 -0.2040
 1728SOL    HW1 5754   7.351   7.093   1.165 -2.3480  2.6059  2.0439
 1728SOL    HW2 5755   7.475   7.042   1.234  0.0943  1.4194 -2.7964
 1729SOL     OW 5756   0.025   6.279   5.789 -0.2567 -0.3745 -0.4280
 1729SOL    HW1 5757   0.011   6.290   5.883  2.6063 -0.0260  0.0472
 1729SOL    HW2 5758   0.014   6.367   5.753  1.1138 -0.0029  0.0063
 1730SOL     OW 5759   3.306   7.114   0.189 -0.5899  0.3820  0.6253
 1730SOL    HW1 5760   3.376   7.053   0.165 -0.9497  0.6815 -1.3288
 1730SOL    HW2 5761   3.255   7.068   0.255 -1.3735 -1.8434 -1.4051
 1731SOL     OW 5762   1.038   0.395   2.461  0.3103 -0.4602  0.2763
 1731SOL    HW1 5763   1.025   0.308   2.498 -0.3396 -0.6421 -0.3533
 1731SOL    HW2 5764   0.950   0.434   2.460  0.5883  0.2019  0.5299
 1732SOL     OW 5765   4.747   3.950   1.800 -0.0960 -0.2572  0.1253
 1732SOL    HW1 5766   4.792   3.877   1.757  0.3388  0.4691 -0.7023
 1732SOL    HW2 5767   4.773   4.027   1.749 -0.9323  0.4117  0.6776
 1733SOL     OW 5768   6.775   1.647   1.088  1.0512 -0.2959  0.5959
 1733SOL    HW1 5769   6.680   1.654   1.080  0.9115 -1.4855  0.9842
 1733SOL    HW2 5770   6.792   1.661   1.182  1.4607  1.6551  0.2766
 1734SOL     OW 5771   6.817   2.605   3.709 -0.0627 -0.0891  0.6822
 1734SOL    HW1 5772   6.747   2.600   3.774 -0.2700 -0.4182  0.4333
 1734SOL    HW2 5773   6.812   2.523   3.661 -0.5543  0.5558 -0.4119
 1735SOL     OW 5774   1.373   0.195   4.229 -0.4478  0.0376  0.8846
 1735SOL    HW1 5775   1.347   0.125   4.288  0.0027 -1.0227 -0.1345
 1735SOL    HW2 5776   1.303   0.260   4.236 -1.1828 -0.7858  1.3916
 1736SOL     OW 5777   3.462   6.722   0.005  0.1540  0.1713 -0.7020
 1736SOL    HW1 5778   3.536   6.687   0.055  0.9428  1.0624 -1.2279
 1736SOL    HW2 5779   3.393   6.657   0.017  0.3794  0.2456  1.3660
 1737SOL     OW 5780   7.103   1.994   0.748 -0.8612  0.2167  0.2424
 1737SOL    HW1 5781   7.097   1.929   0.678 -0.4805 -0.8318  1.1568
 1737SOL    HW2 5782   7.015   1.998   0.785 -0.9691  0.4857 -0.0417
 1738SOL     OW 5783   6.085   4.254   4.479 -0.3494 -0.5879  0.4211
 1738SOL    HW1 5784   6.019   4.315   4.512 -0.1227 -0.8852  1.4679
 1738SOL    HW2 5785   6.169   4.294   4.501 -0.1730 -2.0596  2.7971
 1739SOL     OW 5786   0.756   2.472   6.281 -0.1728  0.3382  0.4751
 1739SOL    HW1 5787   0.760   2.390   6.233  0.1734  0.5983  0.0577
 1739SOL    HW2 5788   0.779   2.539   6.217 -1.8917  0.9316  0.4197
 1740SOL     OW 5789   4.713   2.308   3.940  0.8307  0.0218 -0.1597
 1740SOL    HW1 5790   4.765   2.245   3.889  1.7677  1.9689 -1.7244
 1740SOL    HW2 5791   4.624   2.299   3.905  0.3177 -2.2390  1.4790
 1741SOL     OW 5792   2.999   4.144   7.372  0.1641 -0.0360  0.2394
 1741SOL    HW1 5793   2.953   4.078   7.425 -2.7599  2.3130  0.8734
 1741SOL    HW2 5794   2.970   4.126   7.282 -2.1010  1.3604  0.6213
 1742SOL     OW 5795   2.160   1.427   3.681 -0.2802 -0.0163  0.7069
 1742SOL    HW1 5796   2.101   1.358   3.653 -1.3011  0.5263  1.4408
 1742SOL    HW2 5797   2.116   1.508   3.656  0.5350  0.3934  0.5491
 1743SOL     OW 5798   3.422   0.648   0.220 -0.3586  0.1372 -0.3199
 1743SOL    HW1 5799   3.516   0.649   0.238 -0.4405  0.9441  0.0756
 1743SOL    HW2 5800   3.397   0.740   0.217 -1.2018 -0.0769 -0.0932
 1744SOL     OW 5801   6.989   5.634   1.875 -0.1150  0.1887  0.1636
 1744SOL    HW1 5802   6.921   5.570   1.859 -0.1769  0.4139 -0.4811
 1744SOL    HW2 5803   6.999   5.681   1.793  1.1468 -0.1551  0.0943
 1745SOL     OW 5804   1.120   4.001   3.317 -0.0237 -0.1002  0.7629
 1745SOL    HW1 5805   1.208   3.976   3.289 -0.2206 -0.1293  0.1657
 1745SOL    HW2 5806   1.123   3.996   3.413  0.9668  1.0748  0.8034
 1746SOL     OW 5807   4.080   2.762   1.890  0.2775 -0.1780 -0.2042
 1746SOL    HW1 5808   4.097   2.699   1.820  2.3963  1.3724 -1.1731
 1746SOL    HW2 5809   4.140   2.736   1.960 -1.5396 -1.4666  0.9831
 1747SOL     OW 5810   0.664   5.383   3.643  0.5063  0.2049  0.1571
 1747SOL    HW1 5811   0.681   5.469   3.605  0.4491 -0.5006 -1.5713
 1747SOL    HW2 5812   0.677   5.395   3.737  1.5101  1.8500 -0.1535
 1748SOL     OW 5813   4.994   7.275   3.668 -0.0612  0.3832  0.4449
 1748SOL    HW1 5814   4.995   7.275   3.763 -1.5454 -2.6219  0.5974
 1748SOL    HW2 5815   4.901   7.272   3.645  0.1401  3.5597 -1.2540
 1749SOL     OW 5816   6.055   4.258   7.218 -0.0130  0.3061 -0.5372
 1749SOL    HW1 5817   5.969   4.218   7.203 -0.0651  0.7042 -1.3825
 1749SOL    HW2 5818   6.039   4.352   7.213  0.3309  0.4082  0.1591
 1750SOL     OW 5819   1.648   4.271   3.757  0.3123  0.4793 -0.0359
 1750SOL    HW1 5820   1.732   4.234   3.786 -0.1045  1.6779  3.1944
 1750SOL    HW2 5821   1.583   4.205   3.781  0.0399  1.1234  1.0951
 1751SOL     OW 5822   0.559   4.593   3.761  0.3719  0.0676  0.0135
 1751SOL    HW1 5823   0.469   4.623   3.747 -0.0727 -1.2898 -0.1819
 1751SOL    HW2 5824   0.612   4.657   3.713 -0.4868  0.8530  0.0722
 1752SOL     OW 5825   3.466   4.720   0.672 -0.0257  0.1527  0.7727
 1752SOL    HW1 5826   3.550   4.747   0.709  1.0255 -1.5617 -0.2558
 1752SOL    HW2 5827   3.440   4.644   0.724 -0.3810 -0.0109  0.3593
 1753SOL     OW 5828   3.903   6.786   4.149 -0.1737 -0.3263 -0.3612
 1753SOL    HW1 5829   3.873   6.696   4.160 -1.4089  0.2748  1.8404
 1753SOL    HW2 5830   3.993   6.786   4.182  0.1491 -0.9047 -1.2075
 1754SOL     OW 5831   1.180   0.256   3.779 -0.0120 -0.0347 -0.0568
 1754SOL    HW1 5832   1.148   0.213   3.859 -0.1501  1.6571  0.8557
 1754SOL    HW2 5833   1.267   0.288   3.803  0.1414  0.0632 -0.7453
 1755SOL     OW 5834   4.437   6.274   6.582 -0.2308  0.0422 -0.0833
 1755SOL    HW1 5835   4.412   6.184   6.601  2.2996 -0.8287 -0.5162
 1755SOL    HW2 5836   4.446   6.277   6.487  1.6679  0.1376  0.0672
 1756SOL     OW 5837   7.256   0.300   0.437  0.8140  0.0569 -0.1258
 1756SOL    HW1 5838   7.257   0.292   0.532 -0.1898  0.9260 -0.0276
 1756SOL    HW2 5839   7.264   0.210   0.405  1.1701 -0.2421  0.7714
 1757SOL     OW 5840   4.952   1.803   4.110  0.3474  0.0725 -0.2804
 1757SOL    HW1 5841   4.961   1.708   4.107 -1.4860 -0.1221 -0.9356
 1757SOL    HW2 5842   4.875   1.819   4.166 -1.5432  0.9188 -2.9031
 1758SOL     OW 5843   6.570   4.336   4.092 -0.3937 -0.0179  0.1421
 1758SOL    HW1 5844   6.618   4.255   4.076  0.2685  0.3463  0.2339
 1758SOL    HW2 5845   6.599   4.365   4.179 -1.1411 -0.0321  0.4094
 1759SOL     OW 5846   6.222   1.547   2.622  0.5163  0.1626  0.0175
 1759SOL    HW1 5847   6.211   1.610   2.693  2.0994 -0.3579  0.7677
 1759SOL    HW2 5848   6.303   1.574   2.578 -0.7207  0.8255 -2.0085
 1760SOL     OW 5849   6.790   4.642   5.827 -0.0123  0.6484 -0.3080
 1760SOL    HW1 5850   6.850   4.649   5.753  0.4626  0.5094  0.0574
 1760SOL    HW2 5851   6.843   4.668   5.903 -0.6941  1.5117 -0.1101
 1761SOL     OW 5852   6.451   1.459   3.131  0.1154  0.2333  0.1028
 1761SOL    HW1 5853   6.368   1.460   3.084  0.4722  1.8618 -0.5489
 1761SOL    HW2 5854   6.518   1.461   3.063  0.7789 -2.2433  0.5684
 1762SOL     OW 5855   6.871   3.086   3.803  0.1319 -0.0870 -0.1961
 1762SOL    HW1 5856   6.797   3.073   3.862 -0.2484  0.0525 -0.6375
 1762SOL    HW2 5857   6.902   2.998   3.782  1.7792 -0.1327  2.0666
 1763SOL     OW 5858   1.256   0.144   5.950  0.2265 -0.1683 -0.0670
 1763SOL    HW1 5859   1.189   0.078   5.934 -0.2783  0.6769 -1.6808
 1763SOL    HW2 5860   1.230   0.185   6.033 -0.0946 -1.1828  0.3558
 1764SOL     OW 5861   5.239   6.037   6.240 -0.0942  0.5796 -0.3653
 1764SOL    HW1 5862   5.183   6.108   6.210 -1.0589  0.3622  0.8458
 1764SOL    HW2 5863   5.251   5.981   6.163  1.1493  2.3047 -1.4820
 1765SOL     OW 5864   4.705   6.995   1.103 -0.1379  0.3190  0.9699
 1765SOL    HW1 5865   4.747   7.078   1.081  1.0204 -0.4630  0.1096
 1765SOL    HW2 5866   4.617   7.019   1.133 -0.0065  1.8168  0.2308
 1766SOL     OW 5867   1.388   3.521   6.878 -0.4723 -0.0615 -0.1111
 1766SOL    HW1 5868   1.454   3.559   6.820  0.7662 -0.0056  1.2591
 1766SOL    HW2 5869   1.321   3.588   6.886  0.9763  1.3342  1.1221
 1767SOL     OW 5870   4.236   6.415   6.711 -0.3243  0.0347 -0.2185
 1767SOL    HW1 5871   4.311   6.368   6.673  0.8337  1.0193  0.7577
 1767SOL    HW2 5872   4.163   6.354   6.702  1.1044 -2.0262  1.0393
 1768SOL     OW 5873   7.161   2.340   2.801  0.2282  0.0954 -0.8044
 1768SOL    HW1 5874   7.091   2.304   2.855  0.6796  0.8970  0.3416
 1768SOL    HW2 5875   7.239   2.292   2.828  0.9374  2.1840  1.1083
 1769SOL     OW 5876   6.266   2.470   7.170  0.1525  0.1200  0.0974
 1769SOL    HW1 5877   6.292   2.549   7.122  2.5328 -0.5408  0.1551
 1769SOL    HW2 5878   6.215   2.503   7.244  0.0838  1.5122 -0.5364
 1770SOL     OW 5879   2.792   4.288   0.734 -0.3502 -0.2649  0.6137
 1770SOL    HW1 5880   2.748   4.261   0.814 -1.7714 -0.2757 -0.1378
 1770SOL    HW2 5881   2.786   4.211   0.677 -0.4403  0.1499  0.0619
 1771SOL     OW 5882   0.038   5.619   6.046  0.0884 -0.4363 -0.0494
 1771SOL    HW1 5883   0.123   5.624   6.002 -0.5621 -0.2830 -1.3460
 1771SOL    HW2 5884   0.045   5.681   6.118  1.8020 -1.9786  1.2307
 1772SOL     OW 5885   4.516   0.708   3.186  0.5564  0.3932  0.6110
 1772SOL    HW1 5886   4.436   0.690   3.137  0.2143  1.1705  0.8655
 1772SOL    HW2 5887   4.537   0.626   3.230 -0.8651  0.5255  1.6199
 1773SOL     OW 5888   2.444   7.152   6.635 -0.2222 -0.4974 -0.0162
 1773SOL    HW1 5889   2.411   7.063   6.645  0.8509 -0.9818 -0.6420
 1773SOL    HW2 5890   2.528   7.142   6.590 -0.2843  0.8602 -0.4799
 1774SOL     OW 5891   5.800   6.947   1.277 -0.2157  0.2479  0.1022
 1774SOL    HW1 5892   5.777   7.039   1.260  0.8963  0.3498 -0.9976
 1774SOL    HW2 5893   5.749   6.897   1.213 -2.4997 -0.1640  2.0810
 1775SOL     OW 5894   0.673   5.749   3.841  0.7976  0.1707  0.7368
 1775SOL    HW1 5895   0.674   5.838   3.876  0.2353  0.4937 -0.0440
 1775SOL    HW2 5896   0.631   5.757   3.756  1.0988 -0.7862  0.4863
 1776SOL     OW 5897   2.721   1.776   1.647 -0.4403  0.8907  0.5616
 1776SOL    HW1 5898   2.748   1.842   1.711  1.7350  0.0143  0.6358
 1776SOL    HW2 5899   2.694   1.701   1.700 -1.2135  1.0794  0.4513
 1777SOL     OW 5900   0.676   6.568   0.776 -0.0663 -0.1195 -0.3973
 1777SOL    HW1 5901   0.582   6.555   0.787  0.2630 -3.2306 -0.2735
 1777SOL    HW2 5902   0.715   6.533   0.856  1.2441 -0.1353 -1.0019
 1778SOL     OW 5903   0.654   2.579   4.364 -0.1055 -0.5502 -0.2327
 1778SOL    HW1 5904   0.585   2.646   4.366 -0.7978 -1.2454 -0.1712
 1778SOL    HW2 5905   0.618   2.509   4.310  0.7949 -0.6821 -0.6756
 1779SOL     OW 5906   2.768   3.235   5.340  0.2333 -0.3313  0.1926
 1779SOL    HW1 5907   2.747   3.174   5.270 -0.8451  0.2686 -0.0362
 1779SOL    HW2 5908   2.711   3.209   5.413  0.2623 -0.0324  0.3243
 1780SOL     OW 5909   2.355   2.936   6.854  0.0998  0.2827  0.4141
 1780SOL    HW1 5910   2.329   2.851   6.890  0.5589  0.1874  0.5278
 1780SOL    HW2 5911   2.450   2.935   6.857  0.1013  0.9130  0.6673
 1781SOL     OW 5912   1.102   3.932   6.921 -0.1801 -0.1405 -0.5936
 1781SOL    HW1 5913   1.152   3.862   6.962 -0.8464  0.5942  1.5814
 1781SOL    HW2 5914   1.167   4.001   6.905 -0.0513 -0.1405 -0.0717
 1782SOL     OW 5915   1.143   0.182   2.840 -0.3263 -0.2974  0.5483
 1782SOL    HW1 5916   1.235   0.177   2.867 -0.4693  1.2157  1.4314
 1782SOL    HW2 5917   1.120   0.275   2.849 -1.5822 -0.4287 -0.9139
 1783SOL     OW 5918   4.606   0.912   3.348 -0.3756 -0.2751  0.0812
 1783SOL    HW1 5919   4.547   0.974   3.305  1.9712  1.6823 -0.5477
 1783SOL    HW2 5920   4.584   0.828   3.310  0.4002  1.0881 -3.8266
 1784SOL     OW 5921   3.968   7.325   2.166  0.0133  0.0138 -0.4236
 1784SOL    HW1 5922   3.934   7.414   2.172  1.5751  0.8106 -2.3678
 1784SOL    HW2 5923   3.989   7.301   2.256 -1.5581  1.1046  0.2922
 1785SOL     OW 5924   0.473   3.929   6.567 -0.3857  0.1007 -0.2256
 1785SOL    HW1 5925   0.565   3.926   6.541 -0.3915  0.3852 -0.2869
 1785SOL    HW2 5926   0.463   4.015   6.608 -0.7993  0.3716 -0.8811
 1786SOL     OW 5927   1.313   1.700   1.606 -0.9083  0.0388  0.4425
 1786SOL    HW1 5928   1.374   1.633   1.637  0.6791  1.0830 -0.3019
 1786SOL    HW2 5929   1.266   1.658   1.534 -0.3158 -0.4633  0.3399
 1787SOL     OW 5930   1.380   0.179   2.964  0.1430 -0.1917 -0.3501
 1787SOL    HW1 5931   1.382   0.148   3.055  0.7522  0.1732 -0.2309
 1787SOL    HW2 5932   1.470   0.208   2.947 -0.2482  0.8700 -0.6753
 1788SOL     OW 5933   4.542   4.022   3.002 -0.1741 -0.4789  0.5932
 1788SOL    HW1 5934   4.573   3.945   3.049 -1.4059 -1.5335 -0.2331
 1788SOL    HW2 5935   4.472   3.988   2.945 -2.0111  1.5254  1.5060
 1789SOL     OW 5936   2.413   2.187   6.459  0.2550  0.1677  0.4960
 1789SOL    HW1 5937   2.379   2.106   6.420 -1.3206  0.4468  1.2351
 1789SOL    HW2 5938   2.392   2.180   6.552  1.9213  0.5440  0.9462
 1790SOL     OW 5939   7.172   6.553   4.537  0.2111  0.0382  0.4704
 1790SOL    HW1 5940   7.243   6.533   4.476  0.3943 -0.0944  0.7236
 1790SOL    HW2 5941   7.214   6.556   4.623 -0.0747  0.0559  0.6122
 1791SOL     OW 5942   6.381   0.175   1.404 -0.8338 -0.1135 -0.2557
 1791SOL    HW1 5943   6.292   0.196   1.377 -0.6787  0.6964 -0.1514
 1791SOL    HW2 5944   6.382   0.194   1.498 -0.9394 -1.4525  0.0328
 1792SOL     OW 5945   0.725   4.748   1.938  0.2965 -0.2456  0.0119
 1792SOL    HW1 5946   0.653   4.799   1.974  1.6174  2.4969 -0.9467
 1792SOL    HW2 5947   0.683   4.671   1.899 -1.9052  0.4442  0.8878
 1793SOL     OW 5948   5.326   1.974   1.868 -0.3420  0.5147  0.0336
 1793SOL    HW1 5949   5.367   1.914   1.806  1.5293  0.0246  1.6302
 1793SOL    HW2 5950   5.313   2.055   1.818 -0.4851 -0.3742 -1.4301
 1794SOL     OW 5951   1.133   2.088   6.350  0.2909  0.5740  0.6775
 1794SOL    HW1 5952   1.075   2.157   6.383 -1.2726 -0.5895  0.4897
 1794SOL    HW2 5953   1.087   2.007   6.370  1.2611 -0.3477 -0.6619
 1795SOL     OW 5954   4.425   2.291   1.531  0.2478  0.3764  0.3228
 1795SOL    HW1 5955   4.471   2.218   1.573  0.3651  0.2528 -0.0233
 1795SOL    HW2 5956   4.339   2.292   1.574  0.3037  0.1407  0.4449
 1796SOL     OW 5957   2.474   2.631   4.899  0.1011  0.1552 -0.6154
 1796SOL    HW1 5958   2.382   2.635   4.925 -0.0643 -0.4401 -1.0820
 1796SOL    HW2 5959   2.521   2.615   4.981 -0.0500  2.0029 -0.1336
 1797SOL     OW 5960   1.355   0.859   6.509  0.0075  0.0989 -0.3498
 1797SOL    HW1 5961   1.280   0.873   6.452  0.3369 -0.8464 -1.0546
 1797SOL    HW2 5962   1.321   0.869   6.597 -0.8805 -0.0020 -0.6726
 1798SOL     OW 5963   1.995   4.758   0.544  0.1289  0.5665  0.4210
 1798SOL    HW1 5964   2.017   4.665   0.558 -1.9596  0.3127  2.7767
 1798SOL    HW2 5965   2.022   4.776   0.454  2.1374 -1.8400  0.4272
 1799SOL     OW 5966   6.774   7.419   6.213  0.5660 -0.0174 -0.6243
 1799SOL    HW1 5967   6.808   7.363   6.143  1.7670  0.5667 -0.5374
 1799SOL    HW2 5968   6.838   7.410   6.284 -0.3201 -0.1354  0.1796
 1800SOL     OW 5969   5.571   4.739   7.144 -0.2116 -0.3339  0.7100
 1800SOL    HW1 5970   5.634   4.680   7.184 -0.3563 -0.7530  0.3339
 1800SOL    HW2 5971   5.514   4.766   7.215  0.8338  0.6498  1.2119
 1801SOL     OW 5972   6.512   1.591   7.110  0.5151  0.2955  0.7809
 1801SOL    HW1 5973   6.475   1.679   7.123 -0.2412 -0.0878  1.3820
 1801SOL    HW2 5974   6.605   1.606   7.093  0.2532  1.2526  0.1037
 1802SOL     OW 5975   2.745   1.881   4.692 -0.6206 -0.3187 -0.4052
 1802SOL    HW1 5976   2.800   1.804   4.711 -0.8679 -0.8373 -1.6894
 1802SOL    HW2 5977   2.660   1.860   4.730 -0.1332  0.2431  1.0865
 1803SOL     OW 5978   0.938   5.632   5.285 -0.1489 -0.3572 -1.1305
 1803SOL    HW1 5979   0.943   5.538   5.302  0.2942 -0.2315 -0.5484
 1803SOL    HW2 5980   0.960   5.673   5.368 -2.7909  0.2956 -0.6649
 1804SOL     OW 5981   1.713   1.719   1.009  0.6250 -0.1193  0.2985
 1804SOL    HW1 5982   1.640   1.772   0.977  0.6380  0.4558  1.1874
 1804SOL    HW2 5983   1.737   1.664   0.935 -1.2752 -0.9554  0.2571
 1805SOL     OW 5984   6.841   2.636   5.329 -0.5163 -0.6466  0.2782
 1805SOL    HW1 5985   6.915   2.673   5.377  0.5487 -0.2500 -1.5752
 1805SOL    HW2 5986   6.863   2.543   5.319 -0.3151 -0.5493 -0.1885
 1806SOL     OW 5987   2.126   2.053   2.521 -0.2074 -0.5181 -0.7485
 1806SOL    HW1 5988   2.121   1.957   2.515  0.2371 -0.6741  0.9663
 1806SOL    HW2 5989   2.205   2.075   2.471  0.7344 -1.2569  0.3351
 1807SOL     OW 5990   4.214   0.840   2.841  0.1188 -0.4123 -0.5330
 1807SOL    HW1 5991   4.121   0.859   2.851  0.3042 -0.0688  0.6866
 1807SOL    HW2 5992   4.237   0.874   2.755 -0.4015  1.4828  0.0452
 1808SOL     OW 5993   5.561   1.411   0.287 -0.1948  0.6927  0.1336
 1808SOL    HW1 5994   5.609   1.456   0.356 -1.6710  1.7156  0.5510
 1808SOL    HW2 5995   5.532   1.481   0.228 -1.3656  0.1541  0.0400
 1809SOL     OW 5996   5.590   3.983   3.859  0.3269 -0.1214 -0.0482
 1809SOL    HW1 5997   5.510   3.979   3.806  0.1734 -1.4179  0.2408
 1809SOL    HW2 5998   5.653   4.030   3.804 -0.8952  1.8406  0.1192
 1810SOL     OW 5999   2.570   0.175   0.439  0.2285 -0.2708 -0.0825
 1810SOL    HW1 6000   2.499   0.110   0.444  0.8780 -0.9322  0.9554
 1810SOL    HW2 6001   2.650   0.123   0.434  0.7408  0.4531  0.3538
 1811SOL     OW 6002   2.522   4.697   5.452 -0.1278  0.3815 -0.2283
 1811SOL    HW1 6003   2.480   4.734   5.373  1.7081 -2.1367 -2.5564
 1811SOL    HW2 6004   2.596   4.648   5.419  1.9822  0.8196  3.3387
 1812SOL     OW 6005   4.145   0.915   0.557 -0.5233 -0.1311  0.6023
 1812SOL    HW1 6006   4.122   0.822   0.557 -2.0829  0.2358  0.5832
 1812SOL    HW2 6007   4.202   0.925   0.480  2.5745 -1.6798  2.4691
 1813SOL     OW 6008   2.048   5.040   6.060  0.0562  0.2902 -0.4130
 1813SOL    HW1 6009   2.088   5.109   6.113 -2.5371  0.0859  2.0556
 1813SOL    HW2 6010   2.059   4.960   6.112 -1.6035 -0.1237 -0.6409
 1814SOL     OW 6011   3.724   1.171   1.743  0.1328  0.3141 -0.5450
 1814SOL    HW1 6012   3.636   1.136   1.756  0.2445  0.1780 -0.1498
 1814SOL    HW2 6013   3.746   1.147   1.653  0.6089 -1.5758  0.0225
 1815SOL     OW 6014   3.021   3.773   7.281 -0.5927 -0.6594 -0.4522
 1815SOL    HW1 6015   3.060   3.696   7.323 -0.1360 -1.9143 -2.9702
 1815SOL    HW2 6016   2.937   3.742   7.247 -1.1367  0.4127 -0.1095
 1816SOL     OW 6017   2.875   1.267   0.003 -0.3641  0.6540 -0.7275
 1816SOL    HW1 6018   2.819   1.225  -0.063  0.5002  0.3656 -1.2907
 1816SOL    HW2 6019   2.876   1.205   0.076  2.9211 -1.6571 -2.5007
 1817SOL     OW 6020   3.627   6.132   7.202  0.4755  0.0269 -0.4087
 1817SOL    HW1 6021   3.604   6.101   7.115 -0.1271  0.2566 -0.3361
 1817SOL    HW2 6022   3.671   6.215   7.187  2.2889 -0.9170 -0.6175
 1818SOL     OW 6023   0.274   1.967   3.551 -0.1922  0.5364  0.5735
 1818SOL    HW1 6024   0.265   2.020   3.472 -1.3975  0.4750  0.6556
 1818SOL    HW2 6025   0.367   1.974   3.574  0.7348 -1.3922 -2.1898
 1819SOL     OW 6026   2.819   6.811   1.237  0.0545  0.3467  0.2469
 1819SOL    HW1 6027   2.757   6.837   1.169 -1.7268 -2.6820  0.5460
 1819SOL    HW2 6028   2.847   6.723   1.212 -0.0843 -0.5831  2.9556
 1820SOL     OW 6029   3.604   3.755   6.254  0.0973 -0.3146  0.2404
 1820SOL    HW1 6030   3.541   3.697   6.295 -0.6906 -0.1120 -0.6484
 1820SOL    HW2 6031   3.642   3.805   6.326 -1.3762  0.1590  0.7143
 1821SOL     OW 6032   3.457   7.149   6.954  0.2392 -0.1874 -0.5297
 1821SOL    HW1 6033   3.517   7.094   7.004  0.6324 -0.0257 -0.8138
 1821SOL    HW2 6034   3.372   7.106   6.962  0.6149 -1.0730 -1.0923
 1822SOL     OW 6035   1.603   5.720   6.533  0.1871  0.1327 -0.1014
 1822SOL    HW1 6036   1.629   5.628   6.539 -2.4373 -0.8302 -1.6188
 1822SOL    HW2 6037   1.666   5.759   6.473  2.2736 -0.1836  1.7384
 1823SOL     OW 6038   3.473   6.954   1.442 -0.6334  0.0286  0.0398
 1823SOL    HW1 6039   3.491   6.977   1.351  0.5043  1.9595  0.7059
 1823SOL    HW2 6040   3.471   7.038   1.488  0.2276 -0.9918  2.0410
 1824SOL     OW 6041   0.172   7.365   2.357 -0.4433  0.2435 -0.3152
 1824SOL    HW1 6042   0.249   7.327   2.400 -0.6148  0.6318  0.3446
 1824SOL    HW2 6043   0.193   7.362   2.263 -0.0642 -0.6182 -0.2129
 1825SOL     OW 6044   4.809   3.608   6.089 -0.2936 -0.6932  0.2593
 1825SOL    HW1 6045   4.869   3.657   6.145 -0.3397  0.1710 -0.4214
 1825SOL    HW2 6046   4.738   3.581   6.148 -0.0742 -0.2688  0.7262
 1826SOL     OW 6047   0.950   5.808   4.208  0.0113 -0.1320 -0.1156
 1826SOL    HW1 6048   1.001   5.844   4.280  1.2285  0.0272 -1.0310
 1826SOL    HW2 6049   1.012   5.801   4.135 -1.4717  0.9893 -1.5804
 1827SOL     OW 6050   1.582   5.728   6.020 -0.5456 -0.4260 -1.0174
 1827SOL    HW1 6051   1.659   5.781   5.997  1.6525 -1.9993  2.0336
 1827SOL    HW2 6052   1.597   5.644   5.975 -1.2204 -0.3072 -1.4825
 1828SOL     OW 6053   3.688   6.628   5.161 -0.1727 -0.2409 -0.1595
 1828SOL    HW1 6054   3.667   6.575   5.084 -0.3816 -0.4191  0.0194
 1828SOL    HW2 6055   3.618   6.608   5.223  0.2406 -0.4335  0.2422
 1829SOL     OW 6056   6.578   3.625   7.161  0.5036  0.0315  0.6371
 1829SOL    HW1 6057   6.610   3.638   7.071  0.8952  0.4399  0.8301
 1829SOL    HW2 6058   6.655   3.594   7.209  0.8501  1.7464  1.2759
 1830SOL     OW 6059   0.558   2.945   1.365  0.0577  0.3050 -0.4852
 1830SOL    HW1 6060   0.563   2.890   1.286  0.4900  0.6130 -0.6767
 1830SOL    HW2 6061   0.485   3.005   1.347 -0.3483 -0.1306 -0.3196
 1831SOL     OW 6062   1.780   2.428   0.695  0.2988  0.2753 -0.0029
 1831SOL    HW1 6063   1.766   2.523   0.693 -0.7889  0.1080 -0.9003
 1831SOL    HW2 6064   1.876   2.419   0.694  0.4502  1.3590  1.1410
 1832SOL     OW 6065   4.333   2.311   5.353  0.0200 -0.5907  0.6223
 1832SOL    HW1 6066   4.420   2.299   5.391  0.1435 -3.1684 -0.2680
 1832SOL    HW2 6067   4.339   2.391   5.302  1.8531 -0.6772  0.6527
 1833SOL     OW 6068   4.342   1.224   6.078  0.1576  0.3009 -0.4989
 1833SOL    HW1 6069   4.418   1.258   6.030  0.0580  1.3922  0.1021
 1833SOL    HW2 6070   4.268   1.274   6.045  0.0112  0.7100  0.4132
 1834SOL     OW 6071   4.493   1.278   5.397 -0.3840 -0.3344  0.0568
 1834SOL    HW1 6072   4.433   1.232   5.338 -0.3754 -1.1175  0.6602
 1834SOL    HW2 6073   4.504   1.364   5.356 -1.8803 -0.1903 -0.0932
 1835SOL     OW 6074   1.720   1.413   6.695 -0.2020  0.2124 -0.4979
 1835SOL    HW1 6075   1.748   1.457   6.775 -1.9893  3.3169 -1.4255
 1835SOL    HW2 6076   1.796   1.419   6.637 -0.0866  1.2499 -0.2542
 1836SOL     OW 6077   6.705   4.849   1.736 -0.2042  0.2401  0.4445
 1836SOL    HW1 6078   6.727   4.759   1.760  0.6314 -0.1001 -1.4538
 1836SOL    HW2 6079   6.621   4.842   1.692  0.1089  0.3083 -0.1697
 1837SOL     OW 6080   5.963   1.340   6.329  0.1289 -0.5313  0.6036
 1837SOL    HW1 6081   5.973   1.268   6.267 -0.1505 -1.2457  1.3585
 1837SOL    HW2 6082   5.915   1.407   6.281  0.3058 -0.8941 -0.0845
 1838SOL     OW 6083   1.065   6.728   3.061  0.8471  0.3600  0.0872
 1838SOL    HW1 6084   1.109   6.812   3.061 -1.2519  1.5324  0.9987
 1838SOL    HW2 6085   1.090   6.688   3.144  0.3390  0.9506  0.5327
 1839SOL     OW 6086   6.946   4.423   3.470  0.1545 -0.6584  0.3538
 1839SOL    HW1 6087   6.977   4.359   3.407  0.4423 -0.6553  0.4914
 1839SOL    HW2 6088   6.924   4.500   3.418  1.0683 -0.4049  0.3366
 1840SOL     OW 6089   6.625   6.059   0.870  0.0727 -0.4394 -0.0366
 1840SOL    HW1 6090   6.705   6.064   0.924  0.9458 -1.5532 -1.1816
 1840SOL    HW2 6091   6.657   6.041   0.782 -1.4845 -1.5732 -0.3999
 1841SOL     OW 6092   6.455   3.401   1.707  0.3115 -0.3049 -0.3616
 1841SOL    HW1 6093   6.374   3.413   1.659 -0.9274  0.9044  1.8950
 1841SOL    HW2 6094   6.466   3.306   1.712 -1.1005 -0.4960 -0.4882
 1842SOL     OW 6095   6.041   4.410   5.577 -0.0466  0.0521  0.2183
 1842SOL    HW1 6096   5.969   4.349   5.561  0.4970 -0.7448  0.6918
 1842SOL    HW2 6097   6.040   4.424   5.672  0.8423 -0.5174  0.3240
 1843SOL     OW 6098   5.581   1.194   0.126 -0.0551 -0.1112 -0.2443
 1843SOL    HW1 6099   5.614   1.243   0.050  0.3223 -0.6297 -0.4177
 1843SOL    HW2 6100   5.583   1.258   0.198  1.5676 -0.1712 -0.1898
 1844SOL     OW 6101   4.349   2.542   5.189  0.0429  0.4361 -0.0867
 1844SOL    HW1 6102   4.367   2.633   5.212  0.7726 -0.1828  2.0686
 1844SOL    HW2 6103   4.433   2.507   5.161  0.6937 -0.4360  2.5805
 1845SOL     OW 6104   2.723   4.581   3.519 -0.6836  0.6306 -0.5306
 1845SOL    HW1 6105   2.671   4.523   3.464 -0.3083  0.8855 -1.1616
 1845SOL    HW2 6106   2.748   4.526   3.594  0.1935 -0.2414 -1.4257
 1846SOL     OW 6107   1.412   4.714   0.455 -0.6383  0.4767  0.4078
 1846SOL    HW1 6108   1.472   4.761   0.514 -0.4280  1.0023 -0.2105
 1846SOL    HW2 6109   1.461   4.636   0.428 -1.4128 -0.7466  2.3360
 1847SOL     OW 6110   4.582   1.248   5.847  0.4276  0.0561  0.3488
 1847SOL    HW1 6111   4.507   1.246   5.787  1.0983 -0.6131 -0.5005
 1847SOL    HW2 6112   4.652   1.287   5.795  0.7040  0.5853  1.1103
 1848SOL     OW 6113   6.949   6.276   5.935 -0.1852 -0.4338  0.2313
 1848SOL    HW1 6114   6.932   6.249   5.845  1.2257 -1.5215  0.2547
 1848SOL    HW2 6115   6.966   6.194   5.982  0.5984  0.2301  1.1396
 1849SOL     OW 6116   4.424   6.513   5.455 -0.3194  0.5444  0.5944
 1849SOL    HW1 6117   4.338   6.471   5.452  0.2555 -0.7532  1.1655
 1849SOL    HW2 6118   4.409   6.602   5.423 -2.2333  0.9631  2.4011
 1850SOL     OW 6119   1.104   4.443   3.491 -0.5804 -0.0766  0.3829
 1850SOL    HW1 6120   1.018   4.461   3.453 -0.9455 -1.0934  0.6890
 1850SOL    HW2 6121   1.166   4.481   3.429 -1.2061 -0.6059 -0.5955
 1851SOL     OW 6122   5.627   4.070   4.567 -0.4646 -0.0109 -0.3326
 1851SOL    HW1 6123   5.597   4.082   4.477 -0.0941  1.7386 -0.2631
 1851SOL    HW2 6124   5.722   4.058   4.560 -0.5185 -0.5209 -0.2140
 1852SOL     OW 6125   4.276   3.522   1.230  0.3676  0.4665  0.1858
 1852SOL    HW1 6126   4.228   3.509   1.312  0.7813 -1.6241  0.1369
 1852SOL    HW2 6127   4.219   3.486   1.163  0.3418  1.5303 -0.3799
 1853SOL     OW 6128   4.350   4.626   2.517 -0.4881  0.3831 -0.4166
 1853SOL    HW1 6129   4.332   4.552   2.574 -0.9391  1.1051  0.4122
 1853SOL    HW2 6130   4.298   4.609   2.439 -1.1440  0.1676  0.0584
 1854SOL     OW 6131   3.229   5.291   7.382 -0.2926 -0.3049 -0.1325
 1854SOL    HW1 6132   3.255   5.299   7.291  0.9448  0.8021  0.2887
 1854SOL    HW2 6133   3.133   5.290   7.380 -0.2856  0.0210 -1.4059
 1855SOL     OW 6134   2.095   1.853   1.078 -0.2637 -0.0021  0.1033
 1855SOL    HW1 6135   2.172   1.850   1.021 -0.6982  1.8930 -0.7003
 1855SOL    HW2 6136   2.035   1.789   1.040  0.3806 -0.4837 -0.1155
 1856SOL     OW 6137   2.907   6.071   2.464  0.2761  0.2314 -0.7268
 1856SOL    HW1 6138   2.893   6.089   2.371  0.1956  2.2662 -0.3646
 1856SOL    HW2 6139   2.849   6.132   2.509  1.7279  0.6425  0.6737
 1857SOL     OW 6140   4.653   3.725   2.172 -0.1929  0.4424 -0.1530
 1857SOL    HW1 6141   4.701   3.802   2.142 -0.6549  1.4402  1.5140
 1857SOL    HW2 6142   4.672   3.719   2.266 -1.3929 -0.5565  0.0663
 1858SOL     OW 6143   2.019   2.944   3.759  0.2342  0.0454  0.2956
 1858SOL    HW1 6144   1.992   2.985   3.841 -1.1469 -0.9978  0.3881
 1858SOL    HW2 6145   1.959   2.871   3.747  0.9043 -0.2984 -1.2614
 1859SOL     OW 6146   2.302   7.205   0.474  0.0443 -0.1261 -0.0543
 1859SOL    HW1 6147   2.222   7.195   0.526 -0.4715  1.3397 -0.5293
 1859SOL    HW2 6148   2.296   7.137   0.407 -2.3444  1.7650 -1.9546
 1860SOL     OW 6149   4.822   1.771   7.315 -0.1996 -0.0332 -0.1375
 1860SOL    HW1 6150   4.848   1.699   7.373  0.4431 -0.4854 -0.9574
 1860SOL    HW2 6151   4.792   1.839   7.374  0.4232 -0.4841  0.7357
 1861SOL     OW 6152   5.788   6.165   1.799 -0.0856 -0.2814  0.0728
 1861SOL    HW1 6153   5.827   6.148   1.885  0.6348 -1.6861 -0.4948
 1861SOL    HW2 6154   5.844   6.232   1.760  0.8502 -1.1663 -0.1219
 1862SOL     OW 6155   2.100   6.456   4.022 -0.0007 -0.4336 -0.4762
 1862SOL    HW1 6156   2.127   6.467   4.113  1.7031 -0.3351 -0.9516
 1862SOL    HW2 6157   2.124   6.365   4.001  1.0403 -0.0077 -1.2345
 1863SOL     OW 6158   5.971   4.002   6.878 -0.4037 -0.5414 -0.1621
 1863SOL    HW1 6159   6.052   4.050   6.898 -0.0542 -0.9992 -0.4572
 1863SOL    HW2 6160   5.941   3.969   6.963  0.1168 -0.9870 -0.1474
 1864SOL     OW 6161   3.541   4.940   2.247 -0.1101 -0.6690  0.5568
 1864SOL    HW1 6162   3.519   5.033   2.241  0.4008 -0.6531 -1.5764
 1864SOL    HW2 6163   3.571   4.929   2.338 -0.6514  1.1164  1.0004
 1865SOL     OW 6164   4.257   4.173   1.070 -0.1977 -0.2376 -0.0322
 1865SOL    HW1 6165   4.231   4.240   1.008 -1.3543 -0.8432 -0.2236
 1865SOL    HW2 6166   4.187   4.108   1.067  1.0471 -1.6599 -0.1403
 1866SOL     OW 6167   2.098   6.721   7.318 -0.6701 -0.2475 -0.1977
 1866SOL    HW1 6168   2.109   6.799   7.264 -1.0150  0.5163  0.8060
 1866SOL    HW2 6169   2.187   6.685   7.326 -0.5128  0.0204 -0.6725
 1867SOL     OW 6170   2.997   6.852   2.183 -0.6468  0.1049  0.1666
 1867SOL    HW1 6171   2.967   6.838   2.272  0.1065 -0.2195  0.3808
 1867SOL    HW2 6172   3.049   6.774   2.162  1.4575  1.3392  0.4377
 1868SOL     OW 6173   2.973   4.843   2.977 -0.5818 -0.0930 -0.0585
 1868SOL    HW1 6174   2.887   4.879   2.957 -1.6092 -2.6976 -0.7836
 1868SOL    HW2 6175   2.964   4.808   3.066 -0.8911 -1.8669 -0.7386
 1869SOL     OW 6176   3.644   4.591   3.000  0.6541 -0.1735 -0.1133
 1869SOL    HW1 6177   3.658   4.586   2.905  0.0408  1.3763 -0.3233
 1869SOL    HW2 6178   3.673   4.679   3.023  1.9839 -0.9638  1.3857
 1870SOL     OW 6179   7.242   7.429   5.733 -0.3668  0.1014  0.5862
 1870SOL    HW1 6180   7.259   7.521   5.751 -1.5794  0.5546 -0.5058
 1870SOL    HW2 6181   7.302   7.382   5.791  0.6435  1.5700  0.7733
 1871SOL     OW 6182   3.040   5.996   6.775  0.1772  0.1864  0.2905
 1871SOL    HW1 6183   3.069   5.930   6.838  1.2023  0.9756  0.6704
 1871SOL    HW2 6184   2.963   5.957   6.734  0.2285 -0.8652  1.1402
 1872SOL     OW 6185   0.915   5.145   1.808  0.2982  0.4678  0.7722
 1872SOL    HW1 6186   0.995   5.140   1.756  0.6579  0.2187  1.3351
 1872SOL    HW2 6187   0.901   5.238   1.823 -1.6949  0.8476 -2.5996
 1873SOL     OW 6188   1.548   4.233   4.102 -0.7156  0.0432  0.0896
 1873SOL    HW1 6189   1.525   4.227   4.195 -0.3161  1.1291  0.2775
 1873SOL    HW2 6190   1.494   4.306   4.070  0.8578  1.2467  0.0516
 1874SOL     OW 6191   7.209   4.193   0.770 -0.2056  0.0711  0.0693
 1874SOL    HW1 6192   7.131   4.248   0.776 -0.3038 -0.1873  1.6236
 1874SOL    HW2 6193   7.282   4.254   0.777 -0.3058  0.0079  3.1158
 1875SOL     OW 6194   3.133   3.366   6.169  0.0846 -0.0309 -0.2198
 1875SOL    HW1 6195   3.194   3.318   6.112 -1.1348 -0.1973 -1.4567
 1875SOL    HW2 6196   3.072   3.407   6.108 -1.1381 -0.0252  0.9699
 1876SOL     OW 6197   3.989   4.374   4.743  0.0895  0.7614  0.1190
 1876SOL    HW1 6198   4.047   4.448   4.726  2.0227 -0.5737  0.5320
 1876SOL    HW2 6199   4.033   4.299   4.702 -0.5223 -0.5896  1.7812
 1877SOL     OW 6200   3.685   0.445   3.145  0.2655  0.2903 -0.0920
 1877SOL    HW1 6201   3.688   0.471   3.053  1.5425  0.3638 -0.0589
 1877SOL    HW2 6202   3.738   0.512   3.190  0.8033 -0.5026  0.4796
 1878SOL     OW 6203   1.833   2.690   4.611  0.5359 -0.0427 -0.2404
 1878SOL    HW1 6204   1.869   2.618   4.559  0.1043  1.2887 -2.5073
 1878SOL    HW2 6205   1.785   2.646   4.682  0.9504 -1.9642 -1.0723
 1879SOL     OW 6206   4.490   5.278   3.716 -0.1003 -0.2944  0.0908
 1879SOL    HW1 6207   4.462   5.248   3.802  1.8477 -0.3627  0.7653
 1879SOL    HW2 6208   4.444   5.361   3.703  0.1717  0.1223  1.5872
 1880SOL     OW 6209   7.246   5.433   0.350 -0.3038  0.0463  0.0756
 1880SOL    HW1 6210   7.206   5.495   0.411 -0.2861 -0.4341  0.5925
 1880SOL    HW2 6211   7.321   5.480   0.313 -0.3936  0.3900  0.3293
 1881SOL     OW 6212   4.015   4.605   5.393 -0.2934 -0.0828 -0.3950
 1881SOL    HW1 6213   4.012   4.572   5.303  0.9413  0.3849 -0.6283
 1881SOL    HW2 6214   4.029   4.527   5.446  3.3889 -0.0264 -1.0045
 1882SOL     OW 6215   5.380   6.017   5.374  0.1295 -0.2950 -0.2017
 1882SOL    HW1 6216   5.305   5.966   5.403 -0.9218  1.7761  0.9436
 1882SOL    HW2 6217   5.405   6.069   5.450  1.5905  0.3807 -1.0945
 1883SOL     OW 6218   0.983   1.825   3.427  0.0520 -0.1089  0.6348
 1883SOL    HW1 6219   1.034   1.751   3.392 -3.2876 -4.1137  3.1969
 1883SOL    HW2 6220   1.032   1.852   3.505  0.7387 -0.4633  0.3414
 1884SOL     OW 6221   6.394   4.967   5.687 -0.2769 -0.0946  0.4116
 1884SOL    HW1 6222   6.445   4.900   5.733  0.2419  0.0565  0.0752
 1884SOL    HW2 6223   6.460   5.024   5.648 -0.6779 -0.4112 -0.7974
 1885SOL     OW 6224   0.380   2.568   3.870 -0.4012  0.3053  0.3411
 1885SOL    HW1 6225   0.415   2.489   3.830  2.3814  1.9837 -0.7969
 1885SOL    HW2 6226   0.369   2.630   3.798  0.0887  1.8486  1.5178
 1886SOL     OW 6227   4.647   6.315   1.238 -0.3242  0.2138  0.4022
 1886SOL    HW1 6228   4.684   6.402   1.228  2.5607 -0.8728  0.6889
 1886SOL    HW2 6229   4.709   6.269   1.295 -1.7291 -2.0361  0.2311
 1887SOL     OW 6230   7.193   6.255   0.909  1.2290 -0.1338  0.1945
 1887SOL    HW1 6231   7.187   6.344   0.873  2.8030  0.6355  1.7478
 1887SOL    HW2 6232   7.256   6.211   0.852  2.5056  0.5919  1.0209
 1888SOL     OW 6233   4.820   7.008   7.320  0.3491  0.3178 -0.5195
 1888SOL    HW1 6234   4.838   7.018   7.414  0.5183  0.5893 -0.5784
 1888SOL    HW2 6235   4.753   6.940   7.315  1.0716 -0.4295 -0.2664
 1889SOL     OW 6236   4.238   0.086   6.369 -0.6769  0.0635 -0.3922
 1889SOL    HW1 6237   4.234   0.111   6.277  1.9439  2.3993 -0.0098
 1889SOL    HW2 6238   4.205   0.162   6.417 -0.1162 -0.3031  0.6283
 1890SOL     OW 6239   0.509   4.638   0.386 -0.0730 -0.2972  0.1137
 1890SOL    HW1 6240   0.506   4.734   0.382 -2.2370 -0.3120  0.0089
 1890SOL    HW2 6241   0.526   4.618   0.478  0.0038  0.1959  0.2098
 1891SOL     OW 6242   2.469   4.787   5.205 -0.1493 -0.2048  0.1772
 1891SOL    HW1 6243   2.507   4.727   5.141  0.6372 -1.8321  2.0657
 1891SOL    HW2 6244   2.378   4.796   5.177  0.2484 -0.5646 -1.3581
 1892SOL     OW 6245   3.376   0.782   0.660  0.0483  0.1514  0.1442
 1892SOL    HW1 6246   3.431   0.710   0.692  0.3647 -0.1872 -1.0976
 1892SOL    HW2 6247   3.307   0.739   0.610  0.5054  0.7125 -1.0120
 1893SOL     OW 6248   0.176   1.523   7.180 -0.2251  0.1471  0.2751
 1893SOL    HW1 6249   0.094   1.557   7.216  0.5970 -0.1510  2.6041
 1893SOL    HW2 6250   0.228   1.601   7.161 -0.1486  0.2882  1.0618
 1894SOL     OW 6251   6.525   6.854   3.638 -0.0507 -0.0894 -0.5945
 1894SOL    HW1 6252   6.530   6.890   3.727 -2.7529 -1.5128  0.2422
 1894SOL    HW2 6253   6.497   6.928   3.584  1.6726  0.8067 -0.3350
 1895SOL     OW 6254   2.521   1.225   2.336 -0.6829  0.1615  0.1606
 1895SOL    HW1 6255   2.494   1.196   2.249  0.0441  0.7264 -0.2681
 1895SOL    HW2 6256   2.499   1.152   2.394 -0.8708 -0.3501 -0.5485
 1896SOL     OW 6257   0.467   2.257   6.214 -0.2108 -0.2811  1.0184
 1896SOL    HW1 6258   0.402   2.191   6.190 -0.0884 -0.9043  2.3524
 1896SOL    HW2 6259   0.436   2.292   6.297  0.7399  0.0023  1.2604
 1897SOL     OW 6260   0.126   5.102   4.965 -0.0341  0.0232 -0.3367
 1897SOL    HW1 6261   0.058   5.034   4.964  0.1262 -0.1442 -0.0512
 1897SOL    HW2 6262   0.197   5.065   4.912  0.5514 -0.5614  0.8142
 1898SOL     OW 6263   7.206   0.483   6.036  0.0431 -0.2286 -0.2793
 1898SOL    HW1 6264   7.133   0.492   6.097 -0.3958 -0.1585 -0.8150
 1898SOL    HW2 6265   7.284   0.489   6.092 -0.3545 -1.5276  0.4693
 1899SOL     OW 6266   3.916   5.738   0.002  0.3642  0.0692 -0.4160
 1899SOL    HW1 6267   3.986   5.804   0.006 -0.0433  0.4876  0.0605
 1899SOL    HW2 6268   3.835   5.790   0.001  0.0571 -0.4158 -0.6157
 1900SOL     OW 6269   3.126   6.142   5.784 -0.1766  0.1165  0.2404
 1900SOL    HW1 6270   3.129   6.077   5.854 -1.3303  0.3881  0.5678
 1900SOL    HW2 6271   3.088   6.096   5.709  2.1748 -0.5164 -0.6359
 1901SOL     OW 6272   3.684   7.026   0.594 -0.3318  0.9757  0.6084
 1901SOL    HW1 6273   3.717   7.110   0.624 -0.1488  0.4107  2.0904
 1901SOL    HW2 6274   3.728   6.962   0.650 -0.3639 -0.1250 -0.5743
 1902SOL     OW 6275   3.779   6.262   2.745  0.1298 -0.2919 -0.3721
 1902SOL    HW1 6276   3.740   6.261   2.833  0.7397 -1.1385 -0.0943
 1902SOL    HW2 6277   3.704   6.255   2.686 -0.3621  1.2717  0.0327
 1903SOL     OW 6278   7.270   0.325   0.720  0.0907 -0.4254  0.5530
 1903SOL    HW1 6279   7.235   0.282   0.798  0.6069 -0.4324  0.7864
 1903SOL    HW2 6280   7.361   0.344   0.742  0.1055  0.0215  0.1349
 1904SOL     OW 6281   1.182   0.147   2.245  0.0691 -0.3973  0.1763
 1904SOL    HW1 6282   1.092   0.146   2.212 -0.4566 -0.3635  1.5479
 1904SOL    HW2 6283   1.218   0.230   2.214  0.1474 -1.0736 -1.6530
 1905SOL     OW 6284   5.593   1.735   7.090 -0.1451 -0.1680 -0.1801
 1905SOL    HW1 6285   5.604   1.819   7.046  0.6181  0.1314  0.5706
 1905SOL    HW2 6286   5.584   1.758   7.183  0.4632 -0.9366  0.0731
 1906SOL     OW 6287   7.040   2.500   0.675 -0.0006  0.8898 -0.2646
 1906SOL    HW1 6288   6.985   2.445   0.730  0.9828 -0.3640 -0.4738
 1906SOL    HW2 6289   6.979   2.553   0.624 -0.9447  1.0728  1.0063
 1907SOL     OW 6290   3.969   7.102   0.346 -0.2674 -0.1345 -0.4909
 1907SOL    HW1 6291   4.004   7.077   0.431 -1.9500 -0.9003  0.0240
 1907SOL    HW2 6292   3.906   7.033   0.324 -1.6902  1.3118 -1.1806
 1908SOL     OW 6293   1.854   1.744   6.616 -0.2994  0.0487  0.1218
 1908SOL    HW1 6294   1.834   1.809   6.549 -0.4992  0.7805  0.8660
 1908SOL    HW2 6295   1.796   1.767   6.689  1.8951  1.0922  1.6526
 1909SOL     OW 6296   4.882   2.403   2.370  0.6575  0.5632 -1.0748
 1909SOL    HW1 6297   4.912   2.353   2.446  0.1908 -0.4563 -1.5353
 1909SOL    HW2 6298   4.948   2.472   2.359  0.6656  0.8062  0.3110
 1910SOL     OW 6299   3.419   0.830   1.611 -0.4657 -0.6384 -0.0486
 1910SOL    HW1 6300   3.469   0.836   1.693  1.0888 -1.2196 -0.9238
 1910SOL    HW2 6301   3.339   0.783   1.635  0.2339 -1.3199  1.0275
 1911SOL     OW 6302   1.496   6.824   3.405 -0.4359 -0.0074 -0.7773
 1911SOL    HW1 6303   1.406   6.847   3.428 -0.4766 -0.0042 -0.9324
 1911SOL    HW2 6304   1.522   6.891   3.341  0.5058  1.4051  1.0149
 1912SOL     OW 6305   4.234   3.846   7.369  0.2607  0.3174  0.1957
 1912SOL    HW1 6306   4.236   3.755   7.398 -1.4986  0.0130 -0.5187
 1912SOL    HW2 6307   4.211   3.896   7.447  0.8208  0.1107  0.4963
 1913SOL     OW 6308   3.322   5.034   2.478  0.4110 -0.5572 -0.0721
 1913SOL    HW1 6309   3.262   5.064   2.410  0.5398  0.3481  0.1875
 1913SOL    HW2 6310   3.272   4.970   2.529  0.2483 -1.0858 -0.8827
 1914SOL     OW 6311   5.789   3.799   4.836 -0.3275  0.3770  0.2151
 1914SOL    HW1 6312   5.697   3.821   4.825 -0.5154 -0.6104 -0.3555
 1914SOL    HW2 6313   5.828   3.815   4.751 -0.2786 -0.5378  0.0529
 1915SOL     OW 6314   5.663   1.762   4.203 -0.4569 -0.6878 -0.2226
 1915SOL    HW1 6315   5.709   1.698   4.257 -1.9780  0.2986  2.3844
 1915SOL    HW2 6316   5.574   1.766   4.240 -0.7844  1.9759 -1.0956
 1916SOL     OW 6317   2.634   2.896   3.653 -0.4057  0.1682 -0.4369
 1916SOL    HW1 6318   2.650   2.873   3.744  0.5019  0.8693 -0.4077
 1916SOL    HW2 6319   2.542   2.875   3.639 -0.8410  1.0332  0.9440
 1917SOL     OW 6320   3.720   6.751   2.243 -0.2666 -0.3429  0.5003
 1917SOL    HW1 6321   3.750   6.787   2.327 -0.4311  0.3429  0.2684
 1917SOL    HW2 6322   3.657   6.815   2.211 -1.3372 -1.3236  0.5640
 1918SOL     OW 6323   4.545   5.973   1.841 -0.3374  0.3232 -0.0589
 1918SOL    HW1 6324   4.501   5.922   1.910  1.2769  0.7350  1.3386
 1918SOL    HW2 6325   4.500   6.058   1.842 -0.0417  0.4851  0.8426
 1919SOL     OW 6326   5.446   4.523   5.267  0.6086 -0.5766  0.5448
 1919SOL    HW1 6327   5.427   4.611   5.299  1.6041 -0.1346 -0.0558
 1919SOL    HW2 6328   5.535   4.528   5.234 -0.7291 -0.5711 -3.6019
 1920SOL     OW 6329   4.814   7.052   6.412  0.0804  0.3073  0.0850
 1920SOL    HW1 6330   4.739   7.100   6.447 -0.4004 -1.3642  1.4900
 1920SOL    HW2 6331   4.780   6.964   6.395  1.3643 -0.0540 -0.7500
 1921SOL     OW 6332   1.942   5.735   4.378 -0.3313  0.1578  0.0386
 1921SOL    HW1 6333   1.976   5.802   4.437  0.2299 -1.7788  2.0601
 1921SOL    HW2 6334   2.020   5.689   4.345 -0.7374 -0.2267 -0.4108
 1922SOL     OW 6335   1.733   0.947   5.794 -0.1359  0.2351  0.3611
 1922SOL    HW1 6336   1.681   0.878   5.753 -1.4046  1.4721 -0.1973
 1922SOL    HW2 6337   1.683   1.027   5.780  1.4897  1.3597  0.6337
 1923SOL     OW 6338   1.693   0.481   5.412  0.0938  0.1406 -0.1245
 1923SOL    HW1 6339   1.646   0.564   5.399 -1.0444 -0.1538  1.8024
 1923SOL    HW2 6340   1.670   0.428   5.336 -1.5974  0.5327  0.0635
 1924SOL     OW 6341   3.610   4.216   6.585  0.0948  0.7887  0.1587
 1924SOL    HW1 6342   3.675   4.204   6.654 -0.8675  1.4211  1.2083
 1924SOL    HW2 6343   3.661   4.218   6.504  1.2467  0.0677  0.8503
 1925SOL     OW 6344   0.764   4.640   6.837  0.2935 -0.1607 -0.0395
 1925SOL    HW1 6345   0.689   4.591   6.804  0.3118  0.0351 -0.3713
 1925SOL    HW2 6346   0.819   4.574   6.878  0.6425 -0.5179 -1.0723
 1926SOL     OW 6347   6.104   4.673   3.409 -0.1099  0.1834 -0.0930
 1926SOL    HW1 6348   6.142   4.585   3.408 -1.1537 -0.2839 -0.3169
 1926SOL    HW2 6349   6.118   4.705   3.498  1.3142  0.2637 -0.3335
 1927SOL     OW 6350   6.742   2.472   5.987  0.6223  0.2221 -0.3197
 1927SOL    HW1 6351   6.700   2.544   5.940  0.7820  0.5316 -0.0020
 1927SOL    HW2 6352   6.672   2.408   6.001  0.5204  0.2387 -0.7607
 1928SOL     OW 6353   5.863   1.300   0.484 -0.3328  0.5829 -0.1339
 1928SOL    HW1 6354   5.807   1.373   0.458 -0.5375  0.5989  0.3266
 1928SOL    HW2 6355   5.801   1.232   0.510 -0.1608 -0.0699 -1.3554
 1929SOL     OW 6356   2.232   2.437   6.619 -0.0435 -0.2338 -0.4944
 1929SOL    HW1 6357   2.216   2.527   6.647 -0.4572  0.0849 -1.6736
 1929SOL    HW2 6358   2.312   2.443   6.567 -0.2353 -0.4827 -0.8229
 1930SOL     OW 6359   6.769   6.902   2.061 -0.3133  0.3040 -0.0109
 1930SOL    HW1 6360   6.862   6.882   2.070 -0.1383  0.9741 -0.2744
 1930SOL    HW2 6361   6.728   6.818   2.041 -0.1079 -0.4610  2.4827
 1931SOL     OW 6362   5.863   2.512   0.839 -0.1810 -0.9089  0.3626
 1931SOL    HW1 6363   5.797   2.523   0.771 -0.7592 -0.0341  1.0446
 1931SOL    HW2 6364   5.946   2.518   0.792 -0.5747 -0.6091 -0.3160
 1932SOL     OW 6365   2.001   3.198   0.578  0.2475  0.4270  0.1370
 1932SOL    HW1 6366   2.058   3.267   0.610 -2.1814  1.8828  1.5962
 1932SOL    HW2 6367   1.918   3.241   0.559 -1.4800 -2.0404  1.3819
 1933SOL     OW 6368   0.699   2.389   2.196  0.5772  0.2598  0.1584
 1933SOL    HW1 6369   0.701   2.472   2.243 -0.0858 -0.7582  2.0818
 1933SOL    HW2 6370   0.610   2.357   2.206  0.8124 -0.6940 -0.5797
 1934SOL     OW 6371   6.543   6.197   3.177 -0.1001 -0.4166  0.0525
 1934SOL    HW1 6372   6.476   6.223   3.114 -0.0071 -1.4694 -0.5077
 1934SOL    HW2 6373   6.565   6.278   3.224 -0.9724  0.1556 -0.5003
 1935SOL     OW 6374   1.255   2.774   5.009  0.1218 -0.1814 -0.5017
 1935SOL    HW1 6375   1.291   2.801   5.094 -1.9760 -0.1704  0.4431
 1935SOL    HW2 6376   1.329   2.781   4.949  1.9798 -1.1487  1.4934
 1936SOL     OW 6377   7.354   5.888   0.410 -0.4561 -0.0159  0.1924
 1936SOL    HW1 6378   7.344   5.974   0.451 -0.1616 -0.0923  0.4284
 1936SOL    HW2 6379   7.433   5.895   0.357 -0.8107  0.0677 -0.3319
 1937SOL     OW 6380   6.739   2.945   2.092  0.1332 -0.4214  0.1918
 1937SOL    HW1 6381   6.827   2.961   2.057  0.6022  0.6502  1.7407
 1937SOL    HW2 6382   6.687   3.019   2.060  0.2455 -0.1157  0.7099
 1938SOL     OW 6383   5.173   6.342   0.792  0.1473 -0.1164  0.2740
 1938SOL    HW1 6384   5.201   6.255   0.763 -1.9192 -0.8404  0.3406
 1938SOL    HW2 6385   5.152   6.389   0.711 -2.7245 -1.1300  0.3367
 1939SOL     OW 6386   4.501   4.190   4.396  0.6237 -0.2079 -0.0638
 1939SOL    HW1 6387   4.453   4.128   4.451  0.4420 -0.7714 -0.8525
 1939SOL    HW2 6388   4.489   4.274   4.440 -0.8937 -0.3797 -0.1238
 1940SOL     OW 6389   0.280   2.446   2.144  0.5664  0.3628 -0.0110
 1940SOL    HW1 6390   0.190   2.435   2.177  0.6711  1.0203  0.5209
 1940SOL    HW2 6391   0.326   2.367   2.173  0.0087 -0.2720 -0.8217
 1941SOL     OW 6392   1.479   2.589   6.058 -0.4552  0.1811  0.5645
 1941SOL    HW1 6393   1.546   2.622   6.118  3.0036 -1.6199 -1.9539
 1941SOL    HW2 6394   1.439   2.516   6.105  0.6100  0.1855  1.5379
 1942SOL     OW 6395   3.688   5.768   3.718 -0.3759  0.5276 -0.4492
 1942SOL    HW1 6396   3.627   5.820   3.770  0.1704 -0.4556  1.2617
 1942SOL    HW2 6397   3.716   5.697   3.777  1.1784  0.0247 -1.7002
 1943SOL     OW 6398   1.138   5.644   2.273 -0.3274  0.0424 -0.2239
 1943SOL    HW1 6399   1.066   5.580   2.274  0.3534 -0.7321  0.2332
 1943SOL    HW2 6400   1.098   5.724   2.239 -0.8744 -0.9922 -2.1498
 1944SOL     OW 6401   1.925   1.504   6.516  0.4581 -0.0932 -0.1240
 1944SOL    HW1 6402   1.913   1.595   6.543  0.0747  0.2807 -1.4937
 1944SOL    HW2 6403   1.954   1.510   6.425 -0.9807 -1.3603 -0.7119
 1945SOL     OW 6404   3.877   6.773   6.480  0.3516 -0.6287 -0.3425
 1945SOL    HW1 6405   3.923   6.690   6.489  0.7247 -0.3891  0.0382
 1945SOL    HW2 6406   3.790   6.750   6.449 -0.0223 -1.2927  1.1150
 1946SOL     OW 6407   4.045   4.976   1.590 -0.5218 -0.4195  0.1750
 1946SOL    HW1 6408   4.091   5.054   1.560 -0.1464 -0.7571 -0.1509
 1946SOL    HW2 6409   3.962   4.977   1.542  0.1653 -1.0727 -1.1020
 1947SOL     OW 6410   6.647   6.351   3.445  0.0212 -0.0241  0.2253
 1947SOL    HW1 6411   6.641   6.430   3.498  0.3991 -0.4301  0.8827
 1947SOL    HW2 6412   6.577   6.294   3.478 -0.0761 -0.0744 -0.0639
 1948SOL     OW 6413   0.390   1.395   5.075 -0.2081 -0.1088 -0.2551
 1948SOL    HW1 6414   0.303   1.413   5.040  0.1411 -1.4197 -1.9433
 1948SOL    HW2 6415   0.424   1.325   5.020  1.1517 -1.0172  1.6194
 1949SOL     OW 6416   3.746   3.874   0.915  0.1860 -0.1556  0.1263
 1949SOL    HW1 6417   3.734   3.807   0.982 -1.4821 -0.1785 -0.1536
 1949SOL    HW2 6418   3.755   3.825   0.834  0.5998 -0.0796  0.1243
 1950SOL     OW 6419   4.449   4.427   6.994 -0.1213  0.1676  0.7032
 1950SOL    HW1 6420   4.499   4.436   6.913 -1.9957 -3.3753 -1.0878
 1950SOL    HW2 6421   4.381   4.494   6.988 -0.5975 -0.4113 -1.0434
 1951SOL     OW 6422   7.140   5.274   1.888 -0.3021  0.4760 -0.2176
 1951SOL    HW1 6423   7.126   5.221   1.810 -0.1803 -0.0226  0.0965
 1951SOL    HW2 6424   7.095   5.356   1.870 -0.4542  0.2809 -0.7253
 1952SOL     OW 6425   4.717   3.082   2.260 -0.1444  0.0870  0.0664
 1952SOL    HW1 6426   4.805   3.099   2.293 -0.3210  0.7945  0.1976
 1952SOL    HW2 6427   4.690   3.001   2.303  0.4875 -0.2099 -0.0796
 1953SOL     OW 6428   1.557   5.873   6.261  0.1206 -0.4308 -0.6639
 1953SOL    HW1 6429   1.570   5.801   6.200 -1.4558 -0.7929 -0.5978
 1953SOL    HW2 6430   1.497   5.839   6.327 -0.1121  0.7244 -0.2513
 1954SOL     OW 6431   2.825   4.794   0.749 -0.3458  0.0767  0.2803
 1954SOL    HW1 6432   2.777   4.722   0.709  0.1257 -0.1471  0.1016
 1954SOL    HW2 6433   2.760   4.861   0.765 -0.7463 -0.2923  0.2093
 1955SOL     OW 6434   0.415   0.460   0.137  0.0805  0.0880  0.4028
 1955SOL    HW1 6435   0.388   0.396   0.203  2.2498  1.7157  3.1034
 1955SOL    HW2 6436   0.488   0.419   0.092 -1.6507 -1.1862 -1.4053
 1956SOL     OW 6437   4.006   3.674   5.618  0.3343 -0.3313  0.1710
 1956SOL    HW1 6438   3.965   3.594   5.652  2.1127 -1.1967  0.4379
 1956SOL    HW2 6439   4.089   3.644   5.581  2.0322  1.6223  2.1319
 1957SOL     OW 6440   7.189   7.078   1.709  0.6650  0.6048  0.0705
 1957SOL    HW1 6441   7.199   7.167   1.743  0.7115  1.6532 -2.4634
 1957SOL    HW2 6442   7.224   7.082   1.620 -1.3454 -1.3707 -0.9220
 1958SOL     OW 6443   1.511   7.150   5.850 -0.5289 -0.1943  0.0066
 1958SOL    HW1 6444   1.460   7.175   5.773 -0.3681  2.9566  0.8101
 1958SOL    HW2 6445   1.551   7.231   5.880 -0.1819 -1.4002  3.1373
 1959SOL     OW 6446   6.045   4.249   4.163  0.0889  0.7020 -0.2172
 1959SOL    HW1 6447   6.120   4.222   4.111  0.6336 -0.6982  1.2147
 1959SOL    HW2 6448   6.071   4.233   4.254 -2.4000 -1.1649  0.2654
 1960SOL     OW 6449   3.471   2.415   6.368  0.3069 -0.0514 -0.4185
 1960SOL    HW1 6450   3.404   2.359   6.328 -0.5490  0.0550  0.7788
 1960SOL    HW2 6451   3.545   2.411   6.308  0.0533 -1.9777 -0.6816
 1961SOL     OW 6452   1.581   3.161   0.327  0.4400 -0.2351  0.0222
 1961SOL    HW1 6453   1.515   3.224   0.357  0.7105  0.4083 -0.6949
 1961SOL    HW2 6454   1.571   3.160   0.231  0.9448 -0.7204 -0.0271
 1962SOL     OW 6455   0.236   4.555   6.254  0.3553  0.1940  0.2997
 1962SOL    HW1 6456   0.274   4.633   6.294  2.7089 -0.5371 -0.3498
 1962SOL    HW2 6457   0.302   4.487   6.266 -0.0526 -0.7651 -2.2939
 1963SOL     OW 6458   2.495   6.498   6.240  0.0054 -0.7171 -0.0877
 1963SOL    HW1 6459   2.415   6.472   6.285  0.9537  2.1848  3.8767
 1963SOL    HW2 6460   2.465   6.546   6.163 -2.2337  0.7206  1.5337
 1964SOL     OW 6461   6.809   6.291   0.715 -0.5605 -0.0390  0.5463
 1964SOL    HW1 6462   6.771   6.379   0.716 -1.8493 -0.5250 -0.8983
 1964SOL    HW2 6463   6.787   6.254   0.800 -1.8068  0.3519  0.4198
 1965SOL     OW 6464   1.933   0.923   0.790  0.3896 -0.2224 -0.4502
 1965SOL    HW1 6465   1.894   0.849   0.742  0.7351  0.1341 -1.3030
 1965SOL    HW2 6466   1.861   0.985   0.799 -0.0624 -0.8974  0.7993
 1966SOL     OW 6467   1.634   3.568   0.992  0.0855  0.3268  0.5408
 1966SOL    HW1 6468   1.623   3.553   0.898  0.6886  0.8563  0.3762
 1966SOL    HW2 6469   1.555   3.614   1.018  0.1164  0.5830  0.1913
 1967SOL     OW 6470   6.365   1.986   1.216 -0.5916 -0.3408  0.8966
 1967SOL    HW1 6471   6.401   2.023   1.135 -1.7924  1.4504  1.1214
 1967SOL    HW2 6472   6.286   1.939   1.187  0.2455 -1.7115  0.7705
 1968SOL     OW 6473   2.676   6.320   6.356 -0.0456  0.3630 -0.1646
 1968SOL    HW1 6474   2.757   6.325   6.305 -0.6870 -1.5834 -1.4728
 1968SOL    HW2 6475   2.616   6.379   6.311  0.0190  0.2317 -0.4246
 1969SOL     OW 6476   5.061   5.202   0.785  0.0029  0.1369 -0.7885
 1969SOL    HW1 6477   5.116   5.126   0.805  3.4950  2.6381  0.0306
 1969SOL    HW2 6478   5.011   5.217   0.866  0.3442 -0.4483 -0.4644
 1970SOL     OW 6479   1.495   1.705   0.540  0.0685 -0.0917  0.5162
 1970SOL    HW1 6480   1.429   1.772   0.522 -2.7907 -3.4144 -3.0733
 1970SOL    HW2 6481   1.565   1.721   0.477  1.1798  1.3775  2.0171
 1971SOL     OW 6482   4.938   3.918   4.542 -0.1705 -0.0161  0.5032
 1971SOL    HW1 6483   4.918   3.980   4.613 -0.7640  0.2499  0.1142
 1971SOL    HW2 6484   4.852   3.886   4.514 -0.1938  1.6806 -1.6856
 1972SOL     OW 6485   0.850   0.389   7.280 -0.4808  0.7553  0.2906
 1972SOL    HW1 6486   0.788   0.357   7.345 -0.6372  0.8051  0.1657
 1972SOL    HW2 6487   0.896   0.461   7.323 -0.3476  0.5670  0.4628
 1973SOL     OW 6488   6.521   0.860   1.912  0.5600 -0.0168  0.0629
 1973SOL    HW1 6489   6.517   0.767   1.890  2.3513  0.2394 -1.5464
 1973SOL    HW2 6490   6.445   0.898   1.867  0.6869 -0.4618 -0.5350
 1974SOL     OW 6491   0.783   5.082   7.322  0.0920 -0.1712  0.2381
 1974SOL    HW1 6492   0.708   5.025   7.339 -2.8379  2.4870 -2.3591
 1974SOL    HW2 6493   0.840   5.071   7.398 -3.1911 -1.9922  2.6880
 1975SOL     OW 6494   0.378   4.920   0.364  0.5507 -0.0062 -0.0470
 1975SOL    HW1 6495   0.394   4.980   0.290 -0.1015  0.8155  0.4604
 1975SOL    HW2 6496   0.401   4.972   0.441 -0.0176 -0.4202  0.4005
 1976SOL     OW 6497   4.579   3.009   2.982  0.0546 -0.0299 -0.1657
 1976SOL    HW1 6498   4.524   2.977   2.910  1.1728  0.7599 -1.4191
 1976SOL    HW2 6499   4.668   2.981   2.959  0.1972 -1.7292  2.0748
 1977SOL     OW 6500   1.128   6.452   4.468 -0.8512 -0.7063  0.2064
 1977SOL    HW1 6501   1.144   6.360   4.449 -1.7501 -1.0581  1.1193
 1977SOL    HW2 6502   1.156   6.498   4.388  0.5116 -1.6618  0.1074
 1978SOL     OW 6503   6.452   4.933   4.779  0.5654  0.5936  0.6569
 1978SOL    HW1 6504   6.547   4.924   4.792  0.6156  0.0646 -0.0574
 1978SOL    HW2 6505   6.434   5.024   4.805  1.5116  1.1734 -0.5749
 1979SOL     OW 6506   6.699   3.144   2.763 -0.4329  0.2473 -0.4656
 1979SOL    HW1 6507   6.628   3.081   2.774 -0.6960  0.7532  1.0490
 1979SOL    HW2 6508   6.670   3.221   2.812  0.3937  1.1237 -1.2938
 1980SOL     OW 6509   5.988   0.925   1.205  0.6171  0.1889 -0.1703
 1980SOL    HW1 6510   6.002   0.977   1.284  1.1048 -1.0578  0.5884
 1980SOL    HW2 6511   5.944   0.846   1.236 -0.5689  0.3381 -1.3691
 1981SOL     OW 6512   4.272   7.416   0.369 -0.0011  0.6730 -0.1150
 1981SOL    HW1 6513   4.314   7.338   0.402  0.5712  0.8315 -0.4593
 1981SOL    HW2 6514   4.271   7.405   0.274 -1.0346  0.5200 -0.0977
 1982SOL     OW 6515   3.271   3.365   7.383 -0.0196  0.0708 -0.2377
 1982SOL    HW1 6516   3.324   3.399   7.310 -1.1816  0.5463 -0.8815
 1982SOL    HW2 6517   3.251   3.275   7.358 -1.4782  0.6157 -1.1481
 1983SOL     OW 6518   3.839   6.539   4.237 -0.0107 -0.8396 -0.4374
 1983SOL    HW1 6519   3.745   6.523   4.230 -0.4037  1.1270 -0.3165
 1983SOL    HW2 6520   3.863   6.503   4.322 -0.9668 -0.1424  0.1563
 1984SOL     OW 6521   3.562   6.222   3.447 -0.5359  0.4006  0.5044
 1984SOL    HW1 6522   3.556   6.311   3.481 -1.9017  1.0603 -1.3462
 1984SOL    HW2 6523   3.602   6.232   3.361 -0.5622 -0.8053  0.3416
 1985SOL     OW 6524   7.087   0.085   4.669 -0.4163 -0.0555  0.0609
 1985SOL    HW1 6525   7.164   0.142   4.661  0.1142 -0.8027 -0.2547
 1985SOL    HW2 6526   7.032   0.129   4.734  0.8485 -0.1368  1.2309
 1986SOL     OW 6527   4.956   0.898   6.519 -0.2738 -0.7172 -0.3657
 1986SOL    HW1 6528   4.877   0.949   6.502 -0.0022 -0.1266  0.0667
 1986SOL    HW2 6529   5.019   0.930   6.455 -0.0521 -0.3752  0.0139
 1987SOL     OW 6530   0.298   1.321   0.648 -0.2922  0.5427 -0.0161
 1987SOL    HW1 6531   0.362   1.363   0.590 -1.7488  3.6451  0.3875
 1987SOL    HW2 6532   0.239   1.275   0.589 -0.0363  1.1542 -0.7727
 1988SOL     OW 6533   7.134   3.563   5.585 -0.1178 -0.0023  0.0049
 1988SOL    HW1 6534   7.175   3.650   5.587  1.5897 -0.7952  0.8625
 1988SOL    HW2 6535   7.134   3.534   5.676 -1.2397 -0.6790 -0.1875
 1989SOL     OW 6536   5.983   2.601   4.000 -0.1421 -0.0435  0.2001
 1989SOL    HW1 6537   5.970   2.696   3.998  2.7878  0.4196 -0.8638
 1989SOL    HW2 6538   6.028   2.581   3.918 -1.6076 -2.5663 -0.0885
 1990SOL     OW 6539   7.159   6.917   2.874  0.7220  0.6165  0.5038
 1990SOL    HW1 6540   7.136   6.988   2.934  0.2414  0.7318  0.1872
 1990SOL    HW2 6541   7.244   6.942   2.838  1.5517  0.0145  1.9528
 1991SOL     OW 6542   6.318   3.069   0.249 -0.5280  0.1795  0.2114
 1991SOL    HW1 6543   6.381   3.004   0.217 -0.5772  0.2730 -0.0835
 1991SOL    HW2 6544   6.366   3.118   0.316 -0.4125 -0.0025  0.2623
 1992SOL     OW 6545   1.591   0.484   4.666  0.5695 -0.2559  0.1101
 1992SOL    HW1 6546   1.599   0.509   4.573  0.3203 -0.2280  0.0955
 1992SOL    HW2 6547   1.578   0.389   4.664  0.6807 -0.2721  0.1236
 1993SOL     OW 6548   1.246   5.695   6.363  0.3657 -0.0116  0.2841
 1993SOL    HW1 6549   1.266   5.775   6.315 -0.1983  0.2308  0.4467
 1993SOL    HW2 6550   1.226   5.725   6.452  1.2837 -0.4448  0.6452
 1994SOL     OW 6551   5.822   4.034   3.098  0.1771 -0.4998  0.1016
 1994SOL    HW1 6552   5.774   3.997   3.024 -1.1368  0.5108  0.3968
 1994SOL    HW2 6553   5.758   4.091   3.141  0.7894 -1.3049  2.2047
 1995SOL     OW 6554   4.228   1.492   7.271 -0.2036  0.3667  0.6888
 1995SOL    HW1 6555   4.284   1.556   7.314  1.2749  0.0072 -0.6054
 1995SOL    HW2 6556   4.161   1.544   7.226  0.3317  0.9352  0.5422
 1996SOL     OW 6557   5.091   5.665   1.690  0.0926 -0.0906 -0.3468
 1996SOL    HW1 6558   5.163   5.652   1.752 -1.4611  1.1392  1.8885
 1996SOL    HW2 6559   5.117   5.740   1.638 -0.0411  1.1701  1.3162
 1997SOL     OW 6560   2.916   0.108   1.140  0.7014  0.2809 -0.0255
 1997SOL    HW1 6561   3.003   0.129   1.177  0.9047  0.1784 -0.4443
 1997SOL    HW2 6562   2.903   0.016   1.162  1.9470 -0.5358 -2.3863
 1998SOL     OW 6563   0.698   4.415   1.999  0.4768  0.2367 -0.3668
 1998SOL    HW1 6564   0.641   4.341   1.980  1.9450 -0.4253 -2.7297
 1998SOL    HW2 6565   0.640   4.482   2.036 -1.6571 -0.6917 -1.8345
 1999SOL     OW 6566   4.973   5.381   5.535  0.1671  0.3384 -0.6204
 1999SOL    HW1 6567   5.067   5.360   5.536  0.6549  2.3597  0.3750
 1999SOL    HW2 6568   4.946   5.362   5.445  1.7231  0.5219 -1.1634
 2000SOL     OW 6569   3.041   4.204   2.544 -0.5067 -0.2158 -0.5244
 2000SOL    HW1 6570   3.056   4.184   2.637  0.7879  0.0626 -0.6445
 2000SOL    HW2 6571   3.063   4.123   2.498 -0.2057 -0.0662 -0.6484
 2001SOL     OW 6572   3.101   5.374   7.012 -0.4518 -0.2161  0.2029
 2001SOL    HW1 6573   3.035   5.317   7.053  0.4583 -1.1147  0.4548
 2001SOL    HW2 6574   3.173   5.377   7.075 -0.7784  1.8729  0.5489
 2002SOL     OW 6575   3.628   7.064   7.173 -0.0883  0.6311 -0.5835
 2002SOL    HW1 6576   3.621   7.104   7.260  0.7359 -0.6339  0.0822
 2002SOL    HW2 6577   3.668   6.979   7.188 -2.4222 -0.7996 -1.8591
 2003SOL     OW 6578   3.999   3.629   4.545 -0.2134 -0.4428 -0.5142
 2003SOL    HW1 6579   3.960   3.555   4.593  1.2504  0.7352  2.8251
 2003SOL    HW2 6580   4.062   3.587   4.485 -0.6058 -1.9896  0.0944
 2004SOL     OW 6581   1.170   6.326   7.385  0.3674  0.7232  0.0365
 2004SOL    HW1 6582   1.175   6.336   7.290 -0.1888 -0.4474 -0.1313
 2004SOL    HW2 6583   1.132   6.408   7.416  0.0989  0.9171 -0.7958
 2005SOL     OW 6584   4.408   2.915   2.742 -0.3210  0.0191 -0.2872
 2005SOL    HW1 6585   4.471   2.847   2.722 -1.3253 -0.6839 -1.1780
 2005SOL    HW2 6586   4.322   2.872   2.732 -0.9473  0.8471  1.1907
 2006SOL     OW 6587   6.422   1.327   3.543 -0.0028  0.3189 -0.2215
 2006SOL    HW1 6588   6.385   1.282   3.619  0.0221  1.0270  0.2241
 2006SOL    HW2 6589   6.350   1.333   3.480  0.3086 -1.3870 -0.7902
 2007SOL     OW 6590   1.529   7.276   7.173  0.5351 -0.2203  0.1511
 2007SOL    HW1 6591   1.575   7.233   7.101  0.3273  1.4930 -1.0842
 2007SOL    HW2 6592   1.551   7.369   7.163 -1.1857  0.3303  1.0240
 2008SOL     OW 6593   0.150   0.861   4.287  0.1627 -0.1088 -0.9176
 2008SOL    HW1 6594   0.192   0.931   4.337  0.3368  0.2238 -1.5160
 2008SOL    HW2 6595   0.085   0.824   4.347  0.4304  0.2180 -0.4202
 2009SOL     OW 6596   3.377   3.698   1.695 -0.3300  0.1203  0.8074
 2009SOL    HW1 6597   3.318   3.697   1.770 -0.9335 -2.2763  0.3848
 2009SOL    HW2 6598   3.352   3.622   1.643  3.2300 -1.1523  0.6875
 2010SOL     OW 6599   0.649   6.573   5.468  0.5812 -0.3697  0.0100
 2010SOL    HW1 6600   0.567   6.523   5.460 -0.6662  1.3725  1.2207
 2010SOL    HW2 6601   0.671   6.568   5.561  0.0370  1.8115  0.3194
 2011SOL     OW 6602   2.244   3.255   2.265  0.2791 -0.4491 -0.4054
 2011SOL    HW1 6603   2.274   3.313   2.335 -1.2663  0.2142 -0.2405
 2011SOL    HW2 6604   2.239   3.169   2.306  1.2243 -0.4316 -0.2449
 2012SOL     OW 6605   3.684   4.138   3.724  0.3301 -0.8941  0.1354
 2012SOL    HW1 6606   3.722   4.113   3.640  0.3816 -1.6449  0.3681
 2012SOL    HW2 6607   3.610   4.194   3.702  1.0233 -0.1499 -0.3611
 2013SOL     OW 6608   3.848   5.946   2.286  0.1657  0.5981 -1.3261
 2013SOL    HW1 6609   3.871   6.032   2.251  0.5762  1.0474 -0.0031
 2013SOL    HW2 6610   3.756   5.953   2.309  0.0792  0.5239 -1.6368
 2014SOL     OW 6611   5.459   6.744   0.720 -0.4888 -0.0569  0.9674
 2014SOL    HW1 6612   5.444   6.657   0.757  1.5274 -0.8459  0.1004
 2014SOL    HW2 6613   5.460   6.730   0.625  2.5460  0.2855  0.8322
 2015SOL     OW 6614   2.781   3.408   0.892  0.6162  0.1227  0.4146
 2015SOL    HW1 6615   2.691   3.378   0.879  0.5840  0.4681 -0.2039
 2015SOL    HW2 6616   2.790   3.418   0.987 -0.5508  1.7327  0.3898
 2016SOL     OW 6617   4.658   6.854   3.015  0.4726  0.2421  0.3800
 2016SOL    HW1 6618   4.751   6.878   3.016  0.3670  0.6567  0.1772
 2016SOL    HW2 6619   4.620   6.907   2.945 -0.0420  0.5409  0.8760
 2017SOL     OW 6620   1.291   5.239   5.266  0.3609 -0.2462  0.1610
 2017SOL    HW1 6621   1.316   5.283   5.347 -0.0875 -2.9506  1.8657
 2017SOL    HW2 6622   1.195   5.240   5.267  0.3432 -1.1863  0.2173
 2018SOL     OW 6623   1.276   0.635   2.653  0.5594  0.2635  0.4088
 2018SOL    HW1 6624   1.306   0.593   2.734 -0.6217 -1.5058 -0.0232
 2018SOL    HW2 6625   1.182   0.647   2.667  0.0123 -1.5871 -1.3017
 2019SOL     OW 6626   2.310   5.735   6.826 -0.0961  0.2775 -0.0026
 2019SOL    HW1 6627   2.223   5.771   6.843  0.1551  1.4269 -1.0479
 2019SOL    HW2 6628   2.355   5.740   6.911 -1.0572 -0.4385  0.5771
 2020SOL     OW 6629   4.761   4.714   1.556  0.4346 -0.2426 -0.4325
 2020SOL    HW1 6630   4.739   4.699   1.465  0.8122 -0.9142 -0.4250
 2020SOL    HW2 6631   4.856   4.727   1.556  0.4164 -0.1012 -0.1592
 2021SOL     OW 6632   3.977   5.838   4.344 -0.8786 -1.1600 -0.0558
 2021SOL    HW1 6633   3.927   5.855   4.264  1.1419  1.4903 -0.9137
 2021SOL    HW2 6634   4.008   5.924   4.371 -0.1376 -2.2009  2.7045
 2022SOL     OW 6635   4.356   4.038   4.667  0.0401 -0.0451  0.4659
 2022SOL    HW1 6636   4.442   4.005   4.642  0.1706 -0.0573  0.9071
 2022SOL    HW2 6637   4.294   3.980   4.623  0.2652 -0.8877  1.2133
 2023SOL     OW 6638   3.061   5.574   1.927  0.0001 -0.1760  0.3764
 2023SOL    HW1 6639   3.113   5.495   1.913 -0.4464 -0.9632  2.6509
 2023SOL    HW2 6640   3.078   5.597   2.018 -2.6979  0.2100  0.8680
 2024SOL     OW 6641   1.744   1.994   2.299  0.4195 -0.2552  0.3349
 2024SOL    HW1 6642   1.662   2.043   2.308 -0.0781 -0.6792 -1.3653
 2024SOL    HW2 6643   1.721   1.920   2.243  2.0618 -0.1340 -0.5649
 2025SOL     OW 6644   2.347   2.919   5.569 -0.7216 -0.0955  0.0927
 2025SOL    HW1 6645   2.433   2.906   5.608 -0.4624  0.8573 -0.1216
 2025SOL    HW2 6646   2.291   2.943   5.642 -0.3897  1.0215  0.0033
 2026SOL     OW 6647   4.306   5.313   0.189 -0.3946  1.2368 -0.6002
 2026SOL    HW1 6648   4.366   5.252   0.234 -1.6220 -0.0447 -0.6207
 2026SOL    HW2 6649   4.272   5.368   0.260 -0.4902  0.8248 -0.3176
 2027SOL     OW 6650   7.243   4.287   3.026  1.1832  0.3519  0.8656
 2027SOL    HW1 6651   7.334   4.284   2.997  1.1995  1.8406  0.6756
 2027SOL    HW2 6652   7.212   4.374   3.000 -0.8994 -0.7951 -0.8223
 2028SOL     OW 6653   3.571   2.517   4.737 -0.2381 -0.2759  0.0196
 2028SOL    HW1 6654   3.480   2.520   4.767 -0.3676 -0.0362 -0.3818
 2028SOL    HW2 6655   3.605   2.433   4.769 -0.3025  0.0687  1.0067
 2029SOL     OW 6656   3.594   2.244   4.872 -0.3853 -0.2189 -0.4813
 2029SOL    HW1 6657   3.571   2.264   4.963  0.8572 -1.3302  0.1107
 2029SOL    HW2 6658   3.681   2.204   4.878  0.4537  1.1678 -2.3096
 2030SOL     OW 6659   6.744   3.823   2.501 -0.2063 -0.0104 -0.4595
 2030SOL    HW1 6660   6.743   3.742   2.451 -1.1724 -1.7252  2.1170
 2030SOL    HW2 6661   6.800   3.804   2.576 -0.4156  1.7251  0.1833
 2031SOL     OW 6662   2.958   3.650   2.674 -0.3820 -0.2253  0.2243
 2031SOL    HW1 6663   3.047   3.615   2.673 -0.2346  0.0300 -2.0894
 2031SOL    HW2 6664   2.902   3.573   2.683  0.0205 -0.3067  2.7596
 2032SOL     OW 6665   3.800   7.322   6.835  0.2560  0.4345  0.0733
 2032SOL    HW1 6666   3.882   7.370   6.846  0.3227  0.3909 -0.2415
 2032SOL    HW2 6667   3.749   7.344   6.914  0.0070  1.5754 -0.3898
 2033SOL     OW 6668   6.415   3.858   4.086 -0.2292 -0.1553  0.3392
 2033SOL    HW1 6669   6.476   3.785   4.098  1.0046  0.9449  1.0807
 2033SOL    HW2 6670   6.380   3.875   4.174 -0.1588  0.4096  0.2641
 2034SOL     OW 6671   1.295   3.569   0.517  0.0039  0.2637 -0.3989
 2034SOL    HW1 6672   1.232   3.569   0.588 -0.0252 -1.1914 -0.3971
 2034SOL    HW2 6673   1.262   3.634   0.455 -1.1250 -0.0060 -0.0867
 2035SOL     OW 6674   5.401   0.071   7.279 -0.0586  0.2661 -0.1761
 2035SOL    HW1 6675   5.430  -0.020   7.268  0.6374  0.6222 -1.4880
 2035SOL    HW2 6676   5.479   0.117   7.309 -0.9091  0.1011  2.5782
 2036SOL     OW 6677   7.205   4.996   1.682  0.2190  0.3193 -0.5174
 2036SOL    HW1 6678   7.184   4.972   1.773  0.3852  2.6431  0.1981
 2036SOL    HW2 6679   7.151   4.937   1.629  0.4007 -1.3559  1.0588
 2037SOL     OW 6680   6.402   1.579   3.346  0.1758  0.2925 -0.4974
 2037SOL    HW1 6681   6.454   1.540   3.276  0.6522 -1.1592  0.5944
 2037SOL    HW2 6682   6.334   1.515   3.364 -0.7703  1.2674 -0.5381
 2038SOL     OW 6683   2.376   2.839   3.735 -0.3130 -0.4238  0.0457
 2038SOL    HW1 6684   2.390   2.776   3.806 -0.0461 -0.0028  0.3721
 2038SOL    HW2 6685   2.380   2.924   3.777  0.2547 -0.1517 -0.5441
 2039SOL     OW 6686   6.383   5.529   0.650  0.0288  0.2078  0.7221
 2039SOL    HW1 6687   6.412   5.600   0.708 -0.2458  1.9110 -1.1138
 2039SOL    HW2 6688   6.435   5.540   0.570 -2.1862  0.3115 -0.7980
 2040SOL     OW 6689   7.431   4.589   4.031 -0.2688  0.0756 -0.3149
 2040SOL    HW1 6690   7.399   4.585   3.941  1.8535 -0.1615 -1.1194
 2040SOL    HW2 6691   7.403   4.674   4.064  1.9710  1.7839 -2.4865
 2041SOL     OW 6692   5.823   2.568   1.287 -0.1223  0.1480  0.3159
 2041SOL    HW1 6693   5.784   2.556   1.373 -0.7466  1.0613  0.1674
 2041SOL    HW2 6694   5.861   2.482   1.266 -2.3289 -0.9006  0.3152
 2042SOL     OW 6695   4.426   6.102   0.533 -0.3073  0.8344 -0.7202
 2042SOL    HW1 6696   4.394   6.115   0.622 -1.7599  1.0038 -1.2392
 2042SOL    HW2 6697   4.408   6.009   0.514 -1.2384  1.1158 -1.2830
 2043SOL     OW 6698   2.250   1.020   1.757 -0.2321  0.3255 -0.2706
 2043SOL    HW1 6699   2.232   0.944   1.702 -0.1160  0.0338  0.0904
 2043SOL    HW2 6700   2.336   1.002   1.795 -0.4383  0.3821  0.2330
 2044SOL     OW 6701   3.084   5.609   2.185 -0.0818  0.0228  0.1451
 2044SOL    HW1 6702   3.132   5.546   2.240  0.2654  0.0047 -0.1726
 2044SOL    HW2 6703   3.044   5.669   2.247 -1.7783 -1.4361  0.5508
 2045SOL     OW 6704   5.295   4.960   4.952 -0.1217  0.0183  0.2109
 2045SOL    HW1 6705   5.246   5.043   4.952  0.3905  0.3483 -1.1719
 2045SOL    HW2 6706   5.387   4.987   4.941  0.1402 -0.6953  0.6246
 2046SOL     OW 6707   1.471   3.896   1.607  0.8689  0.9435 -0.2305
 2046SOL    HW1 6708   1.492   3.937   1.691  1.2113 -1.3825  0.8921
 2046SOL    HW2 6709   1.549   3.844   1.585  0.4453  0.8250 -1.5668
 2047SOL     OW 6710   2.299   3.299   4.391  0.0421  0.0419 -0.2811
 2047SOL    HW1 6711   2.317   3.206   4.381  1.0890  0.2454 -0.3835
 2047SOL    HW2 6712   2.376   3.334   4.435 -1.2753  0.4685  1.8653
 2048SOL     OW 6713   5.777   2.895   3.958 -0.4411  0.5538  0.2677
 2048SOL    HW1 6714   5.735   2.857   3.880 -0.7869  0.6029  0.4291
 2048SOL    HW2 6715   5.871   2.892   3.938 -0.5481  0.9583 -0.3313
 2049SOL     OW 6716   1.538   2.953   4.048  0.0919 -0.2151  0.5269
 2049SOL    HW1 6717   1.502   2.969   4.135  1.4905 -2.4906  1.6447
 2049SOL    HW2 6718   1.587   3.033   4.027 -2.6050  1.5312  0.4661
 2050SOL     OW 6719   3.785   0.226   4.252 -0.3291 -0.0874  0.3050
 2050SOL    HW1 6720   3.776   0.272   4.169  1.5195 -0.6871 -0.2881
 2050SOL    HW2 6721   3.846   0.155   4.233 -3.6012 -3.3218  0.9920
 2051SOL     OW 6722   3.197   2.641   0.937 -0.1741  0.6369 -0.3309
 2051SOL    HW1 6723   3.127   2.610   0.994 -0.0910 -0.0646 -0.6044
 2051SOL    HW2 6724   3.271   2.655   0.996 -0.2849  0.5418 -0.1693
 2052SOL     OW 6725   0.491   3.340   1.288  0.3881 -0.0378 -0.1799
 2052SOL    HW1 6726   0.556   3.269   1.285 -0.6640 -0.9937 -1.0038
 2052SOL    HW2 6727   0.422   3.307   1.345  0.2772  0.6953  0.1215
 2053SOL     OW 6728   3.765   7.132   2.178  0.2080 -0.5550 -0.6274
 2053SOL    HW1 6729   3.847   7.180   2.188 -0.4818  0.4798  0.2325
 2053SOL    HW2 6730   3.777   7.080   2.099  1.7710 -0.5832 -0.4043
 2054SOL     OW 6731   6.994   6.709   3.548  0.4293  0.0279  0.1090
 2054SOL    HW1 6732   7.023   6.730   3.637  0.1036  0.4430  0.1188
 2054SOL    HW2 6733   6.905   6.673   3.560  0.2732  0.3512 -0.0730
 2055SOL     OW 6734   2.622   2.794   2.694 -0.3920 -0.3930 -1.0096
 2055SOL    HW1 6735   2.604   2.700   2.687 -2.2169 -0.0094 -2.0619
 2055SOL    HW2 6736   2.582   2.832   2.616  0.3074  1.2745 -0.5983
 2056SOL     OW 6737   3.147   2.583   4.517 -0.0379 -0.1423 -0.0821
 2056SOL    HW1 6738   3.150   2.612   4.425  0.4669 -0.3040 -0.1177
 2056SOL    HW2 6739   3.211   2.513   4.522 -1.3615 -1.4049 -0.0382
 2057SOL     OW 6740   3.323   2.252   3.131  0.0953  0.2614 -0.2962
 2057SOL    HW1 6741   3.371   2.187   3.081 -1.5414 -2.1979  1.0903
 2057SOL    HW2 6742   3.231   2.224   3.125 -0.4416  1.2696  2.0267
 2058SOL     OW 6743   4.138   4.121   5.492 -0.3967  0.5110  0.4084
 2058SOL    HW1 6744   4.212   4.163   5.535 -0.5254  2.9388 -1.5672
 2058SOL    HW2 6745   4.064   4.137   5.552  0.2796 -0.4039  1.5400
 2059SOL     OW 6746   6.834   6.804   1.757 -0.5313  0.3602 -0.1957
 2059SOL    HW1 6747   6.841   6.709   1.763  1.2548  0.4520 -0.3245
 2059SOL    HW2 6748   6.887   6.827   1.681 -0.1689  1.5355  0.3912
 2060SOL     OW 6749   4.548   5.597   5.346 -0.2247 -0.5183  0.0235
 2060SOL    HW1 6750   4.566   5.554   5.430 -0.5422  0.0866  0.4126
 2060SOL    HW2 6751   4.458   5.572   5.326 -0.0032 -1.0155 -0.3570
 2061SOL     OW 6752   6.690   4.121   3.988  0.0266  0.0828 -0.6384
 2061SOL    HW1 6753   6.739   4.042   4.010 -0.7141  0.4788  3.0780
 2061SOL    HW2 6754   6.600   4.090   3.973  0.2000 -0.0048 -1.5328
 2062SOL     OW 6755   7.157   4.194   2.321 -0.3213 -0.0880  0.1852
 2062SOL    HW1 6756   7.195   4.268   2.367 -1.5956 -0.3357  1.7271
 2062SOL    HW2 6757   7.107   4.233   2.249  1.3630  0.3307 -0.7901
 2063SOL     OW 6758   0.849   4.724   5.469 -0.2532  0.0228  0.4570
 2063SOL    HW1 6759   0.871   4.809   5.508 -0.2434  0.7506 -1.0432
 2063SOL    HW2 6760   0.754   4.720   5.473 -0.2202 -0.1577  1.0560
 2064SOL     OW 6761   3.588   5.102   0.088  0.1997  0.2010 -0.2065
 2064SOL    HW1 6762   3.582   5.086  -0.006  1.8600  0.2170 -0.3325
 2064SOL    HW2 6763   3.507   5.149   0.109 -0.4941 -0.3781 -1.4925
 2065SOL     OW 6764   2.676   7.163   0.833 -0.2256 -0.2979  0.1711
 2065SOL    HW1 6765   2.644   7.094   0.776  2.3249 -0.0560 -1.7209
 2065SOL    HW2 6766   2.619   7.238   0.815 -0.4238 -0.6954 -0.9190
 2066SOL     OW 6767   6.771   4.875   2.889 -0.2259 -0.4472 -0.7486
 2066SOL    HW1 6768   6.685   4.884   2.930  0.3053 -1.2800  0.6384
 2066SOL    HW2 6769   6.804   4.964   2.881 -0.1039 -0.2630  1.2819
 2067SOL     OW 6770   6.934   3.540   5.915 -0.8490 -0.2521 -0.7032
 2067SOL    HW1 6771   6.894   3.463   5.875  0.4564  0.1549 -2.9561
 2067SOL    HW2 6772   7.021   3.510   5.944 -0.4195  0.2986 -1.3954
 2068SOL     OW 6773   3.672   5.457   2.411 -0.0266 -0.0479 -0.1543
 2068SOL    HW1 6774   3.628   5.541   2.396 -0.9720 -0.5054 -0.0147
 2068SOL    HW2 6775   3.601   5.393   2.413  0.3867 -0.5014  2.5811
 2069SOL     OW 6776   7.170   4.594   1.217  0.0304 -0.7143  0.2797
 2069SOL    HW1 6777   7.077   4.612   1.229  0.4108 -0.4435  4.1040
 2069SOL    HW2 6778   7.210   4.680   1.207 -0.0676 -0.8105 -1.0393
 2070SOL     OW 6779   3.084   3.658   6.728 -0.7213  0.4461  0.3916
 2070SOL    HW1 6780   3.053   3.732   6.780 -1.1417  0.7653 -0.3029
 2070SOL    HW2 6781   3.087   3.585   6.790 -0.7016  0.9432  0.9855
 2071SOL     OW 6782   5.966   4.316   0.158 -0.1815  0.2155  0.3609
 2071SOL    HW1 6783   5.899   4.358   0.212  0.8789 -0.3163  2.1560
 2071SOL    HW2 6784   6.034   4.383   0.147  0.2984 -0.1567  0.9940
 2072SOL     OW 6785   1.171   5.497   0.298 -0.5125 -0.1218 -0.2984
 2072SOL    HW1 6786   1.255   5.455   0.281 -1.0221 -0.5378 -2.0339
 2072SOL    HW2 6787   1.129   5.503   0.212 -2.4428 -0.3083  0.5728
 2073SOL     OW 6788   1.053   1.588   7.391 -0.4418 -0.5889  0.3889
 2073SOL    HW1 6789   1.101   1.580   7.309 -0.1979  1.4164  0.2923
 2073SOL    HW2 6790   1.121   1.596   7.458 -0.5353  2.2862  0.2488
 2074SOL     OW 6791   3.319   4.168   2.329  0.5182  0.0920  0.5410
 2074SOL    HW1 6792   3.279   4.084   2.353 -0.4927  0.0403 -1.1649
 2074SOL    HW2 6793   3.251   4.233   2.345  0.7550  0.3925  0.3410
 2075SOL     OW 6794   1.532   4.239   6.269  0.3092  0.1050 -0.2273
 2075SOL    HW1 6795   1.536   4.143   6.274 -0.2330  0.1013  0.4562
 2075SOL    HW2 6796   1.592   4.269   6.337  1.4967  0.2801 -1.3309
 2076SOL     OW 6797   4.475   3.274   2.012 -0.3148  0.1956  0.0757
 2076SOL    HW1 6798   4.549   3.221   1.983  0.3678  1.6199 -0.9268
 2076SOL    HW2 6799   4.493   3.291   2.105  0.6173  0.4816 -0.1453
 2077SOL     OW 6800   4.605   5.649   1.325 -0.1274 -0.0764 -0.2905
 2077SOL    HW1 6801   4.665   5.719   1.300  1.1873 -0.9722  0.2438
 2077SOL    HW2 6802   4.537   5.693   1.375  0.7823  0.8132  0.2132
 2078SOL     OW 6803   2.440   2.141   2.400  0.1916  0.6880 -0.7949
 2078SOL    HW1 6804   2.460   2.054   2.365 -1.4218 -0.2288  0.4429
 2078SOL    HW2 6805   2.428   2.196   2.323 -0.7116 -0.6620 -1.6407
 2079SOL     OW 6806   3.275   0.073   3.536  0.5398 -0.0086 -0.4570
 2079SOL    HW1 6807   3.359   0.031   3.555  0.9466  0.4079 -1.2481
 2079SOL    HW2 6808   3.236   0.018   3.468 -0.9520 -1.5549  1.5602
 2080SOL     OW 6809   1.527   4.171   5.627 -0.1903 -0.1744  0.1253
 2080SOL    HW1 6810   1.475   4.151   5.549  2.1798 -1.7888 -1.1618
 2080SOL    HW2 6811   1.465   4.210   5.688 -2.3475  0.2703 -2.2035
 2081SOL     OW 6812   2.732   4.780   3.341  0.4080 -0.6213 -0.6025
 2081SOL    HW1 6813   2.808   4.789   3.284  1.7627  2.3807  1.3943
 2081SOL    HW2 6814   2.749   4.701   3.392  0.4190 -1.8867 -2.4448
 2082SOL     OW 6815   6.441   2.621   5.116  0.0123 -0.1317  0.2372
 2082SOL    HW1 6816   6.443   2.715   5.129  0.0769 -0.0422 -0.3918
 2082SOL    HW2 6817   6.464   2.609   5.023 -0.9323 -0.7070  0.0622
 2083SOL     OW 6818   0.188   1.989   5.094  0.2781 -0.1613 -0.5686
 2083SOL    HW1 6819   0.281   1.966   5.096  0.5306  0.6922  1.9890
 2083SOL    HW2 6820   0.171   2.025   5.181 -2.5079 -0.4585 -0.8980
 2084SOL     OW 6821   2.801   3.579   0.346  0.0692  0.0101 -0.4073
 2084SOL    HW1 6822   2.896   3.588   0.336  0.0537  0.4842 -0.1282
 2084SOL    HW2 6823   2.767   3.585   0.256  0.4534 -2.1351 -0.7476
 2085SOL     OW 6824   1.465   6.671   2.125 -0.4442  0.0406 -0.4407
 2085SOL    HW1 6825   1.487   6.636   2.038 -1.5020 -1.0925 -0.2705
 2085SOL    HW2 6826   1.432   6.596   2.173 -0.1534  0.7288  0.8647
 2086SOL     OW 6827   7.018   0.389   4.236  0.1749 -0.0643  0.0797
 2086SOL    HW1 6828   6.962   0.316   4.208  0.3604 -0.9826  1.9735
 2086SOL    HW2 6829   7.103   0.350   4.253  0.3714  0.6427  0.8126
 2087SOL     OW 6830   1.372   1.963   1.591  0.1788 -0.3084 -0.2405
 2087SOL    HW1 6831   1.379   1.869   1.607 -1.9293 -0.0043  3.6866
 2087SOL    HW2 6832   1.409   2.004   1.669 -0.6515  2.0675 -0.9999
 2088SOL     OW 6833   0.338   1.548   4.165  0.5707  0.0004 -0.2828
 2088SOL    HW1 6834   0.257   1.548   4.115 -0.2611  1.8752  0.9296
 2088SOL    HW2 6835   0.369   1.458   4.161 -1.4767 -0.7344 -0.9252
 2089SOL     OW 6836   0.826   1.639   4.404 -0.3392 -0.3371 -0.3395
 2089SOL    HW1 6837   0.910   1.655   4.360  0.3103 -1.1677  0.5572
 2089SOL    HW2 6838   0.761   1.645   4.334  0.5583 -0.5188 -1.2138
 2090SOL     OW 6839   3.311   4.833   3.196 -0.6991  0.0192 -0.2379
 2090SOL    HW1 6840   3.266   4.772   3.137 -1.1822 -0.1739  0.3124
 2090SOL    HW2 6841   3.244   4.897   3.219 -0.7450 -0.3302  0.6741
 2091SOL     OW 6842   2.903   3.490   2.285  0.0774  0.0126 -0.0622
 2091SOL    HW1 6843   2.875   3.454   2.369  0.1878 -0.9026 -0.4016
 2091SOL    HW2 6844   2.957   3.566   2.307 -1.6443  1.0626  0.6237
 2092SOL     OW 6845   0.786   5.697   4.609  0.1160  0.5222  0.3500
 2092SOL    HW1 6846   0.822   5.641   4.678 -0.0577  0.0699  0.0753
 2092SOL    HW2 6847   0.793   5.645   4.529 -4.3753 -1.1027  0.7534
 2093SOL     OW 6848   3.190   4.450   5.979 -0.4555  0.0125  0.0096
 2093SOL    HW1 6849   3.202   4.374   6.036 -0.5451  0.9377  1.3347
 2093SOL    HW2 6850   3.162   4.414   5.895  1.9578 -1.5880 -0.2201
 2094SOL     OW 6851   3.642   7.440   3.905  0.4901 -0.7615  0.2028
 2094SOL    HW1 6852   3.636   7.502   3.832  3.3014  3.2107  2.8723
 2094SOL    HW2 6853   3.588   7.480   3.974  1.0986 -2.1595  1.5411
 2095SOL     OW 6854   7.334   0.698   4.794  0.0280  0.2506  0.2624
 2095SOL    HW1 6855   7.259   0.675   4.738 -0.4563  0.4018  0.8339
 2095SOL    HW2 6856   7.359   0.615   4.834  1.0710 -0.0646 -0.9842
 2096SOL     OW 6857   0.795   1.338   7.099  0.3939 -0.1919 -0.2162
 2096SOL    HW1 6858   0.725   1.274   7.108 -0.5166  0.5766 -1.4960
 2096SOL    HW2 6859   0.786   1.393   7.177  1.1927 -1.5752  0.8972
 2097SOL     OW 6860   5.076   4.116   4.226  0.0005 -0.3836  0.1174
 2097SOL    HW1 6861   5.046   4.034   4.188  1.0504 -1.0034  0.5733
 2097SOL    HW2 6862   5.000   4.152   4.271 -0.8997 -0.3028 -1.3927
 2098SOL     OW 6863   5.954   3.205   6.855 -0.3637 -0.3881 -0.2542
 2098SOL    HW1 6864   5.878   3.263   6.858 -0.7622 -0.8726 -0.8397
 2098SOL    HW2 6865   6.028   3.261   6.880 -0.8006  0.2565 -0.3817
 2099SOL     OW 6866   3.914   2.447   6.913 -0.1870  0.5211  0.1484
 2099SOL    HW1 6867   3.897   2.538   6.891  0.3725  0.9020  1.2181
 2099SOL    HW2 6868   4.004   2.446   6.947  0.8857 -0.9143 -2.4447
 2100SOL     OW 6869   0.499   7.118   2.852 -0.5250  0.4943 -0.0707
 2100SOL    HW1 6870   0.523   7.042   2.905 -0.0304  0.6455 -0.0744
 2100SOL    HW2 6871   0.578   7.171   2.848 -0.5758  0.5330 -0.8870
 2101SOL     OW 6872   3.636   6.110   1.152 -0.2341 -0.1962  0.0035
 2101SOL    HW1 6873   3.727   6.088   1.171  0.1490  0.3131 -1.1262
 2101SOL    HW2 6874   3.585   6.046   1.202  0.7481 -0.7164  0.3724
 2102SOL     OW 6875   0.279   6.624   3.965 -0.5252 -0.0273  0.7264
 2102SOL    HW1 6876   0.247   6.613   3.875  1.4448  1.4422 -0.2433
 2102SOL    HW2 6877   0.304   6.536   3.993 -2.3797 -0.7093  0.3752
 2103SOL     OW 6878   4.963   1.799   6.814  0.3753 -0.3131 -0.0390
 2103SOL    HW1 6879   4.975   1.837   6.901  2.2921  1.3965 -0.9665
 2103SOL    HW2 6880   4.991   1.708   6.824 -0.1023 -0.3324  1.2728
 2104SOL     OW 6881   0.872   4.735   0.364  0.0764 -0.6607  0.2391
 2104SOL    HW1 6882   0.834   4.774   0.443 -0.3666 -1.9093  0.6551
 2104SOL    HW2 6883   0.853   4.642   0.371  1.1277 -0.9666 -0.7467
 2105SOL     OW 6884   4.030   4.896   4.102 -0.0576  0.4708 -0.2234
 2105SOL    HW1 6885   3.988   4.835   4.041  0.5163  1.1685 -1.3612
 2105SOL    HW2 6886   4.009   4.862   4.189 -1.9215  0.1288 -0.7702
 2106SOL     OW 6887   6.675   3.444   2.557  0.3204 -0.3140 -0.7286
 2106SOL    HW1 6888   6.662   3.505   2.629  0.2675  0.3382 -1.2862
 2106SOL    HW2 6889   6.589   3.403   2.544  0.2600 -0.2261 -0.6056
 2107SOL     OW 6890   4.929   0.698   2.204  0.2914 -0.3415 -0.3067
 2107SOL    HW1 6891   4.939   0.680   2.298 -0.9551  1.3915  0.2175
 2107SOL    HW2 6892   4.841   0.667   2.184  0.2236  0.0835 -0.6817
 2108SOL     OW 6893   5.714   1.856   1.533  0.1067  0.0705  0.5440
 2108SOL    HW1 6894   5.785   1.805   1.570  1.5454  2.4197  1.2880
 2108SOL    HW2 6895   5.636   1.829   1.582  0.2429 -3.0100 -0.7275
 2109SOL     OW 6896   2.097   1.702   3.514 -0.0785 -0.1759  0.3425
 2109SOL    HW1 6897   2.123   1.788   3.482  2.4464 -1.0690 -0.2951
 2109SOL    HW2 6898   2.033   1.719   3.582 -0.1676  2.1531 -0.2497
 2110SOL     OW 6899   2.218   2.655   3.605 -0.4711  0.5716  0.5394
 2110SOL    HW1 6900   2.266   2.726   3.647 -0.2741 -0.0671  1.4247
 2110SOL    HW2 6901   2.182   2.604   3.677  0.0957 -0.7030 -0.0386
 2111SOL     OW 6902   5.388   4.552   1.482  0.5174  0.3169 -0.2708
 2111SOL    HW1 6903   5.336   4.494   1.538  0.4398  1.4532  0.8728
 2111SOL    HW2 6904   5.385   4.511   1.396 -1.3750 -0.2386  0.0117
 2112SOL     OW 6905   6.355   3.540   2.823  0.5006 -0.1273 -0.0431
 2112SOL    HW1 6906   6.369   3.635   2.817 -0.3739 -0.0569 -1.6535
 2112SOL    HW2 6907   6.260   3.530   2.816  0.4526 -1.0707  1.5388
 2113SOL     OW 6908   2.282   5.296   3.739 -0.1364  0.2116  0.4326
 2113SOL    HW1 6909   2.249   5.383   3.717  2.1696  0.9445 -0.4472
 2113SOL    HW2 6910   2.284   5.249   3.655 -0.5068 -0.4053  0.7545
 2114SOL     OW 6911   5.696   6.534   7.363 -0.0684  0.2943 -0.3477
 2114SOL    HW1 6912   5.609   6.496   7.374 -0.1159  0.6872  0.8234
 2114SOL    HW2 6913   5.679   6.622   7.329 -0.2640  0.9945  1.4479
 2115SOL     OW 6914   0.016   3.087   6.788 -0.2617 -0.6888  0.5126
 2115SOL    HW1 6915  -0.010   2.996   6.801  0.1027 -0.8486  0.1512
 2115SOL    HW2 6916  -0.043   3.137   6.845  0.4057 -1.2484  1.7194
 2116SOL     OW 6917   0.194   1.844   0.854  0.2789  0.0636  0.2369
 2116SOL    HW1 6918   0.227   1.932   0.837  0.7085 -0.4894 -1.9696
 2116SOL    HW2 6919   0.103   1.847   0.824  0.1028 -0.1064  0.7324
 2117SOL     OW 6920   3.689   5.623   5.791 -1.0754 -0.3305 -1.1901
 2117SOL    HW1 6921   3.620   5.565   5.758 -0.3389 -1.4542 -0.8102
 2117SOL    HW2 6922   3.771   5.581   5.762 -0.5154  0.3122 -0.5617
 2118SOL     OW 6923   2.082   4.414   7.308  0.0318 -0.3683  0.1107
 2118SOL    HW1 6924   2.014   4.377   7.365 -0.7204 -0.0335 -0.5476
 2118SOL    HW2 6925   2.087   4.506   7.334  1.1639 -0.6655  1.0342
 2119SOL     OW 6926   0.827   1.956   4.102  0.4091  0.0949 -0.1325
 2119SOL    HW1 6927   0.860   1.867   4.119 -1.5169 -0.4174  1.2427
 2119SOL    HW2 6928   0.762   1.970   4.170 -2.3387  0.9538 -2.7518
 2120SOL     OW 6929   3.962   1.646   2.222  0.0987 -0.4450 -0.0944
 2120SOL    HW1 6930   4.021   1.576   2.194  0.2943 -0.9696  1.5030
 2120SOL    HW2 6931   3.957   1.635   2.317 -3.0228 -0.7848 -0.2167
 2121SOL     OW 6932   7.233   2.001   1.475 -0.0480  0.7050  0.1506
 2121SOL    HW1 6933   7.186   2.022   1.556  0.3473 -1.4070  0.9998
 2121SOL    HW2 6934   7.274   2.083   1.449 -2.0510  1.9769  0.8157
 2122SOL     OW 6935   3.487   6.187   5.976 -0.2262 -0.1666 -0.3694
 2122SOL    HW1 6936   3.415   6.124   5.979 -0.9119  0.5778 -0.7881
 2122SOL    HW2 6937   3.495   6.208   5.883  0.1555  0.1843 -0.2578
 2123SOL     OW 6938   0.491   3.830   6.155  0.0277 -0.3343  0.6335
 2123SOL    HW1 6939   0.448   3.776   6.089 -0.1002  0.8174 -0.2639
 2123SOL    HW2 6940   0.561   3.875   6.107  0.0885  0.3416  1.3408
 2124SOL     OW 6941   6.954   3.468   0.053  0.0518 -0.3236 -0.7080
 2124SOL    HW1 6942   6.923   3.553   0.022  0.3239 -0.9556 -2.8932
 2124SOL    HW2 6943   6.887   3.406   0.024 -0.0104 -0.8988  0.6210
 2125SOL     OW 6944   1.080   0.525   1.378  0.2072  0.1455 -0.0281
 2125SOL    HW1 6945   1.081   0.429   1.373 -0.1000  0.1965 -1.6873
 2125SOL    HW2 6946   0.988   0.548   1.365  0.3215  0.6695  0.0895
 2126SOL     OW 6947   3.561   5.128   5.888  0.2606 -0.5970  0.5537
 2126SOL    HW1 6948   3.626   5.164   5.827  0.6198 -2.2139 -0.0722
 2126SOL    HW2 6949   3.481   5.119   5.836  0.1932 -0.7443  0.6808
 2127SOL     OW 6950   6.908   6.342   7.306  0.3348 -0.9969 -0.0669
 2127SOL    HW1 6951   6.846   6.307   7.243 -0.8650 -1.7362  1.4448
 2127SOL    HW2 6952   6.984   6.283   7.302  0.5695 -0.6359 -1.2556
 2128SOL     OW 6953   1.184   4.680   6.573  0.2448  0.3116 -0.4675
 2128SOL    HW1 6954   1.147   4.768   6.578  2.0915  1.0459  1.4316
 2128SOL    HW2 6955   1.125   4.626   6.626  0.0131  0.7291 -0.2978
 2129SOL     OW 6956   3.965   0.322   6.483 -0.2032 -0.0771 -0.0647
 2129SOL    HW1 6957   4.003   0.251   6.533 -1.6615 -1.5883 -0.9635
 2129SOL    HW2 6958   3.912   0.371   6.546 -2.1770 -2.0649 -0.0355
 2130SOL     OW 6959   7.431   0.964   7.309 -0.3438  0.5228 -0.1030
 2130SOL    HW1 6960   7.522   0.967   7.281 -0.2651  2.9496  0.1588
 2130SOL    HW2 6961   7.433   0.919   7.393  0.2679 -1.2696 -1.0124
 2131SOL     OW 6962   2.768   1.990   3.284 -0.1228 -0.2420 -0.2268
 2131SOL    HW1 6963   2.728   1.960   3.203  0.5700 -0.4478 -0.4987
 2131SOL    HW2 6964   2.856   1.952   3.283  0.1721  0.4084  0.2341
 2132SOL     OW 6965   2.779   4.040   0.619 -0.2651 -0.3874 -0.9848
 2132SOL    HW1 6966   2.726   4.083   0.552 -0.1569 -1.2518 -1.6473
 2132SOL    HW2 6967   2.793   3.952   0.585  1.4516 -0.2419 -0.7632
 2133SOL     OW 6968   7.400   4.283   5.396 -0.3633  0.1054  0.1410
 2133SOL    HW1 6969   7.474   4.223   5.384  0.8625  1.6583 -0.4651
 2133SOL    HW2 6970   7.439   4.360   5.438 -1.7329  0.7927  0.1990
 2134SOL     OW 6971   6.628   5.762   7.069  0.3058  0.1417 -0.3285
 2134SOL    HW1 6972   6.667   5.770   7.156 -0.2630 -0.1859 -0.0361
 2134SOL    HW2 6973   6.584   5.846   7.055  1.9942  0.9511 -1.1243
 2135SOL     OW 6974   1.149   0.408   4.411  0.9110 -0.0438  0.0876
 2135SOL    HW1 6975   1.149   0.361   4.328  0.5100 -0.3301  0.2438
 2135SOL    HW2 6976   1.061   0.446   4.417  1.5038  1.5033 -0.4635
 2136SOL     OW 6977   5.158   3.935   7.346 -0.2554  0.2848 -0.3805
 2136SOL    HW1 6978   5.135   3.880   7.271 -0.8595  0.1199 -0.0823
 2136SOL    HW2 6979   5.134   3.883   7.422 -0.6800  0.8922 -0.0953
 2137SOL     OW 6980   1.872   5.046   3.902 -0.3434 -0.2979  0.6045
 2137SOL    HW1 6981   1.961   5.038   3.868 -0.5878  0.4196 -0.2294
 2137SOL    HW2 6982   1.882   5.031   3.996  0.6721 -0.1317  0.5403
 2138SOL     OW 6983   3.974   7.258   5.220  0.1059 -0.5507 -0.0253
 2138SOL    HW1 6984   3.987   7.352   5.212  1.1057 -0.5474  1.3835
 2138SOL    HW2 6985   3.884   7.243   5.191  0.3084  0.6545 -1.4057
 2139SOL     OW 6986   4.140   1.451   0.085 -0.0320 -0.2598  0.4295
 2139SOL    HW1 6987   4.143   1.428  -0.008  1.3576 -0.2021  0.4406
 2139SOL    HW2 6988   4.196   1.528   0.093 -1.2622  0.5963  1.0978
 2140SOL     OW 6989   5.328   4.455   1.854  0.5298 -0.8293 -0.2564
 2140SOL    HW1 6990   5.421   4.478   1.859  0.3943 -0.3399  0.1653
 2140SOL    HW2 6991   5.309   4.414   1.939 -0.1102  0.9519  0.5286
 2141SOL     OW 6992   0.012   6.508   6.694 -0.0729  0.3788 -0.3123
 2141SOL    HW1 6993   0.029   6.542   6.606 -1.1371 -0.4625 -0.8792
 2141SOL    HW2 6994  -0.035   6.578   6.739  0.2730  0.7293 -0.5019
 2142SOL     OW 6995   4.873   0.076   1.008 -0.3142  0.0771 -0.2899
 2142SOL    HW1 6996   4.835   0.163   1.002 -0.5155 -0.0262 -0.5328
 2142SOL    HW2 6997   4.939   0.073   0.938 -0.1537  0.1115 -0.1395
 2143SOL     OW 6998   3.575   5.526   3.024 -0.2034  0.3588 -0.5456
 2143SOL    HW1 6999   3.615   5.579   2.954  0.0893 -1.3223 -1.7061
 2143SOL    HW2 7000   3.482   5.525   3.003  0.1372 -1.9985 -2.3070
 2144SOL     OW 7001   3.099   0.586   4.995  0.4188 -0.0584 -0.1403
 2144SOL    HW1 7002   3.043   0.660   5.017 -0.4961 -1.5139  3.0458
 2144SOL    HW2 7003   3.039   0.516   4.969  1.0693 -0.4852 -0.5498
 2145SOL     OW 7004   6.778   4.507   0.504 -0.1397  0.4538  0.9475
 2145SOL    HW1 7005   6.768   4.495   0.409  0.4343  1.9014  0.6686
 2145SOL    HW2 7006   6.702   4.560   0.529  0.2213  0.8996  1.1112
 2146SOL     OW 7007   3.413   2.616   0.754 -0.2617  0.3744  0.5289
 2146SOL    HW1 7008   3.439   2.524   0.761  1.2284  0.6903 -0.3914
 2146SOL    HW2 7009   3.365   2.633   0.835 -0.7529 -1.2626  0.6143
 2147SOL     OW 7010   6.127   5.267   0.426 -0.0195 -0.2443  0.2370
 2147SOL    HW1 7011   6.110   5.303   0.513  0.4898 -0.4199  0.4140
 2147SOL    HW2 7012   6.042   5.234   0.397 -0.3637  0.5509  0.3210
 2148SOL     OW 7013   0.298   3.082   5.225 -0.4362  0.0038 -0.0877
 2148SOL    HW1 7014   0.390   3.077   5.199 -1.0161  1.6471 -2.8251
 2148SOL    HW2 7015   0.293   3.161   5.280 -0.1611 -0.2806  0.3486
 2149SOL     OW 7016   5.923   2.918   5.408 -0.2464 -0.1717 -0.5855
 2149SOL    HW1 7017   6.005   2.953   5.373 -0.2984  0.5823  0.0247
 2149SOL    HW2 7018   5.948   2.834   5.447  0.2675  0.1189 -0.2796
 2150SOL     OW 7019   5.330   7.153   5.925  0.0972  0.5567 -0.1678
 2150SOL    HW1 7020   5.326   7.213   6.000  1.1925  0.0634  0.2969
 2150SOL    HW2 7021   5.362   7.208   5.853 -0.5095  0.9190 -0.1727
 2151SOL     OW 7022   6.355   3.670   4.992 -0.2759 -0.2012 -0.3552
 2151SOL    HW1 7023   6.403   3.608   5.046 -0.5983 -0.5256 -0.4303
 2151SOL    HW2 7024   6.367   3.755   5.034 -0.2560 -0.4015  0.0409
 2152SOL     OW 7025   2.282   5.046   4.198  0.0272 -0.0452 -0.0964
 2152SOL    HW1 7026   2.329   4.964   4.191  1.0630  0.6635 -2.2357
 2152SOL    HW2 7027   2.348   5.114   4.181 -0.8222  1.2485  1.4543
 2153SOL     OW 7028   2.563   2.249   0.144 -0.7008 -0.4292 -0.4701
 2153SOL    HW1 7029   2.490   2.305   0.118 -0.6013 -0.0361  0.0841
 2153SOL    HW2 7030   2.636   2.309   0.155 -0.4399 -0.7481 -0.4533
 2154SOL     OW 7031   2.183   1.935   3.372  0.1350 -0.0411 -0.0126
 2154SOL    HW1 7032   2.248   1.924   3.302 -0.4049  0.4326 -0.5948
 2154SOL    HW2 7033   2.186   2.028   3.394 -0.1207 -0.0764  0.1802
 2155SOL     OW 7034   2.461   2.612   0.678 -0.1284  0.0433  0.5795
 2155SOL    HW1 7035   2.439   2.523   0.652  0.1311 -0.0674  0.7227
 2155SOL    HW2 7036   2.523   2.642   0.612 -0.2314  0.1250  0.5199
 2156SOL     OW 7037   3.529   5.863   6.647  0.2880  0.7553 -0.1917
 2156SOL    HW1 7038   3.519   5.774   6.611  0.4048  0.4414  0.5342
 2156SOL    HW2 7039   3.611   5.895   6.609 -0.6474  1.2628 -1.8907
 2157SOL     OW 7040   1.469   3.456   6.351  0.4907 -0.0846  0.4950
 2157SOL    HW1 7041   1.428   3.423   6.431  0.7797 -1.5098  0.0869
 2157SOL    HW2 7042   1.562   3.438   6.364  0.6166  0.2905  0.1110
 2158SOL     OW 7043   6.406   1.325   6.241  0.3952 -0.6384 -0.2194
 2158SOL    HW1 7044   6.452   1.290   6.165  2.5718 -1.5969  1.4306
 2158SOL    HW2 7045   6.410   1.420   6.231  2.2245 -0.7116 -0.4696
 2159SOL     OW 7046   1.530   6.664   0.448  0.5051  0.4668  0.0974
 2159SOL    HW1 7047   1.510   6.572   0.430 -0.5931  0.3244  1.7983
 2159SOL    HW2 7048   1.467   6.689   0.515 -0.8680  3.2321 -2.0420
 2160SOL     OW 7049   3.402   5.842   6.878 -0.1777 -0.3140  0.2552
 2160SOL    HW1 7050   3.450   5.773   6.923 -0.0561 -0.9394 -0.7853
 2160SOL    HW2 7051   3.431   5.835   6.787  0.3989  1.6063  0.2538
 2161SOL     OW 7052   4.690   7.236   2.742 -0.3280  0.9492  0.5151
 2161SOL    HW1 7053   4.751   7.235   2.668 -2.3603  0.2848 -1.2751
 2161SOL    HW2 7054   4.688   7.328   2.770  0.9360  1.1043  0.1787
 2162SOL     OW 7055   4.127   6.453   5.386  0.2771 -0.1060  0.5583
 2162SOL    HW1 7056   4.121   6.361   5.361 -0.1600  0.0250  0.1523
 2162SOL    HW2 7057   4.100   6.456   5.477 -0.8732 -0.2303  0.2377
 2163SOL     OW 7058   2.366   4.501   5.584  0.6877  0.0722  0.1178
 2163SOL    HW1 7059   2.417   4.554   5.523 -0.5901 -0.2889 -1.3199
 2163SOL    HW2 7060   2.337   4.563   5.651  0.6262  0.8592 -0.6144
 2164SOL     OW 7061   4.649   6.000   0.890  0.1591  0.4345 -0.2754
 2164SOL    HW1 7062   4.588   5.937   0.851  0.5020  1.7076 -3.1271
 2164SOL    HW2 7063   4.593   6.062   0.936 -0.4534 -0.0464 -0.3573
 2165SOL     OW 7064   2.400   4.061   4.974  0.1541  0.1200  0.4902
 2165SOL    HW1 7065   2.331   4.038   5.036  0.5964  0.8095  1.2596
 2165SOL    HW2 7066   2.428   4.148   5.000  0.2088  0.5179 -0.8308
 2166SOL     OW 7067   3.226   2.835   4.906  0.0210  0.1625 -0.0930
 2166SOL    HW1 7068   3.138   2.796   4.903 -0.2428  0.6172  1.1955
 2166SOL    HW2 7069   3.263   2.815   4.820 -0.8606 -1.1368 -0.2091
 2167SOL     OW 7070   1.139   5.116   0.262 -0.1221 -0.6081 -0.7103
 2167SOL    HW1 7071   1.112   5.147   0.348  1.7177 -0.8084 -0.0186
 2167SOL    HW2 7072   1.192   5.038   0.280  3.1913  1.2055 -1.6732
 2168SOL     OW 7073   4.608   1.633   1.929  0.1762  0.8384  0.1464
 2168SOL    HW1 7074   4.632   1.714   1.974  1.7558  0.5241 -0.0627
 2168SOL    HW2 7075   4.637   1.647   1.838  0.6564 -0.0292  0.1584
 2169SOL     OW 7076   2.755   5.346   0.305 -0.3653 -1.0680 -0.2335
 2169SOL    HW1 7077   2.833   5.315   0.260  1.6229  1.9010  0.8507
 2169SOL    HW2 7078   2.767   5.318   0.396  0.2030  0.5891  0.2285
 2170SOL     OW 7079   0.601   5.870   0.471 -0.0831 -0.0606 -0.3653
 2170SOL    HW1 7080   0.525   5.913   0.509  0.3253 -0.0458  0.4527
 2170SOL    HW2 7081   0.614   5.792   0.525  1.6399  0.9436  0.7433
 2171SOL     OW 7082   3.882   4.445   2.338  0.0648  0.1730 -0.1552
 2171SOL    HW1 7083   3.892   4.510   2.408 -0.2094  0.0403  0.0105
 2171SOL    HW2 7084   3.788   4.447   2.317  0.2749  0.8295 -1.1143
 2172SOL     OW 7085   2.184   6.368   1.780  0.3146  0.0425  0.1168
 2172SOL    HW1 7086   2.163   6.439   1.720  1.3565  0.7949  0.6089
 2172SOL    HW2 7087   2.117   6.373   1.848  0.3708  0.5346  0.1349
 2173SOL     OW 7088   2.746   1.914   6.926 -0.9546 -0.6273  0.0292
 2173SOL    HW1 7089   2.812   1.852   6.894 -2.2400 -1.9329 -0.2030
 2173SOL    HW2 7090   2.751   1.907   7.021 -2.3176 -2.5450  0.0280
 2174SOL     OW 7091   3.259   6.825   0.714 -0.4849  0.0382 -0.1389
 2174SOL    HW1 7092   3.344   6.806   0.674 -0.1005 -0.7257  0.9952
 2174SOL    HW2 7093   3.257   6.920   0.722  1.0183 -0.0196  1.3625
 2175SOL     OW 7094   3.390   2.787   3.656 -0.2811 -0.1855 -0.1152
 2175SOL    HW1 7095   3.415   2.879   3.668  0.1885 -0.5207  1.8238
 2175SOL    HW2 7096   3.455   2.753   3.593  0.5280  0.4285  0.3643
 2176SOL     OW 7097   6.897   3.963   3.222 -0.7268  0.4661  0.5198
 2176SOL    HW1 7098   6.915   3.949   3.315  1.3097 -1.3274 -0.0607
 2176SOL    HW2 7099   6.972   4.012   3.190 -1.2646  0.8079 -0.2433
 2177SOL     OW 7100   7.039   1.693   1.322  0.2516 -0.1986  0.2438
 2177SOL    HW1 7101   7.016   1.758   1.256  0.7401  0.0048  0.2646
 2177SOL    HW2 7102   6.970   1.701   1.388  0.5424  0.6234  0.4666
 2178SOL     OW 7103   2.964   7.040   4.137  0.5651 -0.1006 -0.2907
 2178SOL    HW1 7104   2.872   7.060   4.157  0.7511  1.5536 -0.9235
 2178SOL    HW2 7105   2.996   7.118   4.092  2.3202 -0.6197 -0.0158
 2179SOL     OW 7106   2.492   2.154   0.873 -0.0864 -0.2228 -0.0851
 2179SOL    HW1 7107   2.493   2.245   0.903  0.8176 -1.1125  2.9454
 2179SOL    HW2 7108   2.582   2.123   0.886  0.6404 -0.6477 -4.5715
 2180SOL     OW 7109   5.721   3.811   2.899  0.0183 -0.1165 -0.1663
 2180SOL    HW1 7110   5.656   3.878   2.881 -0.3318 -0.7743 -1.4959
 2180SOL    HW2 7111   5.685   3.762   2.973 -0.9391 -0.3755 -0.7828
 2181SOL     OW 7112   3.957   0.970   5.676 -0.8547  0.3860 -0.6634
 2181SOL    HW1 7113   3.971   0.886   5.633 -0.0396 -0.9866  2.0376
 2181SOL    HW2 7114   3.945   1.033   5.605 -1.0009 -1.9177 -2.7781
 2182SOL     OW 7115   5.136   4.128   1.709  0.1422  0.8938 -0.5249
 2182SOL    HW1 7116   5.057   4.152   1.757  0.3901  2.0716 -0.6808
 2182SOL    HW2 7117   5.190   4.080   1.772 -0.5815  0.2739 -0.3566
 2183SOL     OW 7118   0.435   4.278   5.124 -0.4108 -0.2220 -0.5638
 2183SOL    HW1 7119   0.459   4.369   5.141  0.9519 -0.2937 -1.8734
 2183SOL    HW2 7120   0.365   4.260   5.186 -1.4869  2.0551 -1.0102
 2184SOL     OW 7121   6.100   3.907   5.919 -0.6392  0.2153  0.8973
 2184SOL    HW1 7122   6.164   3.904   5.990 -1.9691  1.8345  2.2367
 2184SOL    HW2 7123   6.150   3.879   5.842  1.4617  0.6423  2.0132
 2185SOL     OW 7124   5.012   7.037   4.112  0.4196  0.2171 -0.2918
 2185SOL    HW1 7125   4.959   6.968   4.152 -0.9907  1.1686 -0.4594
 2185SOL    HW2 7126   5.089   6.991   4.078  0.2700 -1.0337  0.9580
 2186SOL     OW 7127   7.310   5.608   3.750  0.6243  0.0763 -0.1921
 2186SOL    HW1 7128   7.377   5.673   3.729  0.9071 -0.2454 -0.3091
 2186SOL    HW2 7129   7.272   5.585   3.665  0.3450  0.2742 -0.1238
 2187SOL     OW 7130   2.996   2.388   2.809  0.1947 -0.5420  0.1593
 2187SOL    HW1 7131   3.016   2.331   2.735 -1.2602 -1.2345  0.2562
 2187SOL    HW2 7132   3.002   2.477   2.774 -1.3229 -0.8792 -1.0443
 2188SOL     OW 7133   6.099   6.739   1.831 -0.4216  0.2185  0.8678
 2188SOL    HW1 7134   6.063   6.818   1.791 -0.3201  0.2701  0.8779
 2188SOL    HW2 7135   6.185   6.766   1.863  0.1536 -0.2208 -0.2605
 2189SOL     OW 7136   1.368   7.277   4.844 -0.3730 -0.2988 -0.0422
 2189SOL    HW1 7137   1.450   7.243   4.807 -1.2680 -0.8018 -1.6381
 2189SOL    HW2 7138   1.383   7.371   4.854  0.1137 -0.2447 -1.1481
 2190SOL     OW 7139   3.549   0.715   2.714  0.0295 -0.2883  0.8535
 2190SOL    HW1 7140   3.589   0.770   2.782 -0.1532  0.6899  0.1861
 2190SOL    HW2 7141   3.623   0.667   2.676  0.4736  0.8490  0.2297
 2191SOL     OW 7142   3.458   5.733   4.785 -0.4541  0.1730 -0.4411
 2191SOL    HW1 7143   3.427   5.715   4.696 -1.5622 -0.0354 -0.0315
 2191SOL    HW2 7144   3.546   5.695   4.788  0.4599  2.0257 -2.0769
 2192SOL     OW 7145   3.066   2.229   7.334 -0.4606 -0.6899 -0.1548
 2192SOL    HW1 7146   2.986   2.280   7.318  0.7196  2.2199  2.1944
 2192SOL    HW2 7147   3.100   2.210   7.247 -1.8105  1.2937 -1.2010
 2193SOL     OW 7148   4.237   7.083   1.627  0.6698  0.0812  0.0963
 2193SOL    HW1 7149   4.312   7.023   1.625 -0.2053 -1.0190 -1.1570
 2193SOL    HW2 7150   4.177   7.045   1.691  0.1214 -0.3666 -0.6828
 2194SOL     OW 7151   3.643   2.615   1.505  0.1630 -0.2445  0.2293
 2194SOL    HW1 7152   3.641   2.698   1.458  0.9264 -0.5921 -0.4371
 2194SOL    HW2 7153   3.660   2.639   1.596 -3.3173  0.6012  0.8189
 2195SOL     OW 7154   0.093   2.183   1.784  1.0278  0.3079 -0.0494
 2195SOL    HW1 7155   0.075   2.263   1.834  1.5463  0.5525 -0.2441
 2195SOL    HW2 7156   0.178   2.153   1.817  1.0794  0.1249 -0.3464
 2196SOL     OW 7157   5.894   1.358   6.737 -0.4759  0.4592  0.0615
 2196SOL    HW1 7158   5.845   1.363   6.819 -1.3446  1.6427 -0.4988
 2196SOL    HW2 7159   5.979   1.321   6.762 -0.5723  1.1819  1.5686
 2197SOL     OW 7160   4.855   4.611   3.469  0.2959  0.2971  0.1928
 2197SOL    HW1 7161   4.840   4.704   3.484  0.4189  0.2579  0.5625
 2197SOL    HW2 7162   4.778   4.568   3.505 -0.6722  0.3648 -1.6472
 2198SOL     OW 7163   6.015   4.522   2.197  0.0795 -0.1183  0.2665
 2198SOL    HW1 7164   5.966   4.550   2.274 -1.1093  0.1310 -0.5592
 2198SOL    HW2 7165   5.949   4.511   2.129  1.1118 -0.3160 -0.7319
 2199SOL     OW 7166   5.802   6.700   0.507 -0.2991 -0.0872 -0.6102
 2199SOL    HW1 7167   5.757   6.711   0.423  0.3137 -0.9221 -1.0656
 2199SOL    HW2 7168   5.756   6.627   0.549 -0.7904  0.5158 -0.0801
 2200SOL     OW 7169   3.342   6.328   6.220  0.2646  0.2552 -1.0088
 2200SOL    HW1 7170   3.338   6.245   6.268 -0.1228  0.0753 -1.3488
 2200SOL    HW2 7171   3.435   6.343   6.205  0.4068  0.3967 -0.0648
 2201SOL     OW 7172   1.450   1.281   5.996  0.3393 -0.3254  0.1369
 2201SOL    HW1 7173   1.475   1.244   6.081  0.4207 -1.4443 -0.3481
 2201SOL    HW2 7174   1.436   1.374   6.013 -2.4933 -0.9677  2.0481
 2202SOL     OW 7175   0.326   2.577   3.434  0.0331 -0.2012  0.4437
 2202SOL    HW1 7176   0.375   2.601   3.513 -1.5172 -0.1121  1.4225
 2202SOL    HW2 7177   0.366   2.630   3.364  0.2120  1.1591  1.5281
 2203SOL     OW 7178   5.909   1.733   7.213  0.5650  0.0085  0.2496
 2203SOL    HW1 7179   6.002   1.726   7.191  0.3391 -2.2258 -0.3425
 2203SOL    HW2 7180   5.869   1.770   7.134  0.6787 -1.3580 -0.4881
 2204SOL     OW 7181   4.388   1.381   6.638  0.2198 -0.7040 -0.2536
 2204SOL    HW1 7182   4.439   1.382   6.557  0.4252  1.0222 -0.1365
 2204SOL    HW2 7183   4.318   1.444   6.623  1.2244  0.9312  1.4511
 2205SOL     OW 7184   5.002   4.608   5.162  0.1148 -0.3048 -0.1715
 2205SOL    HW1 7185   5.045   4.670   5.103  0.4778  0.1148  0.5169
 2205SOL    HW2 7186   4.912   4.603   5.131  0.2411  0.0822 -0.6136
 2206SOL     OW 7187   2.191   1.860   1.860 -0.0537  0.3452 -0.0274
 2206SOL    HW1 7188   2.227   1.890   1.777 -0.4616 -3.0038 -1.5969
 2206SOL    HW2 7189   2.248   1.788   1.887 -1.2258 -0.1079  1.4271
 2207SOL     OW 7190   2.589   5.113   6.107  0.4139 -0.6269  0.2669
 2207SOL    HW1 7191   2.669   5.166   6.108  0.6045 -0.9136  0.2945
 2207SOL    HW2 7192   2.570   5.097   6.200  0.5525 -0.8993  0.2493
 2208SOL     OW 7193   5.261   0.791   4.349  0.3382  0.3504 -0.1007
 2208SOL    HW1 7194   5.355   0.802   4.334  0.0486  1.6339 -1.2679
 2208SOL    HW2 7195   5.234   0.725   4.286  0.5840 -0.7189  0.8753
 2209SOL     OW 7196   4.585   0.395   6.117  0.4623  0.1646  0.0507
 2209SOL    HW1 7197   4.589   0.490   6.116 -2.3523  0.3771 -0.9783
 2209SOL    HW2 7198   4.500   0.375   6.156  0.5273 -1.8866 -0.7241
 2210SOL     OW 7199   3.253   3.975   1.810  0.6283 -0.0090  0.0353
 2210SOL    HW1 7200   3.234   4.025   1.890 -0.2856  2.4496 -1.6308
 2210SOL    HW2 7201   3.340   4.004   1.784  0.2020  0.5378 -0.8018
 2211SOL     OW 7202   3.272   5.742   3.280 -0.3375 -0.3244 -0.5889
 2211SOL    HW1 7203   3.209   5.759   3.350  0.5444  0.9975 -0.0766
 2211SOL    HW2 7204   3.252   5.654   3.250 -0.6909 -0.9687  1.4024
 2212SOL     OW 7205   0.449   0.662   3.926  0.3507 -0.6852  0.4704
 2212SOL    HW1 7206   0.354   0.678   3.921  0.6962  1.2588 -3.4355
 2212SOL    HW2 7207   0.467   0.602   3.854  2.3962  1.2923 -0.7713
 2213SOL     OW 7208   1.932   6.516   6.931 -0.0188  0.3303  0.3033
 2213SOL    HW1 7209   1.874   6.592   6.925 -0.4307  0.0823  1.0624
 2213SOL    HW2 7210   1.875   6.443   6.955  0.8074  0.3965  2.7760
 2214SOL     OW 7211   0.507   0.153   1.492 -0.4868  0.1621  0.1673
 2214SOL    HW1 7212   0.443   0.204   1.543  0.3120  0.2855  1.0574
 2214SOL    HW2 7213   0.457   0.079   1.458 -1.3514  0.8138 -0.0260
 2215SOL     OW 7214   4.690   1.857   2.666 -0.1514 -0.6161 -0.0265
 2215SOL    HW1 7215   4.756   1.799   2.627 -1.2916 -2.3895  0.5757
 2215SOL    HW2 7216   4.658   1.908   2.592  1.8241  0.2808 -0.3464
 2216SOL     OW 7217   7.318   2.712   4.488  0.1099  0.5883 -0.4570
 2216SOL    HW1 7218   7.275   2.685   4.406  0.1611  0.7823 -0.5507
 2216SOL    HW2 7219   7.294   2.804   4.497 -0.1282  0.4921 -0.1040
 2217SOL     OW 7220   2.671   5.506   3.674 -0.3019 -0.3987 -0.0222
 2217SOL    HW1 7221   2.631   5.459   3.748  0.7228  0.4681  1.1274
 2217SOL    HW2 7222   2.608   5.575   3.654 -0.0698  0.0963  0.8599
 2218SOL     OW 7223   4.216   3.371   5.988 -0.1997  0.0057 -0.2371
 2218SOL    HW1 7224   4.307   3.357   6.016 -0.8959  2.6947  4.5961
 2218SOL    HW2 7225   4.209   3.466   5.975 -1.8284 -0.4052 -3.1738
 2219SOL     OW 7226   6.848   1.606   2.582 -0.2084  0.6687 -0.4699
 2219SOL    HW1 7227   6.773   1.662   2.560 -1.9041 -1.9458 -1.8091
 2219SOL    HW2 7228   6.858   1.549   2.506  2.0535 -0.2269  0.4295
 2220SOL     OW 7229   0.231   0.681   5.092 -0.4009  0.2467  0.3659
 2220SOL    HW1 7230   0.167   0.701   5.160 -1.2739 -0.8033 -0.1081
 2220SOL    HW2 7231   0.197   0.601   5.051  1.4260 -0.5578  0.3510
 2221SOL     OW 7232   7.046   1.556   4.179 -0.0841 -0.1537 -0.4591
 2221SOL    HW1 7233   7.031   1.598   4.264  0.6520  2.7644 -1.6386
 2221SOL    HW2 7234   6.979   1.488   4.174 -0.4539 -0.1191  2.2198
 2222SOL     OW 7235   5.279   1.400   7.237  0.1939 -0.1672 -0.1638
 2222SOL    HW1 7236   5.365   1.380   7.200  0.6782  0.8219  0.3844
 2222SOL    HW2 7237   5.281   1.495   7.252 -0.8485 -0.1952  0.2334
 2223SOL     OW 7238   5.558   4.388   0.129 -0.1923  0.5444  0.3938
 2223SOL    HW1 7239   5.610   4.345   0.061 -1.0288 -2.5237  1.5316
 2223SOL    HW2 7240   5.603   4.368   0.211  0.4388  3.6418  0.9065
 2224SOL     OW 7241   5.363   5.186   1.395 -0.4464  0.0630 -0.0877
 2224SOL    HW1 7242   5.323   5.133   1.463 -0.5829  0.2134 -0.0493
 2224SOL    HW2 7243   5.389   5.267   1.440  0.9877 -0.5027  0.1560
 2225SOL     OW 7244   0.654   4.620   4.389 -0.1805 -0.0862 -0.1749
 2225SOL    HW1 7245   0.598   4.680   4.339 -2.9107 -0.0977  2.6166
 2225SOL    HW2 7246   0.621   4.533   4.368  2.3814 -0.6556 -2.5269
 2226SOL     OW 7247   1.947   2.071   0.278 -0.6247  0.1272  0.4717
 2226SOL    HW1 7248   1.957   2.055   0.372 -0.1285 -0.7048  0.2864
 2226SOL    HW2 7249   1.889   2.001   0.248  0.0895 -0.2689 -0.0271
 2227SOL     OW 7250   3.816   6.840   7.038 -0.0092 -0.1786  0.0920
 2227SOL    HW1 7251   3.784   6.812   7.124  0.2577 -0.0870  0.2213
 2227SOL    HW2 7252   3.736   6.865   6.990 -0.1829 -0.5069  0.2107
 2228SOL     OW 7253   1.752   5.050   1.490 -0.0482  0.2388  0.2119
 2228SOL    HW1 7254   1.713   4.987   1.550  0.5058 -1.0980 -0.7941
 2228SOL    HW2 7255   1.842   5.060   1.520  0.0646  0.0080 -0.0447
 2229SOL     OW 7256   5.174   1.850   2.045 -0.4011 -0.3406 -0.1680
 2229SOL    HW1 7257   5.233   1.896   1.985 -0.6883 -1.0398 -1.0079
 2229SOL    HW2 7258   5.086   1.871   2.013 -0.5761 -0.2399  0.3774
 2230SOL     OW 7259   6.378   0.811   4.117  0.0743  0.6543  0.2291
 2230SOL    HW1 7260   6.400   0.875   4.184 -1.7192  0.2927  1.2113
 2230SOL    HW2 7261   6.283   0.804   4.120  0.0159 -0.0816 -1.7202
 2231SOL     OW 7262   2.378   4.322   0.766  0.3146 -0.0126 -0.3433
 2231SOL    HW1 7263   2.378   4.231   0.735 -1.4446  0.0179 -0.5343
 2231SOL    HW2 7264   2.407   4.316   0.857 -0.2726 -0.8402 -0.1966
 2232SOL     OW 7265   0.433   1.939   0.375  0.1729 -0.7591 -0.0851
 2232SOL    HW1 7266   0.464   1.962   0.463  0.6307 -1.3048 -0.1032
 2232SOL    HW2 7267   0.477   1.857   0.354  0.5038 -0.3546 -1.0579
 2233SOL     OW 7268   6.428   1.528   4.567  0.4622 -0.3686 -0.6117
 2233SOL    HW1 7269   6.451   1.438   4.542 -2.9371 -0.8628 -2.4773
 2233SOL    HW2 7270   6.341   1.521   4.605  0.1161  2.1582 -0.7881
 2234SOL     OW 7271   6.846   4.059   5.500  0.8803 -0.1515  0.1258
 2234SOL    HW1 7272   6.936   4.053   5.531  0.1707 -1.2847  2.1809
 2234SOL    HW2 7273   6.794   4.066   5.580 -0.9828 -1.3391 -0.8980
 2235SOL     OW 7274   6.383   2.153   0.622  0.4077 -0.1003 -0.4391
 2235SOL    HW1 7275   6.383   2.058   0.614 -0.2046 -0.7367  4.1827
 2235SOL    HW2 7276   6.475   2.178   0.620  0.5435 -0.5931 -2.4301
 2236SOL     OW 7277   1.126   1.127   5.185  0.2174  0.7787 -0.5878
 2236SOL    HW1 7278   1.080   1.044   5.177  1.8826 -0.2893  0.3919
 2236SOL    HW2 7279   1.081   1.173   5.256 -0.3569  0.4918 -0.7594
 2237SOL     OW 7280   1.946   5.314   1.481 -0.5614 -0.6462  0.2433
 2237SOL    HW1 7281   1.916   5.284   1.395  0.9459  0.4548 -0.7046
 2237SOL    HW2 7282   2.020   5.257   1.502 -1.6833 -1.7487  1.4563
 2238SOL     OW 7283   6.223   6.347   3.223  0.2729  0.0371  0.7416
 2238SOL    HW1 7284   6.263   6.433   3.208 -2.0268  0.9323 -0.7849
 2238SOL    HW2 7285   6.251   6.295   3.147 -1.9870  0.9312 -0.7901
 2239SOL     OW 7286   7.053   2.984   4.832 -0.0972  0.7248 -0.5705
 2239SOL    HW1 7287   6.978   2.941   4.791  0.4359 -0.8897  0.0461
 2239SOL    HW2 7288   7.119   2.989   4.762 -0.2254  0.6885 -0.6939
 2240SOL     OW 7289   5.946   1.986   2.456  0.4865  0.4699 -0.4998
 2240SOL    HW1 7290   5.903   1.982   2.371  1.1828 -0.1447 -0.8452
 2240SOL    HW2 7291   5.930   1.899   2.495  2.0421 -0.0662 -0.9770
 2241SOL     OW 7292   4.103   6.444   1.676 -0.2963 -0.4620  0.0332
 2241SOL    HW1 7293   4.176   6.474   1.731  0.4203 -2.7897  0.4815
 2241SOL    HW2 7294   4.028   6.441   1.736 -0.3617  0.2658  0.0017
 2242SOL     OW 7295   0.325   2.488   6.861  0.7591 -0.0872  0.4495
 2242SOL    HW1 7296   0.286   2.414   6.908  1.5012  0.0107  1.2469
 2242SOL    HW2 7297   0.325   2.560   6.925 -0.0593  0.6424 -0.3547
 2243SOL     OW 7298   4.995   3.224   5.468 -0.4067  0.1239 -0.0036
 2243SOL    HW1 7299   5.019   3.314   5.445 -0.5338 -0.4392 -2.6387
 2243SOL    HW2 7300   5.075   3.173   5.452 -0.3168 -0.2658  1.5153
 2244SOL     OW 7301   1.835   2.324   3.796  0.0581 -0.2102  0.2057
 2244SOL    HW1 7302   1.867   2.378   3.724 -0.6202  1.1401  0.8876
 2244SOL    HW2 7303   1.760   2.277   3.760 -0.8687  1.1836  0.2701
 2245SOL     OW 7304   6.841   1.930   1.957  0.0292 -0.2406  0.0159
 2245SOL    HW1 7305   6.905   2.001   1.960 -0.5435  0.2493  1.7126
 2245SOL    HW2 7306   6.798   1.941   1.873  0.8204  0.6371 -0.2959
 2246SOL     OW 7307   5.227   2.975   6.233 -0.4804  0.5538 -0.3347
 2246SOL    HW1 7308   5.274   3.041   6.183  1.1263  0.2332  0.6651
 2246SOL    HW2 7309   5.194   3.021   6.310 -0.2021  0.3955 -0.1196
 2247SOL     OW 7310   6.045   0.681   0.854 -0.0200 -0.0785  0.1866
 2247SOL    HW1 7311   6.018   0.761   0.900  1.5226  1.3914 -1.3101
 2247SOL    HW2 7312   6.034   0.612   0.919  0.7248  1.6850  2.3351
 2248SOL     OW 7313   6.291   4.466   5.534  0.1219  0.0246 -0.0202
 2248SOL    HW1 7314   6.197   4.458   5.521  0.2286 -0.0869 -0.7708
 2248SOL    HW2 7315   6.306   4.437   5.624 -0.7431  1.4685  0.6241
 2249SOL     OW 7316   5.426   2.197   5.645 -0.3705 -0.2827 -0.4672
 2249SOL    HW1 7317   5.429   2.149   5.728  0.4341  3.1968  1.7244
 2249SOL    HW2 7318   5.487   2.151   5.588  1.1709 -1.2640  1.8406
 2250SOL     OW 7319   4.190   7.208   4.466 -0.1150 -0.4252 -0.4633
 2250SOL    HW1 7320   4.257   7.210   4.535 -1.1034  1.5328  0.5211
 2250SOL    HW2 7321   4.129   7.140   4.494  0.8621 -1.4903 -0.8252
 2251SOL     OW 7322   5.318   3.221   3.045 -0.2794  0.5028 -0.6799
 2251SOL    HW1 7323   5.242   3.212   3.103  0.5809 -0.4528  0.3478
 2251SOL    HW2 7324   5.386   3.261   3.099  0.7884 -1.1115 -0.7527
 2252SOL     OW 7325   6.266   0.359   1.904 -0.2858 -0.2598 -0.1007
 2252SOL    HW1 7326   6.288   0.445   1.940  0.4670 -0.1692 -0.7529
 2252SOL    HW2 7327   6.205   0.321   1.968 -0.0909  0.4739  0.5357
 2253SOL     OW 7328   6.585   0.909   3.396  0.2962 -0.0086  0.0854
 2253SOL    HW1 7329   6.577   0.999   3.366  1.9972 -0.1348 -0.8661
 2253SOL    HW2 7330   6.641   0.914   3.473 -0.1387 -0.2020  0.4210
 2254SOL     OW 7331   7.427   4.188   5.090  0.2734  0.3881  0.1810
 2254SOL    HW1 7332   7.491   4.117   5.094  1.1486  1.0909 -0.7541
 2254SOL    HW2 7333   7.472   4.264   5.129 -0.5365  0.5239  0.8900
 2255SOL     OW 7334   2.713   2.141   3.840  0.1961 -0.3523  0.5082
 2255SOL    HW1 7335   2.709   2.121   3.746  0.9450  1.4238  0.0520
 2255SOL    HW2 7336   2.794   2.099   3.870  1.0155  0.7332 -0.1128
 2256SOL     OW 7337   0.252   3.303   1.937  0.2623 -0.0589  0.1726
 2256SOL    HW1 7338   0.312   3.326   2.008 -0.0695 -0.1647  0.4872
 2256SOL    HW2 7339   0.178   3.261   1.980 -0.4107  0.7708 -0.1241
 2257SOL     OW 7340   2.638   1.935   4.098  0.3458 -0.0870  0.6075
 2257SOL    HW1 7341   2.717   1.881   4.093  0.2706 -0.1303 -0.3716
 2257SOL    HW2 7342   2.669   2.022   4.120  0.4725 -0.4975  2.1889
 2258SOL     OW 7343   0.779   3.434   4.814 -0.2065  0.2125  0.6675
 2258SOL    HW1 7344   0.818   3.493   4.878  0.1348  0.2776  0.4026
 2258SOL    HW2 7345   0.749   3.492   4.744 -2.0631  0.3188  1.4904
 2259SOL     OW 7346   4.146   1.772   6.750  0.3972  0.8270  0.4538
 2259SOL    HW1 7347   4.085   1.844   6.733 -1.8104 -0.9129  0.5017
 2259SOL    HW2 7348   4.211   1.809   6.809  0.1716  3.1299 -0.6243
 2260SOL     OW 7349   3.368   6.948   5.124  0.0022 -0.1134 -0.3330
 2260SOL    HW1 7350   3.457   6.956   5.159 -0.6138 -0.4545  1.3737
 2260SOL    HW2 7351   3.341   6.860   5.147 -0.6913 -0.1227 -1.1246
 2261SOL     OW 7352   7.125   1.656   1.807  0.1096 -0.3100 -0.5459
 2261SOL    HW1 7353   7.194   1.717   1.832  0.9166 -0.8645 -1.3686
 2261SOL    HW2 7354   7.140   1.579   1.861  1.0597 -1.0033 -1.7544
 2262SOL     OW 7355   4.225   5.695   6.981  0.3760 -0.2727 -0.2535
 2262SOL    HW1 7356   4.142   5.704   7.027  0.6801  1.6872  0.0147
 2262SOL    HW2 7357   4.247   5.602   6.988 -1.8104 -0.8556 -0.4089
 2263SOL     OW 7358   4.724   3.550   1.760  0.1697  0.2108  0.5125
 2263SOL    HW1 7359   4.773   3.633   1.759 -0.1091  0.4188 -1.6245
 2263SOL    HW2 7360   4.729   3.520   1.851  3.5950  0.6034  0.5691
 2264SOL     OW 7361   1.808   3.204   3.530 -0.0499 -0.0465 -0.6239
 2264SOL    HW1 7362   1.757   3.172   3.456 -0.4875 -0.5864 -0.0999
 2264SOL    HW2 7363   1.897   3.172   3.513 -0.1500 -0.1856 -0.8960
 2265SOL     OW 7364   5.084   1.594   2.382  0.4925 -0.6849 -0.1495
 2265SOL    HW1 7365   4.989   1.588   2.396  0.2948 -0.0614 -1.1566
 2265SOL    HW2 7366   5.116   1.506   2.401 -0.2623 -0.8571  0.3715
 2266SOL     OW 7367   6.527   2.552   6.746  0.5490 -0.0943 -0.2588
 2266SOL    HW1 7368   6.523   2.572   6.840  0.8896  1.4878 -0.5607
 2266SOL    HW2 7369   6.455   2.490   6.732  0.4126 -0.2534  1.0172
 2267SOL     OW 7370   6.554   6.504   3.854  0.2786 -0.1015 -0.3208
 2267SOL    HW1 7371   6.481   6.491   3.793  1.3575 -0.1109 -1.6468
 2267SOL    HW2 7372   6.555   6.425   3.908  0.0948 -0.6705 -1.1400
 2268SOL     OW 7373   6.902   3.295   3.052 -0.1453  0.4881 -0.2037
 2268SOL    HW1 7374   6.808   3.273   3.054 -0.3100  1.1862 -0.1566
 2268SOL    HW2 7375   6.908   3.379   3.097  0.5817  0.1821  0.2767
 2269SOL     OW 7376   1.797   6.350   4.681  0.4436 -1.0008  0.2354
 2269SOL    HW1 7377   1.760   6.315   4.762  1.7277  1.0592  1.8088
 2269SOL    HW2 7378   1.725   6.401   4.643  0.4668 -0.1311  1.2941
 2270SOL     OW 7379   4.294   6.104   3.105  0.1862 -0.1006 -0.6003
 2270SOL    HW1 7380   4.351   6.027   3.099 -1.1279 -1.0148 -2.2911
 2270SOL    HW2 7381   4.353   6.179   3.096  1.8269 -0.6843  3.2455
 2271SOL     OW 7382   4.826   5.564   6.605  0.9233  0.3288 -0.2275
 2271SOL    HW1 7383   4.742   5.566   6.650 -0.0339 -1.1168 -1.8395
 2271SOL    HW2 7384   4.849   5.657   6.595 -1.1517  0.8269 -0.9495
 2272SOL     OW 7385   5.182   2.193   5.523 -0.1194  0.1065 -0.1795
 2272SOL    HW1 7386   5.106   2.223   5.573 -0.6635 -0.5513 -0.5790
 2272SOL    HW2 7387   5.255   2.199   5.584 -0.7774 -0.7280  0.7397
 2273SOL     OW 7388   4.649   3.812   3.634 -0.0120  0.1867  0.0914
 2273SOL    HW1 7389   4.743   3.824   3.621 -0.0514  1.7243  0.9619
 2273SOL    HW2 7390   4.614   3.797   3.547  0.9944 -0.0596 -0.2830
 2274SOL     OW 7391   3.976   0.974   2.800  0.1511  0.1552  0.1006
 2274SOL    HW1 7392   3.893   0.954   2.842  0.2533 -1.9429 -0.5779
 2274SOL    HW2 7393   3.958   0.969   2.706  1.3825 -2.2707 -0.0880
 2275SOL     OW 7394   6.249   6.622   7.408  0.2659 -0.4554  0.1597
 2275SOL    HW1 7395   6.256   6.612   7.313 -0.2829 -0.2195  0.0927
 2275SOL    HW2 7396   6.187   6.554   7.435  1.2217 -1.2170  0.4904
 2276SOL     OW 7397   5.066   3.197   1.376  0.1896 -0.1109 -0.5489
 2276SOL    HW1 7398   5.074   3.268   1.439 -0.9959 -0.6178  0.1953
 2276SOL    HW2 7399   4.987   3.150   1.402  0.8107 -1.5518 -1.1849
 2277SOL     OW 7400   3.084   3.593   3.531 -0.0752 -0.9012 -0.1788
 2277SOL    HW1 7401   3.056   3.548   3.452  0.6565 -0.3246 -0.7794
 2277SOL    HW2 7402   3.043   3.680   3.525  1.2365 -0.2864 -0.7368
 2278SOL     OW 7403   4.222   6.312   4.810  0.1688 -0.7712  0.1373
 2278SOL    HW1 7404   4.211   6.373   4.883 -0.0015 -0.5537 -0.0682
 2278SOL    HW2 7405   4.170   6.236   4.835  2.7809 -2.1541  1.8271
 2279SOL     OW 7406   0.151   7.279   3.914 -0.1989  0.3948  0.3723
 2279SOL    HW1 7407   0.141   7.256   4.006  1.6642 -1.0999  0.2626
 2279SOL    HW2 7408   0.071   7.326   3.892  0.0195  2.2781  3.1581
 2280SOL     OW 7409   4.299   4.275   2.993 -0.4184  0.4587 -0.0162
 2280SOL    HW1 7410   4.349   4.343   3.038 -0.2963  0.9242 -0.8379
 2280SOL    HW2 7411   4.232   4.249   3.057  0.1148  0.6804  0.6469
 2281SOL     OW 7412   0.334   4.644   5.584 -0.1237  0.4026  0.1225
 2281SOL    HW1 7413   0.418   4.609   5.556 -0.4311  0.8162 -1.3821
 2281SOL    HW2 7414   0.350   4.678   5.672  1.8206  2.3144 -0.8943
 2282SOL     OW 7415   3.159   3.539   5.217  0.0497  0.3682 -0.0000
 2282SOL    HW1 7416   3.234   3.537   5.276 -0.9792  0.7005  1.3702
 2282SOL    HW2 7417   3.161   3.454   5.174  0.4766 -0.1480  0.9931
 2283SOL     OW 7418   5.984   6.625   5.801  0.3494  0.3905 -0.1266
 2283SOL    HW1 7419   5.898   6.589   5.820  1.2714 -1.8328  0.0854
 2283SOL    HW2 7420   6.036   6.608   5.879  0.5270  3.5632  0.6074
 2284SOL     OW 7421   4.233   5.821   6.447  0.8719  1.1709  0.6941
 2284SOL    HW1 7422   4.182   5.875   6.387  0.5720  0.1919  0.0307
 2284SOL    HW2 7423   4.169   5.782   6.506  1.0129  1.0919  0.7979
 2285SOL     OW 7424   1.953   3.957   6.225 -0.6727 -0.7235  0.3286
 2285SOL    HW1 7425   1.901   3.966   6.144 -1.3119 -1.1605  0.6777
 2285SOL    HW2 7426   2.012   3.884   6.207  1.7960  1.4363 -1.0731
 2286SOL     OW 7427   2.702   0.176   3.660 -0.1586 -0.0922  0.6390
 2286SOL    HW1 7428   2.759   0.164   3.584 -0.1220 -0.5223  0.7302
 2286SOL    HW2 7429   2.638   0.104   3.653  1.0539 -1.3852  2.0954
 2287SOL     OW 7430   0.712   4.248   1.621 -1.2055  0.0300 -0.5082
 2287SOL    HW1 7431   0.676   4.330   1.655 -1.1782 -0.7461  1.5507
 2287SOL    HW2 7432   0.655   4.225   1.548 -0.7477  2.2559 -1.6415
 2288SOL     OW 7433   6.588   1.392   5.841  0.5988 -0.0985  0.3823
 2288SOL    HW1 7434   6.639   1.355   5.913 -0.5670  0.2682  1.4420
 2288SOL    HW2 7435   6.497   1.380   5.868  0.1561  1.2761 -0.3977
 2289SOL     OW 7436   3.167   2.142   4.529 -0.3157  0.2884 -0.2610
 2289SOL    HW1 7437   3.093   2.191   4.565 -0.5454  1.4418 -2.1625
 2289SOL    HW2 7438   3.225   2.128   4.603 -2.5982 -1.0385  1.4005
 2290SOL     OW 7439   6.354   0.910   1.237 -0.0893  0.1124 -0.3120
 2290SOL    HW1 7440   6.450   0.915   1.234 -0.1086  0.5079 -0.2506
 2290SOL    HW2 7441   6.325   0.940   1.151 -0.1573 -0.0706 -0.3541
 2291SOL     OW 7442   1.351   2.686   4.015  0.3534 -0.2877 -0.2393
 2291SOL    HW1 7443   1.364   2.644   4.100 -2.0567  1.6221  1.2151
 2291SOL    HW2 7444   1.375   2.778   4.030  0.6239 -0.0460 -1.8866
 2292SOL     OW 7445   6.902   3.382   3.869  0.3278  0.1423 -0.8239
 2292SOL    HW1 7446   6.869   3.341   3.790 -0.0616  0.1954 -0.6925
 2292SOL    HW2 7447   6.910   3.310   3.932  0.5642  0.1131 -0.8840
 2293SOL     OW 7448   2.230   2.185   5.487 -0.0948  0.7772  0.0925
 2293SOL    HW1 7449   2.139   2.216   5.489  0.3016  1.9464  1.4063
 2293SOL    HW2 7450   2.282   2.264   5.484  0.9173  0.1724  1.1149
 2294SOL     OW 7451   3.663   2.268   6.971 -0.0435 -0.0905 -0.3222
 2294SOL    HW1 7452   3.727   2.338   6.972 -0.6310  0.4467  0.4263
 2294SOL    HW2 7453   3.713   2.190   6.948  0.6706  0.5127 -0.8533
 2295SOL     OW 7454   2.952   0.775   2.117 -0.7391  0.1771  0.2055
 2295SOL    HW1 7455   2.968   0.789   2.210 -1.0547 -1.3639  0.5224
 2295SOL    HW2 7456   2.952   0.680   2.107  0.9675  0.3026 -1.6726
 2296SOL     OW 7457   6.546   6.390   1.865  0.5576 -0.7063  0.1110
 2296SOL    HW1 7458   6.517   6.386   1.956  1.7431 -0.4154  0.5130
 2296SOL    HW2 7459   6.507   6.313   1.824  1.5100 -1.8823  1.3287
 2297SOL     OW 7460   7.007   2.261   4.306 -0.1768  0.3193  0.1590
 2297SOL    HW1 7461   7.074   2.195   4.323  0.6964  1.5442  1.7702
 2297SOL    HW2 7462   6.924   2.216   4.326  0.2923 -0.6716 -0.0705
 2298SOL     OW 7463   0.757   1.775   3.008  0.9780 -0.1886 -0.0133
 2298SOL    HW1 7464   0.805   1.849   3.045 -1.1033 -0.0715  2.8575
 2298SOL    HW2 7465   0.666   1.805   3.004  0.0768 -2.4641  1.2368
 2299SOL     OW 7466   0.830   7.036   4.349  0.0475  0.8710 -0.3524
 2299SOL    HW1 7467   0.916   7.053   4.311  0.3521  0.9342  0.3421
 2299SOL    HW2 7468   0.806   6.949   4.316  0.8170  0.4274  0.2053
 2300SOL     OW 7469   0.316   6.602   0.446  0.2930  0.0515 -0.0944
 2300SOL    HW1 7470   0.248   6.660   0.480  0.3547 -0.1365  0.3573
 2300SOL    HW2 7471   0.367   6.577   0.523  0.4471 -0.3622 -0.3274
 2301SOL     OW 7472   0.274   0.357   6.625  0.1307 -0.0698  0.0974
 2301SOL    HW1 7473   0.343   0.308   6.670  0.7927 -0.5216 -1.3365
 2301SOL    HW2 7474   0.320   0.406   6.556 -0.5425  2.3695  1.2472
 2302SOL     OW 7475   3.670   2.063   0.968  0.2585  0.8805 -0.2915
 2302SOL    HW1 7476   3.754   2.023   0.946 -0.4132 -0.6985 -0.0954
 2302SOL    HW2 7477   3.639   2.102   0.886 -0.8773 -2.4335 -1.5773
 2303SOL     OW 7478   1.200   1.577   6.892 -0.3338 -0.0357 -0.5563
 2303SOL    HW1 7479   1.295   1.566   6.896 -0.3476 -0.3279 -1.0253
 2303SOL    HW2 7480   1.181   1.640   6.962  0.1774 -0.1375 -0.3165
 2304SOL     OW 7481   6.779   5.128   0.480  0.2778  0.2912 -0.1943
 2304SOL    HW1 7482   6.766   5.200   0.419 -1.0654  0.8784  0.7284
 2304SOL    HW2 7483   6.701   5.129   0.535  0.8286 -1.0631  0.6746
 2305SOL     OW 7484   5.156   5.481   1.398  0.2389  0.7498 -0.1360
 2305SOL    HW1 7485   5.154   5.412   1.464  1.0281 -0.6421 -1.5045
 2305SOL    HW2 7486   5.092   5.452   1.332  0.3717  1.4694 -0.5889
 2306SOL     OW 7487   5.314   0.085   2.748 -0.0590  0.0278  0.1179
 2306SOL    HW1 7488   5.360   0.163   2.778 -0.7319  0.6377 -0.4200
 2306SOL    HW2 7489   5.280   0.108   2.662  0.3110 -1.0944 -0.3572
 2307SOL     OW 7490   0.853   2.851   0.446  0.5296 -0.3074 -0.5289
 2307SOL    HW1 7491   0.908   2.866   0.523  2.6423 -0.7917 -1.8861
 2307SOL    HW2 7492   0.790   2.785   0.475  1.9431 -1.2605  0.4948
 2308SOL     OW 7493   4.775   1.678   1.393 -0.0266  0.3666 -0.8216
 2308SOL    HW1 7494   4.841   1.678   1.324 -1.4743 -0.5338 -2.2605
 2308SOL    HW2 7495   4.696   1.711   1.351 -1.4541 -1.9751 -0.1569
 2309SOL     OW 7496   1.518   0.016   6.422 -0.4212  0.3410  0.4917
 2309SOL    HW1 7497   1.517  -0.074   6.391  2.1030  0.4689 -0.1614
 2309SOL    HW2 7498   1.501   0.069   6.344 -0.4727  0.4770  0.5942
 2310SOL     OW 7499   5.748   1.556   6.930 -0.0855  0.0514  0.0025
 2310SOL    HW1 7500   5.791   1.628   6.884  0.2679  0.4175  0.8907
 2310SOL    HW2 7501   5.683   1.598   6.985 -1.0762 -0.4467 -0.7577
 2311SOL     OW 7502   4.547   0.321   2.119 -0.4592  0.1266 -0.4619
 2311SOL    HW1 7503   4.470   0.365   2.083 -1.5966 -0.9759  0.5314
 2311SOL    HW2 7504   4.537   0.230   2.092 -0.6885 -0.4767  1.4853
 2312SOL     OW 7505   2.990   0.226   3.815 -0.1839  0.0643  0.7737
 2312SOL    HW1 7506   2.983   0.301   3.874  0.1147 -0.1695  1.1046
 2312SOL    HW2 7507   2.928   0.246   3.744  0.9834  1.3564  0.0734
 2313SOL     OW 7508   3.730   0.463   2.585  0.2575  0.1866 -1.1624
 2313SOL    HW1 7509   3.758   0.378   2.552  0.7842 -0.3071  0.4450
 2313SOL    HW2 7510   3.681   0.443   2.665  0.5798  1.3934 -0.6418
 2314SOL     OW 7511   2.435   4.805   4.261  0.3874  0.0729  0.2298
 2314SOL    HW1 7512   2.354   4.761   4.286  0.7560 -0.4535  0.5285
 2314SOL    HW2 7513   2.500   4.735   4.254  0.3346  0.1792 -2.2403
 2315SOL     OW 7514   2.818   5.561   3.279 -0.2241 -0.4854 -0.3397
 2315SOL    HW1 7515   2.889   5.599   3.330  0.0662 -0.8747 -0.4520
 2315SOL    HW2 7516   2.738   5.592   3.322 -0.0110  1.0057 -0.9705
 2316SOL     OW 7517   4.697   6.006   4.309  0.2326  0.6899 -0.1093
 2316SOL    HW1 7518   4.790   6.006   4.329  0.0219  0.4534  0.9486
 2316SOL    HW2 7519   4.693   5.992   4.214  1.2417 -0.8452  0.0378
 2317SOL     OW 7520   6.084   0.241   5.405  0.1077  0.4415 -0.9279
 2317SOL    HW1 7521   6.081   0.265   5.498  1.5586 -0.0309 -0.7316
 2317SOL    HW2 7522   5.996   0.208   5.386 -0.8703  2.5276 -0.3019
 2318SOL     OW 7523   0.842   5.754   1.660  0.0548  0.2148 -0.5717
 2318SOL    HW1 7524   0.906   5.688   1.635  0.4415  0.0961  0.6361
 2318SOL    HW2 7525   0.851   5.824   1.595  2.0330  0.5949  0.0364
 2319SOL     OW 7526   1.229   7.337   2.145  0.4905 -0.0532 -0.4479
 2319SOL    HW1 7527   1.221   7.424   2.184 -1.9852 -1.2183  1.9441
 2319SOL    HW2 7528   1.323   7.321   2.142  0.9158  1.4192  2.2162
 2320SOL     OW 7529   2.521   1.933   4.900  0.1654 -0.2174 -0.2424
 2320SOL    HW1 7530   2.496   1.847   4.933 -0.8530  0.5875  1.2183
 2320SOL    HW2 7531   2.530   1.987   4.979  0.7874  1.0116 -1.1250
 2321SOL     OW 7532   5.712   6.881   0.704 -0.0652  0.4831  0.1448
 2321SOL    HW1 7533   5.630   6.835   0.720 -0.5183  1.6703  1.3875
 2321SOL    HW2 7534   5.756   6.828   0.637 -1.8927 -0.0778 -0.6713
 2322SOL     OW 7535   3.296   4.930   7.165  0.5964  0.5455  0.4302
 2322SOL    HW1 7536   3.320   4.998   7.102 -1.3450  0.2646 -0.7056
 2322SOL    HW2 7537   3.224   4.968   7.215 -0.9988 -0.8401 -0.6897
 2323SOL     OW 7538   5.880   0.256   3.527 -0.2427 -0.4722  0.1510
 2323SOL    HW1 7539   5.786   0.255   3.549  0.0393 -0.5109  1.4927
 2323SOL    HW2 7540   5.898   0.168   3.496 -0.4768 -0.7380  0.7509
 2324SOL     OW 7541   7.259   1.575   3.807  0.1330 -0.3348  0.4215
 2324SOL    HW1 7542   7.322   1.647   3.808  0.5322 -0.6752  0.0894
 2324SOL    HW2 7543   7.310   1.498   3.833 -0.5871 -0.2710  2.1037
 2325SOL     OW 7544   0.495   5.165   4.542 -0.8334  0.1679  0.6227
 2325SOL    HW1 7545   0.435   5.096   4.512 -2.6549  1.3500  1.3684
 2325SOL    HW2 7546   0.570   5.117   4.578 -0.2638 -1.3542 -2.2388
 2326SOL     OW 7547   5.927   4.351   0.543 -0.1516  0.3318 -0.3608
 2326SOL    HW1 7548   5.901   4.262   0.566  0.8787  0.2339  0.4802
 2326SOL    HW2 7549   6.019   4.344   0.520 -0.1518  1.1327 -0.6550
 2327SOL     OW 7550   3.971   2.409   4.653  0.0140 -0.4086 -0.1186
 2327SOL    HW1 7551   4.005   2.353   4.583 -1.6796 -0.8691 -0.6394
 2327SOL    HW2 7552   3.962   2.351   4.729 -0.7820 -0.6207 -0.3621
 2328SOL     OW 7553   3.090   3.962   2.478 -0.0837 -0.2908  0.3760
 2328SOL    HW1 7554   3.011   3.913   2.453 -1.0852  1.2703  0.3201
 2328SOL    HW2 7555   3.158   3.895   2.486 -0.9413 -1.4889 -1.4585
 2329SOL     OW 7556   2.541   6.259   2.015 -0.2501 -0.5306 -0.1161
 2329SOL    HW1 7557   2.518   6.231   1.926 -1.0445 -0.1213 -0.0454
 2329SOL    HW2 7558   2.605   6.194   2.045  0.2336 -0.5230 -1.0799
 2330SOL     OW 7559   4.209   4.103   4.329  0.3641 -0.1263  0.0297
 2330SOL    HW1 7560   4.267   4.045   4.280 -0.5073  0.0716 -1.2803
 2330SOL    HW2 7561   4.121   4.073   4.306 -0.0728  0.1781  1.2458
 2331SOL     OW 7562   6.652   5.010   5.942  0.0633 -0.0145  0.7431
 2331SOL    HW1 7563   6.721   5.071   5.967  1.8765 -1.4546 -0.5349
 2331SOL    HW2 7564   6.576   5.066   5.926  1.7824  2.0092 -0.9078
 2332SOL     OW 7565   2.855   3.406   3.699  0.1118  0.2060  0.6029
 2332SOL    HW1 7566   2.774   3.382   3.745  0.4236  0.6830  1.4166
 2332SOL    HW2 7567   2.825   3.452   3.621 -0.4295  3.1128  2.3936
 2333SOL     OW 7568   1.512   2.292   2.966  0.1298  0.1019  0.1434
 2333SOL    HW1 7569   1.487   2.367   2.912  0.4687  1.0047  1.1812
 2333SOL    HW2 7570   1.556   2.232   2.906 -2.1310 -0.3240 -1.1784
 2334SOL     OW 7571   6.496   4.113   5.618 -0.6056 -0.0477 -0.2921
 2334SOL    HW1 7572   6.432   4.075   5.677 -0.2569 -1.2173 -0.6352
 2334SOL    HW2 7573   6.487   4.207   5.629 -1.8673 -0.2149  0.1992
 2335SOL     OW 7574   4.336   3.992   0.341  0.2662  0.4066 -0.6492
 2335SOL    HW1 7575   4.410   4.044   0.308  1.1565 -1.4336 -1.7402
 2335SOL    HW2 7576   4.355   3.979   0.434  0.7958  0.8003 -0.7004
 2336SOL     OW 7577   0.587   3.078   6.691  0.0438  0.4471  0.9226
 2336SOL    HW1 7578   0.577   3.128   6.609  1.8014  1.3732  1.2171
 2336SOL    HW2 7579   0.590   3.145   6.759  1.6631 -0.0811  1.4112
 2337SOL     OW 7580   2.244   6.886   0.653 -0.3255 -0.1119  0.0069
 2337SOL    HW1 7581   2.151   6.894   0.632 -0.4475 -0.7731  0.2634
 2337SOL    HW2 7582   2.246   6.873   0.748 -0.0502 -1.0909 -0.1193
 2338SOL     OW 7583   5.564   2.546   5.839 -0.8055 -0.5386 -0.2846
 2338SOL    HW1 7584   5.580   2.608   5.910  1.6189 -0.1416 -1.1110
 2338SOL    HW2 7585   5.468   2.538   5.836 -1.0445  0.6046  1.9790
 2339SOL     OW 7586   0.491   2.180   0.245  0.4087  0.0083  0.1718
 2339SOL    HW1 7587   0.487   2.189   0.149  0.3934 -0.6070  0.1127
 2339SOL    HW2 7588   0.515   2.089   0.259  1.0646  0.2662  0.7509
 2340SOL     OW 7589   0.105   0.482   1.301 -0.0112 -0.0304 -0.0706
 2340SOL    HW1 7590   0.146   0.563   1.330  2.8091 -1.3758  0.0383
 2340SOL    HW2 7591   0.120   0.480   1.207 -0.7765 -0.0494 -0.1922
 2341SOL     OW 7592   4.860   4.835   1.880 -0.3836  0.1190  0.3132
 2341SOL    HW1 7593   4.820   4.791   1.956 -2.2298 -1.9152 -1.6785
 2341SOL    HW2 7594   4.920   4.770   1.844 -1.7261 -0.1572 -1.5804
 2342SOL     OW 7595   0.956   3.516   0.004  0.3167 -0.3886  0.5081
 2342SOL    HW1 7596   0.926   3.471   0.083  0.0350  0.9191  1.1770
 2342SOL    HW2 7597   1.043   3.479  -0.012  0.2968 -0.8178  1.3185
 2343SOL     OW 7598   4.561   0.007   0.602 -0.8943 -0.0806  0.0887
 2343SOL    HW1 7599   4.514   0.085   0.570  0.7468  1.0967  0.4231
 2343SOL    HW2 7600   4.591   0.032   0.689  1.4136 -0.2773 -0.5805
 2344SOL     OW 7601   0.524   3.240   0.487  0.2334  0.2152 -0.5396
 2344SOL    HW1 7602   0.495   3.223   0.398 -1.0680  0.9307 -0.2715
 2344SOL    HW2 7603   0.507   3.158   0.534  1.3257 -0.3092 -1.0215
 2345SOL     OW 7604   3.512   5.298   2.880  0.1337  0.1184  0.5248
 2345SOL    HW1 7605   3.543   5.364   2.943  2.0227 -1.4875  1.4090
 2345SOL    HW2 7606   3.417   5.299   2.889  0.2314  1.5014  1.7902
 2346SOL     OW 7607   0.261   3.815   3.870 -0.0689  0.4463  0.4427
 2346SOL    HW1 7608   0.244   3.849   3.958 -2.1137  1.5435 -0.3077
 2346SOL    HW2 7609   0.192   3.853   3.816  0.3936 -1.1854 -1.4107
 2347SOL     OW 7610   1.780   7.012   7.425  0.2773  0.0745  0.3479
 2347SOL    HW1 7611   1.795   7.011   7.520  0.3211 -0.3240  0.3379
 2347SOL    HW2 7612   1.823   7.092   7.395 -0.6569  0.7762  0.8078
 2348SOL     OW 7613   5.006   2.051   4.578  0.0505 -0.3124 -0.1438
 2348SOL    HW1 7614   4.961   2.079   4.498  1.0425 -0.6012 -0.8262
 2348SOL    HW2 7615   5.043   1.966   4.556  1.0100 -0.0345  0.3612
 2349SOL     OW 7616   1.520   3.696   5.327 -0.2843 -0.2410 -0.2209
 2349SOL    HW1 7617   1.534   3.790   5.314  1.5649 -0.6272 -1.4795
 2349SOL    HW2 7618   1.453   3.673   5.262  0.1875 -0.0050 -0.8007
 2350SOL     OW 7619   0.549   1.974   2.998 -0.2526 -0.1939  0.5630
 2350SOL    HW1 7620   0.517   1.917   3.068 -1.0194 -0.0629  0.3271
 2350SOL    HW2 7621   0.499   2.055   3.008 -0.3979 -0.1890 -0.1647
 2351SOL     OW 7622   6.018   0.491   0.278 -0.4279  0.2196 -0.0382
 2351SOL    HW1 7623   6.039   0.474   0.186 -1.3726  0.9673 -0.4171
 2351SOL    HW2 7624   5.976   0.577   0.276  3.6233  2.5174  1.6505
 2352SOL     OW 7625   5.491   1.460   1.201 -0.3138  0.0683 -0.3138
 2352SOL    HW1 7626   5.427   1.474   1.270 -0.4624  0.5236 -0.5396
 2352SOL    HW2 7627   5.521   1.548   1.178 -1.0362  0.0191 -1.5389
 2353SOL     OW 7628   6.140   0.951   7.080  0.1613  0.3932 -0.0047
 2353SOL    HW1 7629   6.230   0.946   7.112  0.1910  1.9985  0.2545
 2353SOL    HW2 7630   6.123   1.045   7.072 -0.9589  0.0944 -1.5696
 2354SOL     OW 7631   0.208   0.211   0.556 -0.4702 -0.0812  0.1070
 2354SOL    HW1 7632   0.285   0.170   0.596 -0.9139  0.1797  1.2982
 2354SOL    HW2 7633   0.148   0.138   0.538 -0.1451 -0.2327 -0.3601
 2355SOL     OW 7634   4.277   3.287   2.316  0.4267  0.1350 -0.1512
 2355SOL    HW1 7635   4.305   3.375   2.294  1.8903  0.2787  1.9247
 2355SOL    HW2 7636   4.239   3.295   2.404  1.0888 -1.3544  0.3015
 2356SOL     OW 7637   1.505   7.101   7.379  0.3401 -0.2984  0.1827
 2356SOL    HW1 7638   1.516   7.173   7.317  0.9011 -1.3449 -0.9765
 2356SOL    HW2 7639   1.592   7.088   7.417  0.1635 -0.1495  0.6493
 2357SOL     OW 7640   5.183   6.925   0.228  0.5215  0.0469 -0.1347
 2357SOL    HW1 7641   5.245   6.917   0.301  0.4556 -2.5704 -0.2975
 2357SOL    HW2 7642   5.234   6.969   0.159  0.4085  3.1581  1.5500
 2358SOL     OW 7643   6.863   6.517   2.837  0.4399 -0.5078 -1.2450
 2358SOL    HW1 7644   6.793   6.452   2.836  1.1419 -1.3953  0.8973
 2358SOL    HW2 7645   6.944   6.465   2.832  1.1073 -0.1531  2.6127
 2359SOL     OW 7646   6.132   3.231   5.086 -0.0233  0.0125 -0.5883
 2359SOL    HW1 7647   6.117   3.325   5.078  0.0225  0.1172  0.3581
 2359SOL    HW2 7648   6.152   3.202   4.997  1.1113  1.1056 -0.7289
 2360SOL     OW 7649   0.766   4.041   4.140  0.0728  0.0874  0.1043
 2360SOL    HW1 7650   0.803   3.968   4.191 -2.4708 -2.5207 -1.4948
 2360SOL    HW2 7651   0.756   4.112   4.203  0.4180 -1.7517  2.3556
 2361SOL     OW 7652   4.668   0.858   5.846 -0.3281  0.1170 -0.2511
 2361SOL    HW1 7653   4.719   0.919   5.794  0.0586  0.0873  0.0886
 2361SOL    HW2 7654   4.731   0.792   5.875 -0.5351  0.1341  0.2546
 2362SOL     OW 7655   5.299   3.850   2.290 -0.1883  0.1354 -0.1076
 2362SOL    HW1 7656   5.376   3.813   2.245 -0.2517  0.8467 -0.8260
 2362SOL    HW2 7657   5.225   3.825   2.235 -0.5441 -0.8828  0.7884
 2363SOL     OW 7658   1.589   6.287   0.122 -0.0970  0.1179  0.5340
 2363SOL    HW1 7659   1.643   6.217   0.161  0.4737  0.2395 -0.0137
 2363SOL    HW2 7660   1.526   6.309   0.190 -0.0901 -0.7213  0.8322
 2364SOL     OW 7661   0.858   7.001   5.908  0.3562 -0.3471 -0.5806
 2364SOL    HW1 7662   0.860   7.044   5.823 -0.0183  0.0609 -0.3849
 2364SOL    HW2 7663   0.776   6.953   5.909 -0.7106  1.3995  0.3917
 2365SOL     OW 7664   3.278   4.284   4.011  0.2076 -1.3290  0.1274
 2365SOL    HW1 7665   3.301   4.229   4.086 -1.0543 -2.4819 -0.2786
 2365SOL    HW2 7666   3.267   4.222   3.939 -2.6162 -0.7874 -0.0474
 2366SOL     OW 7667   2.409   6.194   5.632 -0.1534 -0.1811  0.2475
 2366SOL    HW1 7668   2.448   6.280   5.613 -1.6804  0.3024 -0.9680
 2366SOL    HW2 7669   2.405   6.151   5.547 -1.2096 -0.6462  0.5149
 2367SOL     OW 7670   5.369   0.640   6.379  0.3019 -0.0844 -0.5546
 2367SOL    HW1 7671   5.374   0.706   6.447  0.8439 -1.5772  0.9163
 2367SOL    HW2 7672   5.396   0.559   6.421  3.2817 -0.6552 -3.1772
 2368SOL     OW 7673   2.946   2.456   5.561  0.6233  0.0947 -0.1100
 2368SOL    HW1 7674   2.997   2.378   5.537  1.6384  0.8140 -0.3368
 2368SOL    HW2 7675   2.958   2.516   5.488 -2.0700 -0.3772 -1.0542
 2369SOL     OW 7676   1.386   3.491   1.482 -0.0877  0.5901 -0.2002
 2369SOL    HW1 7677   1.310   3.433   1.480  0.1731  0.2763 -1.9706
 2369SOL    HW2 7678   1.444   3.459   1.414  2.0557  0.3367  1.6235
 2370SOL     OW 7679   1.502   0.222   0.560  0.1090  0.2906  0.4060
 2370SOL    HW1 7680   1.465   0.138   0.533 -0.4916  0.5539  0.3859
 2370SOL    HW2 7681   1.480   0.282   0.488 -0.4925  0.7310  0.9501
 2371SOL     OW 7682   2.486   4.630   3.905 -0.3230 -0.2634 -0.3010
 2371SOL    HW1 7683   2.400   4.644   3.945 -0.7210 -0.6748 -0.9962
 2371SOL    HW2 7684   2.501   4.536   3.910  0.1170 -0.1893 -0.1358
 2372SOL     OW 7685   6.502   6.992   0.727 -0.1757 -0.0085  0.3440
 2372SOL    HW1 7686   6.468   7.051   0.659 -0.4248  0.2969  0.7308
 2372SOL    HW2 7687   6.424   6.952   0.765 -0.0783  0.2882  0.8672
 2373SOL     OW 7688   3.566   4.282   3.291 -0.6268 -0.2919 -0.0778
 2373SOL    HW1 7689   3.493   4.246   3.342 -0.5054  0.0825  0.3656
 2373SOL    HW2 7690   3.643   4.262   3.342 -0.3118 -1.4271 -0.9477
 2374SOL     OW 7691   0.311   0.426   4.734  0.2126 -0.1653 -0.2668
 2374SOL    HW1 7692   0.279   0.484   4.665 -0.8736 -1.0941 -0.5653
 2374SOL    HW2 7693   0.399   0.458   4.753 -0.5620  1.9442  0.0033
 2375SOL     OW 7694   2.790   5.455   1.372 -0.4539  0.1706 -0.0313
 2375SOL    HW1 7695   2.819   5.406   1.449 -0.9140 -0.7136 -0.4004
 2375SOL    HW2 7696   2.836   5.414   1.298 -0.6819  0.4319 -0.3238
 2376SOL     OW 7697   3.311   3.756   1.126 -0.6751 -0.3626 -0.2404
 2376SOL    HW1 7698   3.259   3.707   1.062 -0.8156  0.0650 -0.4627
 2376SOL    HW2 7699   3.295   3.848   1.104  1.9629 -0.1671 -1.8062
 2377SOL     OW 7700   0.820   7.157   4.604 -0.4071  0.5090 -0.0725
 2377SOL    HW1 7701   0.784   7.105   4.532 -0.4403 -0.2575  0.4885
 2377SOL    HW2 7702   0.914   7.141   4.600 -0.5229 -0.4478  0.7487
 2378SOL     OW 7703   4.545   5.847   0.224  0.8478 -0.1814  0.0945
 2378SOL    HW1 7704   4.592   5.895   0.293 -0.1219  1.3614 -0.2618
 2378SOL    HW2 7705   4.601   5.853   0.147  0.7947  0.2746  0.0911
 2379SOL     OW 7706   6.317   4.593   6.430 -0.4488  0.0231 -0.3003
 2379SOL    HW1 7707   6.283   4.622   6.345 -1.1941 -1.0463 -0.3829
 2379SOL    HW2 7708   6.409   4.618   6.428 -1.1931  3.2319  0.0242
 2380SOL     OW 7709   2.293   4.060   2.643 -0.3374 -0.3698  0.4604
 2380SOL    HW1 7710   2.324   4.101   2.723 -1.4419  0.9037  0.2756
 2380SOL    HW2 7711   2.198   4.058   2.652 -0.6961  1.8497 -1.6827
 2381SOL     OW 7712   3.219   0.113   7.135 -0.3520  0.3431  0.0595
 2381SOL    HW1 7713   3.126   0.095   7.147 -0.9062  3.3416  0.8739
 2381SOL    HW2 7714   3.250   0.141   7.221  1.2393 -0.1910 -0.2933
 2382SOL     OW 7715   1.872   0.328   7.395  0.4417 -0.2286 -0.2557
 2382SOL    HW1 7716   1.929   0.393   7.353 -1.0937  0.6396 -1.0917
 2382SOL    HW2 7717   1.894   0.333   7.488  1.5028  0.2895 -0.5149
 2383SOL     OW 7718   6.329   0.299   4.333 -0.2147  0.2557 -0.4377
 2383SOL    HW1 7719   6.312   0.206   4.316  1.7690  0.2585 -3.1257
 2383SOL    HW2 7720   6.384   0.299   4.412 -0.4356 -0.8208 -0.2661
 2384SOL     OW 7721   5.411   4.837   6.423 -0.4644 -0.3302  0.0832
 2384SOL    HW1 7722   5.449   4.767   6.474 -2.2820 -0.1767  1.7661
 2384SOL    HW2 7723   5.406   4.912   6.483  3.5476  2.1903 -2.2441
 2385SOL     OW 7724   5.481   0.642   7.105 -0.0626  0.0720  0.3106
 2385SOL    HW1 7725   5.385   0.637   7.107 -0.0301 -0.4638  2.0030
 2385SOL    HW2 7726   5.510   0.551   7.101  0.3940  0.2456 -0.6577
 2386SOL     OW 7727   4.163   5.737   3.931 -0.5702  0.1611  0.0534
 2386SOL    HW1 7728   4.105   5.701   3.865 -1.2856  0.8485  0.2986
 2386SOL    HW2 7729   4.149   5.680   4.008 -0.7288  0.1666  0.0296
 2387SOL     OW 7730   0.225   6.482   1.282 -0.4248 -0.0150 -0.2910
 2387SOL    HW1 7731   0.170   6.558   1.264  0.7040  0.9152  0.0456
 2387SOL    HW2 7732   0.206   6.460   1.373  1.2085  1.6234  0.5299
 2388SOL     OW 7733   7.298   1.947   7.298 -0.4143 -0.0917  0.2673
 2388SOL    HW1 7734   7.386   1.971   7.269 -0.1124 -1.9463 -0.4910
 2388SOL    HW2 7735   7.262   2.028   7.334  1.4963  0.7735  0.3616
 2389SOL     OW 7736   6.470   5.972   2.916  0.6211  0.6757  0.2546
 2389SOL    HW1 7737   6.486   6.055   2.872  0.8588  1.2129  1.3176
 2389SOL    HW2 7738   6.380   5.978   2.948 -0.1790 -0.4117 -1.5773
 2390SOL     OW 7739   4.644   3.469   4.992  0.5023  0.4654 -0.4739
 2390SOL    HW1 7740   4.590   3.411   4.939  0.4898 -0.4287  0.4867
 2390SOL    HW2 7741   4.601   3.471   5.077  0.6443  1.6921 -0.4183
 2391SOL     OW 7742   4.950   3.910   0.438  0.1327 -0.3556 -0.0306
 2391SOL    HW1 7743   5.021   3.973   0.453  0.0138 -0.5671  1.5815
 2391SOL    HW2 7744   4.968   3.838   0.498 -0.0490 -1.6279 -1.4479
 2392SOL     OW 7745   2.533   3.512   7.110  0.1444  0.0335 -0.0783
 2392SOL    HW1 7746   2.562   3.491   7.199  0.8974  0.8362 -0.1223
 2392SOL    HW2 7747   2.553   3.433   7.059 -0.0036 -0.3167  0.3974
 2393SOL     OW 7748   5.158   0.884   5.189 -0.4494 -0.1242  0.6224
 2393SOL    HW1 7749   5.174   0.861   5.281 -1.9445  0.6475  1.1108
 2393SOL    HW2 7750   5.063   0.894   5.183 -0.2109  1.9621 -0.4876
 2394SOL     OW 7751   1.070   5.678   3.072 -0.0840 -0.3130  0.0234
 2394SOL    HW1 7752   1.033   5.662   2.985 -2.0061  0.1630  0.6988
 2394SOL    HW2 7753   1.162   5.700   3.055 -0.8811  1.9218 -2.1501
 2395SOL     OW 7754   5.586   7.098   1.776 -0.4716  0.2804 -0.6254
 2395SOL    HW1 7755   5.556   7.186   1.801  0.1607  0.8376 -1.7349
 2395SOL    HW2 7756   5.587   7.049   1.857 -0.3024  1.4725  0.1198
 2396SOL     OW 7757   7.343   1.296   1.024 -0.4967 -0.1971 -0.6164
 2396SOL    HW1 7758   7.314   1.250   1.102  1.8078 -0.6175  0.0552
 2396SOL    HW2 7759   7.393   1.231   0.975  1.0821  0.9959 -0.6604
 2397SOL     OW 7760   1.065   3.091   1.023  0.0097 -0.1938  0.0062
 2397SOL    HW1 7761   1.051   3.143   1.103 -1.7985  2.0227 -1.6115
 2397SOL    HW2 7762   1.149   3.047   1.038  2.0460  3.6168  1.3922
 2398SOL     OW 7763   4.428   2.351   0.144  0.2202  0.6147  0.0456
 2398SOL    HW1 7764   4.337   2.363   0.115  0.2388  1.0468  0.1542
 2398SOL    HW2 7765   4.453   2.436   0.180 -0.1237 -0.1591  2.2525
 2399SOL     OW 7766   6.628   4.585   3.308  0.2748 -0.4653 -0.2588
 2399SOL    HW1 7767   6.537   4.612   3.311  0.5883  0.5479  1.2651
 2399SOL    HW2 7768   6.631   4.518   3.240 -1.1829  0.9666 -1.8238
 2400SOL     OW 7769   1.929   5.266   2.052 -0.1311  0.3734 -0.6271
 2400SOL    HW1 7770   1.962   5.336   1.997 -0.7901  0.3082 -1.1163
 2400SOL    HW2 7771   1.993   5.195   2.042  0.6762  0.9783  0.0774
 2401SOL     OW 7772   4.904   7.271   7.306  0.2632 -0.1836  0.0181
 2401SOL    HW1 7773   4.844   7.294   7.377  0.0537  1.7970 -0.7456
 2401SOL    HW2 7774   4.887   7.178   7.290 -1.5415 -0.0454  0.8334
 2402SOL     OW 7775   0.339   3.435   0.092  0.3381 -0.2493 -0.2375
 2402SOL    HW1 7776   0.308   3.496   0.025  1.8308  0.0793 -0.6664
 2402SOL    HW2 7777   0.373   3.490   0.162 -0.3904 -0.5993  0.4083
 2403SOL     OW 7778   6.896   1.526   3.905  0.5371 -0.2055 -0.4217
 2403SOL    HW1 7779   6.913   1.554   3.815  0.1326 -2.0259 -1.1206
 2403SOL    HW2 7780   6.970   1.561   3.955  0.8130  0.7815 -1.4600
 2404SOL     OW 7781   6.943   1.756   3.315  0.0089 -0.2358 -0.1971
 2404SOL    HW1 7782   6.996   1.692   3.267  0.3945  0.1416 -0.2776
 2404SOL    HW2 7783   6.951   1.837   3.265 -1.5766 -0.4497 -0.8414
 2405SOL     OW 7784   4.473   5.493   6.505  0.0885 -0.4377 -0.1567
 2405SOL    HW1 7785   4.506   5.450   6.426 -1.1877  0.1386 -1.0473
 2405SOL    HW2 7786   4.378   5.484   6.499 -0.1325  1.1178  0.4270
 2406SOL     OW 7787   1.204   3.203   2.517 -0.2107 -0.8036  0.3967
 2406SOL    HW1 7788   1.251   3.274   2.474 -1.1567  0.3275  1.1582
 2406SOL    HW2 7789   1.143   3.170   2.451  0.2993 -0.9650  0.0087
 2407SOL     OW 7790   5.571   4.862   6.191  0.1918  0.1727 -0.2121
 2407SOL    HW1 7791   5.612   4.948   6.204  3.1774 -1.1994  0.1922
 2407SOL    HW2 7792   5.510   4.854   6.264  0.1063  1.7795 -0.0527
 2408SOL     OW 7793   6.063   2.859   7.347  0.3554 -0.5114 -0.2883
 2408SOL    HW1 7794   6.102   2.947   7.344  0.6208 -0.6432 -1.4658
 2408SOL    HW2 7795   5.982   2.868   7.297  0.3884 -0.9324 -0.4177
 2409SOL     OW 7796   7.387   3.747   6.107  0.0870 -0.8437  0.0464
 2409SOL    HW1 7797   7.337   3.824   6.134  3.3105  0.9517  1.5305
 2409SOL    HW2 7798   7.437   3.776   6.030  0.8404 -1.6648  0.2040
 2410SOL     OW 7799   6.059   3.138   0.665 -0.2828 -0.3225  0.1946
 2410SOL    HW1 7800   6.072   3.177   0.751  0.4165 -0.8140  0.3137
 2410SOL    HW2 7801   5.982   3.082   0.675 -0.4772 -0.0287  0.3702
 2411SOL     OW 7802   5.486   3.345   3.224  0.3015 -0.4818  0.2911
 2411SOL    HW1 7803   5.553   3.358   3.291 -0.3264 -0.0110  0.8300
 2411SOL    HW2 7804   5.413   3.399   3.252  0.5660  0.8964 -1.5427
 2412SOL     OW 7805   3.005   0.145   4.799  0.0314  0.1799 -0.1224
 2412SOL    HW1 7806   3.020   0.150   4.893  0.6157 -0.9918 -0.1310
 2412SOL    HW2 7807   3.093   0.146   4.761 -0.2218  1.9766 -0.7666
 2413SOL     OW 7808   0.855   2.988   3.150  0.2673  0.0488 -0.2069
 2413SOL    HW1 7809   0.782   2.993   3.212  0.4565 -0.2950  0.0451
 2413SOL    HW2 7810   0.933   2.979   3.205  0.1725 -4.0971 -0.4374
 2414SOL     OW 7811   3.295   3.050   0.461 -0.5722 -0.9243  0.1548
 2414SOL    HW1 7812   3.203   3.027   0.473 -0.8804 -0.2872 -0.8207
 2414SOL    HW2 7813   3.334   2.974   0.418 -0.9359 -0.7271 -0.5368
 2415SOL     OW 7814   5.544   1.298   6.040 -0.1041  0.1806 -0.4409
 2415SOL    HW1 7815   5.520   1.206   6.035  2.2503 -0.5044 -0.3343
 2415SOL    HW2 7816   5.528   1.332   5.952  1.4923 -1.0427 -1.2584
 2416SOL     OW 7817   0.313   0.341   6.983 -0.1725 -0.1939  0.1878
 2416SOL    HW1 7818   0.382   0.401   6.957 -0.0404  0.0111  0.9656
 2416SOL    HW2 7819   0.335   0.317   7.074 -1.2041  0.0079  0.5059
 2417SOL     OW 7820   0.047   6.656   6.456 -0.1257  0.7928  0.1163
 2417SOL    HW1 7821  -0.038   6.690   6.428 -0.9274 -1.5737 -0.5999
 2417SOL    HW2 7822   0.102   6.663   6.377 -1.0446 -1.6933 -0.8600
 2418SOL     OW 7823   4.273   1.519   4.071 -0.6310 -0.0228 -0.5918
 2418SOL    HW1 7824   4.366   1.499   4.076 -0.5496 -0.0116 -1.7703
 2418SOL    HW2 7825   4.249   1.498   3.981 -2.0558 -1.1997  0.0278
 2419SOL     OW 7826   0.251   5.582   6.347 -0.3440 -0.6716 -0.5919
 2419SOL    HW1 7827   0.200   5.644   6.295  0.3114  0.2561 -0.1556
 2419SOL    HW2 7828   0.335   5.625   6.360 -0.7166 -0.5294  1.8406
 2420SOL     OW 7829   0.913   5.355   2.673  0.4529  0.5731  0.2994
 2420SOL    HW1 7830   0.836   5.355   2.616  0.8210 -2.6099 -0.4256
 2420SOL    HW2 7831   0.986   5.373   2.614  0.5542  0.1669  0.2942
 2421SOL     OW 7832   3.724   2.880   0.386  0.0892 -0.6274 -0.0551
 2421SOL    HW1 7833   3.713   2.973   0.365 -1.3804 -0.8002 -0.1799
 2421SOL    HW2 7834   3.649   2.860   0.443  0.4922 -1.6949  0.1176
 2422SOL     OW 7835   4.962   1.205   0.195  0.4306  0.1496  0.0980
 2422SOL    HW1 7836   4.979   1.165   0.280  0.5526  0.9016  0.4348
 2422SOL    HW2 7837   4.893   1.270   0.213  0.6562  0.5069 -0.3165
 2423SOL     OW 7838   1.123   5.761   5.836 -0.0905  0.2730 -1.0399
 2423SOL    HW1 7839   1.191   5.764   5.902  1.1968  1.6352 -2.3371
 2423SOL    HW2 7840   1.049   5.719   5.879  0.6867  1.0983  1.2493
 2424SOL     OW 7841   5.532   6.983   4.948 -0.5113  0.5642 -0.0603
 2424SOL    HW1 7842   5.604   7.002   4.888 -0.2181 -0.0709  0.0885
 2424SOL    HW2 7843   5.455   7.019   4.904 -0.4533 -0.7221 -1.2773
 2425SOL     OW 7844   5.989   1.756   3.959 -0.2367 -0.6260  0.3220
 2425SOL    HW1 7845   5.992   1.844   3.996 -1.4274 -0.4487  0.0378
 2425SOL    HW2 7846   6.051   1.758   3.887 -0.3809  0.0327  0.2152
 2426SOL     OW 7847   6.785   1.669   7.086  0.0352  0.6310  0.0457
 2426SOL    HW1 7848   6.818   1.650   7.174 -0.3443 -0.3614 -0.0217
 2426SOL    HW2 7849   6.783   1.765   7.082  3.2804  0.8054 -0.0735
 2427SOL     OW 7850   0.602   3.901   1.203 -0.6994 -0.1463  0.0326
 2427SOL    HW1 7851   0.628   3.814   1.232  1.5612  0.9510  1.6199
 2427SOL    HW2 7852   0.664   3.923   1.134 -0.5440  0.6267  0.4090
 2428SOL     OW 7853   4.419   4.350   4.165  0.3562  0.2112 -0.3007
 2428SOL    HW1 7854   4.406   4.294   4.088 -1.2201  2.4604 -1.8165
 2428SOL    HW2 7855   4.394   4.296   4.239  0.9308 -1.7246 -1.4286
 2429SOL     OW 7856   5.047   0.455   0.557 -0.1869 -0.2548  0.4489
 2429SOL    HW1 7857   5.079   0.364   0.551  0.9582  0.1746 -0.3607
 2429SOL    HW2 7858   4.997   0.457   0.638 -0.1436 -1.5919  0.5382
 2430SOL     OW 7859   4.066   6.370   4.206  0.0544  0.4329  0.0026
 2430SOL    HW1 7860   3.982   6.415   4.213 -0.1314  0.0106  0.5570
 2430SOL    HW2 7861   4.062   6.324   4.122  0.1263  1.2004 -0.4236
 2431SOL     OW 7862   6.675   1.826   0.059 -0.0367  0.1952  0.4411
 2431SOL    HW1 7863   6.677   1.814   0.154 -0.7132 -1.1968  0.3058
 2431SOL    HW2 7864   6.665   1.737   0.024 -0.5408  0.7612 -0.9106
 2432SOL     OW 7865   2.441   3.780   0.988  0.2439 -0.0820 -0.4104
 2432SOL    HW1 7866   2.376   3.814   0.927 -0.6947  1.0610  1.1696
 2432SOL    HW2 7867   2.393   3.766   1.069  1.2727 -2.4133 -0.1284
 2433SOL     OW 7868   2.116   0.340   5.291 -0.3036  0.1882  0.3185
 2433SOL    HW1 7869   2.199   0.388   5.302  1.1089 -2.0623  0.0429
 2433SOL    HW2 7870   2.063   0.366   5.366  1.7337 -0.3742  2.0539
 2434SOL     OW 7871   0.763   3.726   5.584 -0.5095  0.1747 -0.2968
 2434SOL    HW1 7872   0.756   3.647   5.531  1.9120  0.2137 -0.8247
 2434SOL    HW2 7873   0.693   3.719   5.648  1.2450 -3.9332  1.5562
 2435SOL     OW 7874   3.622   2.316   1.411  0.5345 -0.2833  0.0272
 2435SOL    HW1 7875   3.553   2.304   1.346 -0.6466 -2.6801  1.5770
 2435SOL    HW2 7876   3.587   2.380   1.473  0.7318  0.3044 -0.4574
 2436SOL     OW 7877   0.444   4.231   3.233 -0.3033  0.0341 -0.4818
 2436SOL    HW1 7878   0.488   4.211   3.316  0.0713 -0.9586 -0.9028
 2436SOL    HW2 7879   0.515   4.243   3.170 -0.6034 -0.1043 -0.8512
 2437SOL     OW 7880   1.733   3.699   2.797  0.4352  0.3681 -0.0261
 2437SOL    HW1 7881   1.639   3.678   2.794  1.0742 -3.0638 -0.4068
 2437SOL    HW2 7882   1.765   3.677   2.709  1.6434  1.3202  0.1586
 2438SOL     OW 7883   3.072   6.280   4.122 -0.0217  0.1893 -0.1761
 2438SOL    HW1 7884   3.160   6.246   4.103 -0.2426  0.1052 -1.1031
 2438SOL    HW2 7885   3.058   6.258   4.214  1.6082  1.7500  0.5140
 2439SOL     OW 7886   2.387   6.827   6.401  0.5121  0.5884 -0.6708
 2439SOL    HW1 7887   2.407   6.734   6.413 -1.5190  0.1511 -0.2325
 2439SOL    HW2 7888   2.405   6.867   6.486 -0.4066  0.2178 -0.2942
 2440SOL     OW 7889   2.087   0.841   0.010 -0.3727 -0.4170 -0.5583
 2440SOL    HW1 7890   2.076   0.762   0.063 -0.7768  0.3754  0.5566
 2440SOL    HW2 7891   2.052   0.816  -0.076 -0.6378 -1.4028 -0.1843
 2441SOL     OW 7892   2.564   0.329   1.891 -0.0937  0.6447  0.1367
 2441SOL    HW1 7893   2.531   0.277   1.965 -0.9292  1.6666  0.5162
 2441SOL    HW2 7894   2.564   0.269   1.817 -0.1029 -0.1597  0.7811
 2442SOL     OW 7895   2.927   2.731   0.198 -0.5038 -0.2127 -0.7525
 2442SOL    HW1 7896   3.002   2.673   0.212 -0.8112 -0.5301 -0.3671
 2442SOL    HW2 7897   2.944   2.772   0.114  0.8183  0.8329 -0.0174
 2443SOL     OW 7898   4.162   1.621   6.163  0.8596 -0.0802  0.3216
 2443SOL    HW1 7899   4.151   1.715   6.179  0.9083 -0.1904  1.0231
 2443SOL    HW2 7900   4.080   1.581   6.193  1.4397 -0.4242  1.5144
 2444SOL     OW 7901   2.155   1.775   6.221  0.0754  0.2500 -0.6111
 2444SOL    HW1 7902   2.136   1.684   6.243  0.8548  0.5091  1.3174
 2444SOL    HW2 7903   2.206   1.769   6.140 -1.2921 -0.8843 -1.4405
 2445SOL     OW 7904   2.226   1.192   1.044  0.1032  0.2320  0.2591
 2445SOL    HW1 7905   2.201   1.105   1.013 -3.0998  0.6814  1.2044
 2445SOL    HW2 7906   2.158   1.250   1.009 -0.7269  1.5237  3.6454
 2446SOL     OW 7907   0.179   4.115   0.653 -0.3904  0.8165 -0.2372
 2446SOL    HW1 7908   0.189   4.183   0.587  0.4020  0.0877 -0.8963
 2446SOL    HW2 7909   0.125   4.048   0.611 -0.5743  0.7254  0.1442
 2447SOL     OW 7910   1.944   4.421   3.858  0.2475  0.4963 -0.2570
 2447SOL    HW1 7911   1.937   4.339   3.810  0.2245  1.8657 -2.7995
 2447SOL    HW2 7912   2.021   4.464   3.820 -1.9245  3.2904 -1.8544
 2448SOL     OW 7913   0.095   6.602   5.734 -0.7308 -0.3553  0.1376
 2448SOL    HW1 7914   0.102   6.643   5.648 -1.0990 -2.0543 -0.7397
 2448SOL    HW2 7915   0.015   6.640   5.772 -1.0447 -0.2173 -0.6397
 2449SOL     OW 7916   4.581   6.871   2.265  0.0564  0.3121  0.4517
 2449SOL    HW1 7917   4.600   6.921   2.344  1.4504  0.7554 -0.1212
 2449SOL    HW2 7918   4.651   6.896   2.204 -1.5087  0.7140 -1.2590
 2450SOL     OW 7919   4.308   4.764   1.030  0.0070 -0.5027 -0.3792
 2450SOL    HW1 7920   4.283   4.773   1.122 -1.0057 -0.3113 -0.6583
 2450SOL    HW2 7921   4.402   4.747   1.032  0.2233  0.6829  0.6275
 2451SOL     OW 7922   4.062   0.656   1.012 -0.0918 -0.3710  0.1120
 2451SOL    HW1 7923   4.110   0.607   0.946  0.2224 -0.6289  0.5250
 2451SOL    HW2 7924   3.992   0.700   0.964  0.2973 -0.3367 -0.4299
 2452SOL     OW 7925   6.877   1.303   1.988  0.0382 -0.0904 -0.5560
 2452SOL    HW1 7926   6.887   1.237   1.920 -1.4340  0.0717 -0.9621
 2452SOL    HW2 7927   6.963   1.345   1.993  1.1669 -2.2962  0.0387
 2453SOL     OW 7928   0.896   4.093   4.497  0.3789  0.7521  0.1352
 2453SOL    HW1 7929   0.803   4.112   4.487  0.3128  0.5687  0.3853
 2453SOL    HW2 7930   0.912   4.102   4.591  0.7612  1.4468  0.0171
 2454SOL     OW 7931   1.302   4.033   7.299 -0.3294 -0.1235  0.1202
 2454SOL    HW1 7932   1.266   4.119   7.322  1.5937  0.0669  2.9210
 2454SOL    HW2 7933   1.226   3.982   7.271 -1.5804  2.3341 -1.2901
 2455SOL     OW 7934   5.066   1.987   5.847  0.0042 -0.0882  0.4107
 2455SOL    HW1 7935   5.031   2.050   5.784 -0.9267  0.6695  1.6399
 2455SOL    HW2 7936   5.119   2.040   5.906  0.6403 -0.7475  0.4427
 2456SOL     OW 7937   3.115   5.310   3.578 -0.1453  0.0951 -0.0922
 2456SOL    HW1 7938   3.185   5.244   3.579  0.6114  0.8741 -0.7305
 2456SOL    HW2 7939   3.038   5.263   3.610  0.3793 -1.1012 -0.5322
 2457SOL     OW 7940   3.560   7.335   5.997  0.0278  0.0446  0.4574
 2457SOL    HW1 7941   3.642   7.287   5.983  0.3132  0.7338 -0.3563
 2457SOL    HW2 7942   3.529   7.356   5.909 -1.2129 -0.4927  0.7463
 2458SOL     OW 7943   0.028   3.807   1.981 -0.0982 -0.0975 -0.1860
 2458SOL    HW1 7944  -0.028   3.785   2.055 -0.7354  0.5978 -0.4424
 2458SOL    HW2 7945  -0.031   3.851   1.919  0.7362  0.6842 -0.4430
 2459SOL     OW 7946   2.572   5.923   6.630  0.6657 -0.6109 -0.0636
 2459SOL    HW1 7947   2.558   5.952   6.721  0.5206  0.1985 -0.3384
 2459SOL    HW2 7948   2.485   5.893   6.602  0.6124 -0.4454 -0.0783
 2460SOL     OW 7949   5.920   3.780   6.291  0.4234  0.1550 -0.3036
 2460SOL    HW1 7950   5.997   3.816   6.337 -0.0582  0.8061  0.0126
 2460SOL    HW2 7951   5.913   3.834   6.212 -0.3762  0.8648  0.2333
 2461SOL     OW 7952   4.209   7.373   5.032  0.3627 -0.5174  0.1853
 2461SOL    HW1 7953   4.171   7.323   4.960  1.9304 -0.1333 -0.9578
 2461SOL    HW2 7954   4.304   7.369   5.017  0.7523 -0.5067  2.2887
 2462SOL     OW 7955   5.584   6.297   6.761 -0.0658 -0.2615 -0.4405
 2462SOL    HW1 7956   5.675   6.321   6.778 -0.2664  0.0350  0.2841
 2462SOL    HW2 7957   5.553   6.261   6.845 -0.0711 -2.1639 -1.1960
 2463SOL     OW 7958   6.786   7.327   7.412  0.3037  0.3117 -0.0325
 2463SOL    HW1 7959   6.754   7.327   7.503 -1.5970  1.8031 -0.6462
 2463SOL    HW2 7960   6.753   7.245   7.376 -0.9471  0.7778 -0.0007
 2464SOL     OW 7961   0.829   1.453   0.267 -0.1410  0.0884  0.2237
 2464SOL    HW1 7962   0.887   1.379   0.284  1.7489  0.8936 -2.1442
 2464SOL    HW2 7963   0.759   1.416   0.213 -1.3725 -0.6915  2.2762
 2465SOL     OW 7964   2.688   4.957   4.884 -0.1901 -0.0824  0.2592
 2465SOL    HW1 7965   2.691   5.031   4.824 -1.8672 -0.4263 -0.3018
 2465SOL    HW2 7966   2.727   4.884   4.835  1.3653  0.3540  0.7750
 2466SOL     OW 7967   3.896   6.761   1.671  0.0744  0.1625 -0.0046
 2466SOL    HW1 7968   3.860   6.720   1.749  0.3993  0.0698  0.0986
 2466SOL    HW2 7969   3.821   6.772   1.612 -0.2178  0.4643  0.4199
 2467SOL     OW 7970   7.200   6.773   4.822 -0.4380 -0.4857  0.1492
 2467SOL    HW1 7971   7.240   6.693   4.787  1.0750 -1.3047  3.3278
 2467SOL    HW2 7972   7.119   6.742   4.863 -0.0714 -0.3373  0.9994
 2468SOL     OW 7973   0.176   5.662   5.419 -0.0019 -0.1926  0.3979
 2468SOL    HW1 7974   0.105   5.700   5.367  0.0878 -1.4456 -0.6761
 2468SOL    HW2 7975   0.140   5.656   5.508 -1.5077 -1.3876 -0.2449
 2469SOL     OW 7976   2.840   5.449   5.997  0.1236  0.7811  0.8723
 2469SOL    HW1 7977   2.827   5.470   5.905  1.5992  2.7069  1.0486
 2469SOL    HW2 7978   2.826   5.354   6.002  1.0627  0.4478 -1.5218
 2470SOL     OW 7979   1.949   0.441   5.483  0.2046  0.2583  0.1726
 2470SOL    HW1 7980   1.943   0.373   5.550 -1.7692  0.1889 -0.0095
 2470SOL    HW2 7981   1.858   0.460   5.460  0.7019  2.6984 -0.0597
 2471SOL     OW 7982   0.236   3.856   0.238  0.3997 -0.0173  0.3781
 2471SOL    HW1 7983   0.284   3.778   0.210 -0.8760 -0.2133 -1.4174
 2471SOL    HW2 7984   0.207   3.836   0.327  0.3464 -1.4797  0.0479
 2472SOL     OW 7985   6.316   1.425   5.270 -0.6832  0.0123  0.3718
 2472SOL    HW1 7986   6.336   1.452   5.360 -1.1207 -1.6140  0.9954
 2472SOL    HW2 7987   6.354   1.338   5.262 -1.2394 -0.1460 -0.7947
 2473SOL     OW 7988   4.289   5.772   3.631  0.5975  0.1676 -0.0500
 2473SOL    HW1 7989   4.225   5.784   3.701  0.8716 -1.5143  0.5250
 2473SOL    HW2 7990   4.294   5.858   3.588 -2.4725  0.1983 -0.5239
 2474SOL     OW 7991   0.857   2.235   0.727 -0.2836  0.1883 -0.5702
 2474SOL    HW1 7992   0.800   2.304   0.762 -0.2712  0.8486 -1.7804
 2474SOL    HW2 7993   0.945   2.260   0.756 -0.3239  0.4880 -0.6965
 2475SOL     OW 7994   6.267   5.685   4.096 -0.4536 -0.2189  0.7704
 2475SOL    HW1 7995   6.303   5.764   4.137  0.9804  0.4560 -1.5848
 2475SOL    HW2 7996   6.303   5.613   4.146  0.9009  0.5687  0.9635
 2476SOL     OW 7997   6.967   6.739   3.825 -0.4874 -0.2868 -0.6058
 2476SOL    HW1 7998   6.893   6.761   3.882  0.3519 -2.7939  1.6518
 2476SOL    HW2 7999   6.956   6.646   3.808  2.9659 -1.1809  1.2270
 2477SOL     OW 8000   2.744   3.234   5.645 -0.3012  0.2269  0.0622
 2477SOL    HW1 8001   2.657   3.248   5.683 -0.8389 -1.3332 -0.5119
 2477SOL    HW2 8002   2.804   3.277   5.706 -1.3588  0.1343  1.2104
 2478SOL     OW 8003   5.743   0.374   0.421 -0.3280 -0.0005  0.3869
 2478SOL    HW1 8004   5.824   0.419   0.444  0.2338 -1.2066  0.8457
 2478SOL    HW2 8005   5.729   0.311   0.492 -1.8088  0.3432  0.4444
 2479SOL     OW 8006   1.471   0.967   2.581  0.3360 -0.2935 -0.5867
 2479SOL    HW1 8007   1.408   0.963   2.509  0.9625  0.0208 -1.1650
 2479SOL    HW2 8008   1.444   0.898   2.641 -0.9943  0.3109 -0.4600
 2480SOL     OW 8009   4.264   5.867   2.549 -0.1226  0.0016  0.0849
 2480SOL    HW1 8010   4.265   5.772   2.557 -0.2834  0.0241  0.3904
 2480SOL    HW2 8011   4.178   5.887   2.511  0.7546 -0.1282 -2.0813
 2481SOL     OW 8012   3.115   2.941   4.461 -0.2396 -0.4170 -0.1517
 2481SOL    HW1 8013   3.198   2.920   4.505  0.5109  0.0633 -1.2981
 2481SOL    HW2 8014   3.052   2.878   4.497  1.2095 -2.5483 -1.1731
 2482SOL     OW 8015   5.188   2.127   6.902  0.2979  0.5318  0.4967
 2482SOL    HW1 8016   5.108   2.121   6.955  0.3161 -0.2713  0.4380
 2482SOL    HW2 8017   5.255   2.085   6.956  0.2383 -0.6406 -0.3009
 2483SOL     OW 8018   6.281   3.871   6.107  0.4255 -0.4733 -0.4891
 2483SOL    HW1 8019   6.316   3.783   6.101 -0.0100 -0.9234  2.2898
 2483SOL    HW2 8020   6.348   3.921   6.153  0.3638  0.4943 -1.3945
 2484SOL     OW 8021   1.015   2.663   0.040 -0.3433  0.4109  0.3477
 2484SOL    HW1 8022   0.935   2.632  -0.002  0.1722 -0.0939 -0.2865
 2484SOL    HW2 8023   0.987   2.736   0.095 -1.4995 -0.8076  1.4292
 2485SOL     OW 8024   3.707   7.371   3.112 -0.3549  0.6632  0.0930
 2485SOL    HW1 8025   3.693   7.464   3.130 -0.5583  0.5625  0.4645
 2485SOL    HW2 8026   3.621   7.331   3.124  0.2416  0.0088  2.6430
 2486SOL     OW 8027   6.528   7.400   7.257  0.0881  0.7952  0.0983
 2486SOL    HW1 8028   6.623   7.399   7.253  0.1579  2.4557  0.8660
 2486SOL    HW2 8029   6.506   7.346   7.333  0.4350  0.9835  0.3285
 2487SOL     OW 8030   5.265   2.201   6.466 -0.1136  0.1505 -0.2151
 2487SOL    HW1 8031   5.244   2.294   6.458 -2.3437 -0.2010  0.8268
 2487SOL    HW2 8032   5.189   2.163   6.510  0.9500 -2.0968 -0.1879
 2488SOL     OW 8033   4.471   1.048   4.626 -0.1734 -0.3205 -0.1033
 2488SOL    HW1 8034   4.541   1.011   4.680  1.7452  0.1098 -2.1302
 2488SOL    HW2 8035   4.401   0.983   4.630  0.9153 -1.4908  0.8493
 2489SOL     OW 8036   3.450   1.143   2.828 -0.4313  0.0387 -0.1579
 2489SOL    HW1 8037   3.356   1.127   2.837 -0.4585 -0.2257 -0.8205
 2489SOL    HW2 8038   3.464   1.229   2.867 -1.0470  0.3102 -0.5269
 2490SOL     OW 8039   3.109   1.537   3.151 -0.2051  0.2450 -0.5333
 2490SOL    HW1 8040   3.032   1.580   3.189  1.1935  1.1442  1.4424
 2490SOL    HW2 8041   3.175   1.606   3.145  0.9432 -0.8406 -0.7412
 2491SOL     OW 8042   5.279   6.697   3.844  0.3191  0.0388  0.2883
 2491SOL    HW1 8043   5.359   6.657   3.810 -0.1701 -1.6050  0.9388
 2491SOL    HW2 8044   5.229   6.722   3.766  0.9596  0.0095 -0.1314
 2492SOL     OW 8045   2.098   4.754   2.815  0.2148  0.2693  0.3888
 2492SOL    HW1 8046   2.088   4.849   2.821 -1.9592  0.2877 -1.7104
 2492SOL    HW2 8047   2.015   4.724   2.778  1.4035 -2.2939 -0.4410
 2493SOL     OW 8048   2.355   2.297   2.156 -0.3138  0.0814  0.6203
 2493SOL    HW1 8049   2.322   2.207   2.149  0.0816 -0.0127 -0.1163
 2493SOL    HW2 8050   2.285   2.351   2.120 -0.4083  0.0406  0.7410
 2494SOL     OW 8051   7.150   5.562   2.453  0.3588  0.3870  0.0767
 2494SOL    HW1 8052   7.187   5.613   2.525  0.3922 -1.2740  1.2807
 2494SOL    HW2 8053   7.080   5.617   2.418  0.3552  1.2419  1.3545
 2495SOL     OW 8054   0.485   0.579   7.270 -0.0070  0.2453 -0.0560
 2495SOL    HW1 8055   0.445   0.492   7.262 -0.3286  0.3658  0.2107
 2495SOL    HW2 8056   0.425   0.628   7.326  0.0798  0.6957 -0.3493
 2496SOL     OW 8057   0.026   2.780   7.433  0.4917 -0.0539 -0.3606
 2496SOL    HW1 8058  -0.069   2.783   7.438  0.5650  0.2716  1.6045
 2496SOL    HW2 8059   0.053   2.872   7.433  0.8778  0.0703  4.1588
 2497SOL     OW 8060   6.064   6.423   6.311  0.5398  0.1606 -0.1124
 2497SOL    HW1 8061   6.127   6.410   6.382 -0.0789  0.2942  0.4614
 2497SOL    HW2 8062   5.979   6.403   6.350 -0.2166  3.3290  0.1221
 2498SOL     OW 8063   3.922   5.731   6.393 -0.3345 -0.4846 -0.2618
 2498SOL    HW1 8064   3.930   5.636   6.383  0.7423 -0.4013 -0.2622
 2498SOL    HW2 8065   3.937   5.747   6.486  2.3162 -0.0750 -0.6943
 2499SOL     OW 8066   0.126   5.352   6.617  0.4827  0.4082 -0.2315
 2499SOL    HW1 8067   0.216   5.373   6.642 -0.0111  2.3450  0.0757
 2499SOL    HW2 8068   0.125   5.359   6.522  0.3728  1.8351 -0.1566
 2500SOL     OW 8069   5.276   4.349   1.622  0.1680 -0.1675  0.7033
 2500SOL    HW1 8070   5.237   4.266   1.650 -0.4614  0.2732  1.1700
 2500SOL    HW2 8071   5.263   4.407   1.697 -1.2257  0.9415 -0.3457
 2501SOL     OW 8072   0.063   4.450   3.739  0.1425 -0.1933 -0.6536
 2501SOL    HW1 8073   0.137   4.393   3.720  1.2530  1.1573 -0.5401
 2501SOL    HW2 8074   0.061   4.512   3.666 -1.7101 -0.9602 -1.3343
 2502SOL     OW 8075   6.267   7.329   1.245 -0.5215  0.2368 -0.6630
 2502SOL    HW1 8076   6.319   7.318   1.325 -2.1569 -3.0312  0.1306
 2502SOL    HW2 8077   6.323   7.291   1.176 -0.2064  0.5457 -0.5818
 2503SOL     OW 8078   5.969   4.931   5.377 -0.5344 -0.2159  0.7740
 2503SOL    HW1 8079   5.893   4.876   5.397 -0.9712  0.3430  0.6550
 2503SOL    HW2 8080   6.030   4.913   5.448 -1.5141  0.6992  1.8977
 2504SOL     OW 8081   1.526   6.530   3.354  0.4889  0.2433 -0.0229
 2504SOL    HW1 8082   1.511   6.617   3.389 -0.6585 -0.2934  0.8682
 2504SOL    HW2 8083   1.491   6.470   3.420  0.0109 -0.8488 -1.2122
 2505SOL     OW 8084   4.656   4.387   5.717  0.4932 -0.5287 -0.5099
 2505SOL    HW1 8085   4.637   4.480   5.726 -1.6443 -0.9444 -0.0952
 2505SOL    HW2 8086   4.699   4.379   5.632 -0.0598  0.7283 -0.9283
 2506SOL     OW 8087   6.320   4.729   0.527 -0.0965  0.5543  0.1733
 2506SOL    HW1 8088   6.385   4.695   0.466 -1.6773 -3.2425  0.3414
 2506SOL    HW2 8089   6.248   4.759   0.472 -0.5245 -0.6374  0.0499
 2507SOL     OW 8090   6.671   7.008   7.019 -0.2650  0.4729  0.0398
 2507SOL    HW1 8091   6.595   7.033   6.967 -1.0983  1.2883  1.5669
 2507SOL    HW2 8092   6.745   7.013   6.958 -1.0805  2.1172 -0.8830
 2508SOL     OW 8093   4.741   1.835   0.378  0.2862 -0.5025 -0.0045
 2508SOL    HW1 8094   4.799   1.836   0.301 -0.9923 -1.1552 -1.0228
 2508SOL    HW2 8095   4.778   1.769   0.435 -0.2901 -2.0647 -1.3563
 2509SOL     OW 8096   5.993   5.786   6.044  0.2009  0.0161  0.2961
 2509SOL    HW1 8097   6.050   5.838   6.102  0.3696 -1.4996  1.5359
 2509SOL    HW2 8098   5.915   5.769   6.096 -0.6040  0.4818 -0.7344
 2510SOL     OW 8099   2.452   5.793   7.035 -0.7580 -0.0836  0.7166
 2510SOL    HW1 8100   2.541   5.765   7.057  0.2993  1.5016 -1.0685
 2510SOL    HW2 8101   2.406   5.797   7.118  0.9021 -0.8017  1.7226
 2511SOL     OW 8102   4.924   4.476   4.056  0.2613 -0.0173  0.1021
 2511SOL    HW1 8103   4.856   4.447   4.116 -0.0338  0.5803  0.0577
 2511SOL    HW2 8104   5.002   4.486   4.111  0.2148 -0.3149  0.2236
 2512SOL     OW 8105   6.356   3.606   4.293 -0.1586 -0.1311  0.4346
 2512SOL    HW1 8106   6.419   3.662   4.337  0.8055 -1.8800  1.3911
 2512SOL    HW2 8107   6.272   3.626   4.334  0.3886 -0.2967  1.6705
 2513SOL     OW 8108   6.427   5.420   4.485 -0.6155 -0.2996  0.9047
 2513SOL    HW1 8109   6.480   5.499   4.486 -0.3924 -0.4515  1.6302
 2513SOL    HW2 8110   6.482   5.355   4.439  0.2424 -0.7178  2.4411
 2514SOL     OW 8111   4.385   5.831   0.496 -0.3198  0.1026  0.3777
 2514SOL    HW1 8112   4.371   5.760   0.558 -2.4158  0.8110  0.7962
 2514SOL    HW2 8113   4.432   5.791   0.424  1.0031 -1.0551  1.8102
 2515SOL     OW 8114   2.822   0.880   3.817 -0.3104 -0.1871  0.2216
 2515SOL    HW1 8115   2.870   0.828   3.753 -2.7561 -1.3657 -0.7816
 2515SOL    HW2 8116   2.807   0.964   3.773 -1.8849 -0.9532 -0.7934
 2516SOL     OW 8117   3.852   4.133   5.163 -0.1512  0.1081  0.5334
 2516SOL    HW1 8118   3.825   4.188   5.236 -1.3272 -0.2095  0.3608
 2516SOL    HW2 8119   3.887   4.194   5.098 -1.0916  0.6119  0.4947
 2517SOL     OW 8120   5.818   3.933   0.508 -0.3635  0.3144  0.4244
 2517SOL    HW1 8121   5.791   4.021   0.533  1.3168  0.9646  0.0028
 2517SOL    HW2 8122   5.912   3.938   0.497  0.1746 -2.1257  2.8233
 2518SOL     OW 8123   2.234   6.109   6.678  0.2983  0.2986  0.5393
 2518SOL    HW1 8124   2.322   6.094   6.643 -0.3126  0.6996 -1.3117
 2518SOL    HW2 8125   2.231   6.059   6.759  1.7219 -1.0004 -0.1591
 2519SOL     OW 8126   6.952   1.711   6.890 -0.5838 -0.7653 -0.4485
 2519SOL    HW1 8127   6.874   1.696   6.943 -0.6738 -0.7816 -0.5834
 2519SOL    HW2 8128   7.025   1.702   6.951 -0.7610  1.6231  0.2206
 2520SOL     OW 8129   2.617   1.366   0.868 -0.4023 -0.8802 -0.7753
 2520SOL    HW1 8130   2.593   1.277   0.894  1.5525 -1.3322 -0.3595
 2520SOL    HW2 8131   2.654   1.404   0.948 -1.6236  0.4827 -0.8259
 2521SOL     OW 8132   6.026   7.080   0.338  0.5104  0.1449  0.0512
 2521SOL    HW1 8133   6.024   7.166   0.380  1.4731 -0.3547  1.1901
 2521SOL    HW2 8134   5.935   7.051   0.338  0.4341  0.3014  1.5474
 2522SOL     OW 8135   3.081   1.005   1.734  0.1557  0.0045 -0.0690
 2522SOL    HW1 8136   3.088   1.068   1.805  0.5248 -0.8737  0.6885
 2522SOL    HW2 8137   3.043   0.927   1.774 -1.1466  0.0190 -1.1779
 2523SOL     OW 8138   3.729   2.685   0.797 -0.3869  0.2731 -0.6095
 2523SOL    HW1 8139   3.797   2.752   0.795 -1.1634  1.1943  1.0908
 2523SOL    HW2 8140   3.668   2.710   0.727 -0.4404  1.1096 -0.2750
 2524SOL     OW 8141   6.998   6.107   5.129  0.2192 -0.3389  1.1510
 2524SOL    HW1 8142   7.043   6.063   5.057 -0.6039 -1.4166  1.2781
 2524SOL    HW2 8143   6.997   6.043   5.200 -1.0090 -0.1365  1.3371
 2525SOL     OW 8144   6.651   3.245   4.052 -0.0393  0.0104 -0.4374
 2525SOL    HW1 8145   6.630   3.195   3.973 -0.4070 -0.0158 -0.3238
 2525SOL    HW2 8146   6.572   3.294   4.072  0.6754  1.5623 -1.2140
 2526SOL     OW 8147   5.994   1.011   3.571  0.0377 -0.6217 -0.2275
 2526SOL    HW1 8148   6.070   1.026   3.628  0.2078 -0.3398 -0.5236
 2526SOL    HW2 8149   5.923   0.988   3.631  0.2754 -0.5597  0.0811
 2527SOL     OW 8150   4.617   0.926   2.411 -0.4074 -0.6511 -0.3030
 2527SOL    HW1 8151   4.556   0.935   2.338  0.3471 -0.0867 -0.8856
 2527SOL    HW2 8152   4.664   0.845   2.394  0.5821  0.0587 -1.1028
 2528SOL     OW 8153   6.704   4.411   2.167 -0.2097 -0.1617  0.0397
 2528SOL    HW1 8154   6.698   4.501   2.135 -0.3779 -0.2038 -0.0517
 2528SOL    HW2 8155   6.637   4.406   2.236 -1.2461 -0.6335 -0.9706
 2529SOL     OW 8156   1.107   6.701   0.520  0.8516  0.3431  0.2066
 2529SOL    HW1 8157   1.071   6.763   0.458  1.6200 -0.0285 -0.6480
 2529SOL    HW2 8158   1.051   6.624   0.513  0.2143  0.7387  0.8777
 2530SOL     OW 8159   6.491   6.953   3.062  0.5086  0.2132 -0.8483
 2530SOL    HW1 8160   6.564   7.011   3.083 -0.6150  2.0339 -1.6653
 2530SOL    HW2 8161   6.516   6.868   3.098  2.0567  1.2901  0.7861
 2531SOL     OW 8162   3.928   2.841   2.852  0.4405  0.4368  0.4572
 2531SOL    HW1 8163   3.929   2.760   2.902 -2.1520  0.4980  0.7833
 2531SOL    HW2 8164   3.897   2.907   2.914 -1.7486  0.7456 -0.8321
 2532SOL     OW 8165   0.031   2.612   4.666  0.1393 -0.5094  0.1654
 2532SOL    HW1 8166   0.112   2.646   4.629  0.6510 -3.1495 -1.3273
 2532SOL    HW2 8167  -0.034   2.624   4.597  0.0328 -1.4051  0.1095
 2533SOL     OW 8168   2.211   6.325   0.855  0.5922  0.2937  0.0213
 2533SOL    HW1 8169   2.227   6.416   0.878  0.1538  0.0172  1.5490
 2533SOL    HW2 8170   2.139   6.329   0.792  0.3248  0.9818  0.3570
 2534SOL     OW 8171   5.920   4.907   5.765  0.3096  0.0371 -0.2438
 2534SOL    HW1 8172   5.862   4.976   5.732  0.0258 -1.0321 -2.0898
 2534SOL    HW2 8173   5.885   4.826   5.728  0.8872 -1.0779  1.5369
 2535SOL     OW 8174   4.941   1.144   3.636  0.3607 -0.1935 -0.4623
 2535SOL    HW1 8175   4.991   1.169   3.558  0.8637  0.5958  0.1013
 2535SOL    HW2 8176   4.952   1.218   3.696 -1.7678  0.1843 -0.4591
 2536SOL     OW 8177   0.397   6.412   6.473 -0.0313 -0.3018 -0.2066
 2536SOL    HW1 8178   0.379   6.499   6.507 -1.3824 -0.6285 -0.0277
 2536SOL    HW2 8179   0.461   6.375   6.534 -1.0625 -0.2104  0.9728
 2537SOL     OW 8180   3.498   5.915   2.821  0.6496  0.0139 -0.3680
 2537SOL    HW1 8181   3.505   5.879   2.909  0.0148  2.7878  0.9296
 2537SOL    HW2 8182   3.563   5.867   2.770  0.5071 -2.1958  1.3806
 2538SOL     OW 8183   4.708   1.060   3.742 -0.1738 -0.4295 -0.2566
 2538SOL    HW1 8184   4.795   1.075   3.706 -0.1075  0.5673  0.2771
 2538SOL    HW2 8185   4.698   0.965   3.742  1.2541 -0.6088  0.4619
 2539SOL     OW 8186   4.512   2.573   6.711  0.2474  0.2058  0.0071
 2539SOL    HW1 8187   4.603   2.593   6.734  0.2966  0.0718 -0.0731
 2539SOL    HW2 8188   4.473   2.545   6.794  0.1074  0.8893  0.1747
 2540SOL     OW 8189   1.153   7.161   3.807 -0.4260  0.1304 -0.0024
 2540SOL    HW1 8190   1.182   7.083   3.760 -1.1802  0.2397 -0.6815
 2540SOL    HW2 8191   1.059   7.149   3.817 -0.2885  0.1096  1.5230
 2541SOL     OW 8192   2.944   1.541   7.419 -0.9115  0.1194 -0.0348
 2541SOL    HW1 8193   2.938   1.446   7.426  1.4338 -0.1878 -1.3122
 2541SOL    HW2 8194   3.008   1.566   7.484 -0.8067  0.7054 -0.3551
 2542SOL     OW 8195   3.402   7.013   3.164 -0.2092 -0.1991  0.2740
 2542SOL    HW1 8196   3.460   6.942   3.137 -0.9997 -0.3322 -1.2350
 2542SOL    HW2 8197   3.377   7.056   3.082 -2.1455 -0.1015  0.8484
 2543SOL     OW 8198   6.345   0.462   7.368 -0.2649  0.3742 -0.2907
 2543SOL    HW1 8199   6.371   0.520   7.297  2.3692 -0.3347 -0.0013
 2543SOL    HW2 8200   6.364   0.374   7.336 -0.6823 -0.0822  0.6575
 2544SOL     OW 8201   4.358   4.665   2.066 -0.2558 -0.3196  1.2669
 2544SOL    HW1 8202   4.287   4.631   2.120 -0.8559  1.3061  1.5461
 2544SOL    HW2 8203   4.315   4.697   1.987 -0.1299  2.2429  2.1527
 2545SOL     OW 8204   7.203   5.142   5.564  0.0049  0.6964 -0.5222
 2545SOL    HW1 8205   7.296   5.118   5.567  0.0471  0.9160  0.3558
 2545SOL    HW2 8206   7.192   5.187   5.481  0.2227 -1.1682 -1.6117
 2546SOL     OW 8207   4.907   5.423   1.620 -0.7963 -0.6872  0.2244
 2546SOL    HW1 8208   4.903   5.453   1.711 -1.9952  1.8742 -0.5700
 2546SOL    HW2 8209   4.998   5.437   1.594 -0.9819  0.8744  0.3560
 2547SOL     OW 8210   4.694   1.297   0.558  0.1198 -0.4082  0.1217
 2547SOL    HW1 8211   4.784   1.273   0.537  0.2737  0.7967 -0.7724
 2547SOL    HW2 8212   4.657   1.324   0.474 -0.5623  0.6638  0.7419
 2548SOL     OW 8213   6.282   4.404   0.276  0.6859 -0.5492  0.4479
 2548SOL    HW1 8214   6.252   4.448   0.196  0.1474 -1.6927  0.0128
 2548SOL    HW2 8215   6.368   4.443   0.293  0.1712  0.7831  0.1669
 2549SOL     OW 8216   2.491   5.319   5.041 -0.2529  0.1951 -0.1542
 2549SOL    HW1 8217   2.455   5.378   5.108 -0.3496  0.3035 -0.3003
 2549SOL    HW2 8218   2.531   5.248   5.091 -0.1591  0.3712  0.0244
 2550SOL     OW 8219   3.700   4.555   6.346  0.2055  0.9165 -0.0424
 2550SOL    HW1 8220   3.608   4.582   6.353  0.3179  1.4184 -0.4671
 2550SOL    HW2 8221   3.735   4.608   6.275  0.6227  0.1574 -0.4062
 2551SOL     OW 8222   1.941   5.568   4.114 -0.4305 -0.2477 -0.2238
 2551SOL    HW1 8223   1.947   5.504   4.042 -0.9980 -0.8310  0.2408
 2551SOL    HW2 8224   2.020   5.552   4.166 -0.3499 -0.2688 -0.3506
 2552SOL     OW 8225   5.634   2.255   7.341 -0.2405  0.2488  0.4061
 2552SOL    HW1 8226   5.592   2.291   7.263  0.2793  0.3286  0.1583
 2552SOL    HW2 8227   5.719   2.298   7.345 -0.1818  0.1019  0.9122
 2553SOL     OW 8228   5.063   1.875   3.618  0.1063  0.2661  0.3751
 2553SOL    HW1 8229   5.002   1.884   3.690  0.7807 -1.5618  1.2378
 2553SOL    HW2 8230   5.077   1.781   3.609 -0.1604  0.3823 -2.3319
 2554SOL     OW 8231   4.550   4.802   0.092  0.3958  0.2212 -0.4751
 2554SOL    HW1 8232   4.616   4.733   0.098  0.2551  0.2152  1.3401
 2554SOL    HW2 8233   4.583   4.859   0.022  1.6042 -0.5209 -0.5474
 2555SOL     OW 8234   2.313   1.912   4.531  0.3659 -0.3112  0.9287
 2555SOL    HW1 8235   2.343   1.961   4.454  0.1864 -0.4436  0.7737
 2555SOL    HW2 8236   2.380   1.928   4.597  1.1474 -1.1416  0.3778
 2556SOL     OW 8237   5.475   1.935   2.175 -0.4255 -0.1198 -0.3183
 2556SOL    HW1 8238   5.390   1.905   2.207  0.4494  0.4419  2.7935
 2556SOL    HW2 8239   5.459   2.023   2.141 -1.4103 -0.8098 -1.7646
 2557SOL     OW 8240   2.086   4.833   6.960  0.1876 -0.2495 -0.2717
 2557SOL    HW1 8241   2.053   4.905   6.906  0.8101  0.4027  0.2149
 2557SOL    HW2 8242   2.084   4.867   7.049  0.9378 -0.6702 -0.0927
 2558SOL     OW 8243   0.766   2.102   0.311  0.4234 -0.7803  0.1721
 2558SOL    HW1 8244   0.841   2.156   0.288  0.6063 -0.6619  1.0397
 2558SOL    HW2 8245   0.695   2.164   0.325  0.0024 -0.9230 -1.1908
 2559SOL     OW 8246   6.363   3.874   3.795  0.2024  0.2502  0.1562
 2559SOL    HW1 8247   6.335   3.965   3.804  1.3152  0.7469 -1.0584
 2559SOL    HW2 8248   6.403   3.852   3.879  0.6468  1.1462  0.1875
 2560SOL     OW 8249   4.233   2.790   5.807  0.2666 -0.0580  0.4256
 2560SOL    HW1 8250   4.305   2.813   5.748  0.1686 -0.5910  0.0996
 2560SOL    HW2 8251   4.274   2.790   5.894 -0.0422  2.9134  0.6934
 2561SOL     OW 8252   1.358   2.573   1.096 -0.1517 -0.1519  0.3735
 2561SOL    HW1 8253   1.405   2.584   1.013 -0.9207 -0.8447 -0.1702
 2561SOL    HW2 8254   1.357   2.479   1.112  1.1894  0.0521  1.9112
 2562SOL     OW 8255   1.960   4.136   1.827 -0.0395 -0.2057  0.2391
 2562SOL    HW1 8256   2.000   4.215   1.792 -0.8761  0.5676  0.9599
 2562SOL    HW2 8257   1.937   4.085   1.750 -0.8950  0.9756 -0.3237
 2563SOL     OW 8258   3.831   3.594   0.325  0.3831 -0.1549 -0.1785
 2563SOL    HW1 8259   3.923   3.572   0.339  0.5923  0.4265 -0.6206
 2563SOL    HW2 8260   3.827   3.689   0.334 -0.2091 -0.1920  0.0108
 2564SOL     OW 8261   0.216   3.404   0.404 -0.3821 -0.2596 -0.6305
 2564SOL    HW1 8262   0.232   3.498   0.400  1.1610 -0.3200  1.9219
 2564SOL    HW2 8263   0.251   3.369   0.323  0.5097  1.1899 -0.8857
 2565SOL     OW 8264   6.760   1.680   1.374 -0.2554  0.1571 -0.2344
 2565SOL    HW1 8265   6.715   1.760   1.400  0.5007  0.4166  0.3541
 2565SOL    HW2 8266   6.731   1.615   1.437 -0.3240  0.1606 -0.2634
 2566SOL     OW 8267   2.244   7.249   4.877  0.2113 -0.1138  0.0810
 2566SOL    HW1 8268   2.223   7.322   4.936 -0.7482 -1.1227  1.0484
 2566SOL    HW2 8269   2.175   7.251   4.811 -0.6552 -0.9408  0.9098
 2567SOL     OW 8270   3.845   5.631   0.650 -0.3267 -0.0801  0.3465
 2567SOL    HW1 8271   3.888   5.716   0.647 -2.7052  1.2337  0.3365
 2567SOL    HW2 8272   3.827   5.617   0.743  1.7718 -1.5877  0.5932
 2568SOL     OW 8273   4.662   3.105   6.130  0.6921  0.4278  0.0851
 2568SOL    HW1 8274   4.757   3.103   6.138  1.0157 -1.9788 -2.7192
 2568SOL    HW2 8275   4.640   3.028   6.078 -2.8399  0.8675  0.6233
 2569SOL     OW 8276   0.646   1.579   6.404 -0.1620  0.1997 -0.1307
 2569SOL    HW1 8277   0.655   1.658   6.350  1.3499 -0.0704 -0.3147
 2569SOL    HW2 8278   0.678   1.606   6.491 -0.5233  0.0382  0.0533
 2570SOL     OW 8279   4.306   0.885   5.031  0.5354  0.2386  0.1626
 2570SOL    HW1 8280   4.248   0.901   4.957  1.4356 -0.8213 -0.8239
 2570SOL    HW2 8281   4.386   0.932   5.009  1.5291 -1.6437 -0.5610
 2571SOL     OW 8282   3.116   6.775   6.500  0.2676  0.4620 -0.2657
 2571SOL    HW1 8283   3.051   6.827   6.453  0.3564  1.1071  0.3055
 2571SOL    HW2 8284   3.175   6.841   6.538  0.2730 -0.0521  0.6336
 2572SOL     OW 8285   5.258   7.335   2.930 -0.2761  0.1162  0.6040
 2572SOL    HW1 8286   5.320   7.383   2.987  3.0540 -2.2357 -0.7423
 2572SOL    HW2 8287   5.259   7.384   2.848  0.8194 -0.5646  0.1915
 2573SOL     OW 8288   3.838   0.687   3.186 -0.2631 -0.1426  0.2545
 2573SOL    HW1 8289   3.824   0.704   3.279  0.1139  0.7928  0.1543
 2573SOL    HW2 8290   3.785   0.753   3.141  1.4717  1.0456 -0.1537
 2574SOL     OW 8291   2.496   5.932   5.748 -0.6699 -0.9350  0.0765
 2574SOL    HW1 8292   2.580   5.972   5.769 -1.4548  0.1775  1.2103
 2574SOL    HW2 8293   2.446   6.001   5.704 -1.7679 -0.8678  1.3702
 2575SOL     OW 8294   6.198   5.515   3.883 -0.2935  0.2108  0.0967
 2575SOL    HW1 8295   6.124   5.535   3.825 -1.0234 -0.9918  0.5851
 2575SOL    HW2 8296   6.196   5.584   3.949 -0.8839  0.2675  0.0220
 2576SOL     OW 8297   3.168   4.058   3.611 -0.0333 -0.7539 -0.4026
 2576SOL    HW1 8298   3.234   4.052   3.542  0.1242  0.7264 -0.4083
 2576SOL    HW2 8299   3.218   4.079   3.690 -0.5957  2.9419 -0.8449
 2577SOL     OW 8300   3.233   0.159   1.009 -0.7215 -0.3252 -0.0963
 2577SOL    HW1 8301   3.267   0.070   0.994  0.5957  0.3007 -0.9834
 2577SOL    HW2 8302   3.162   0.168   0.946 -0.2246 -0.4240 -0.6828
 2578SOL     OW 8303   4.007   5.138   5.323  0.2274 -0.3496 -0.0647
 2578SOL    HW1 8304   4.007   5.131   5.418  0.8254 -0.9331 -0.0967
 2578SOL    HW2 8305   3.964   5.058   5.293 -0.8562  0.2941 -0.2726
 2579SOL     OW 8306   1.322   2.237   0.858  0.0207  0.2358 -0.0213
 2579SOL    HW1 8307   1.317   2.147   0.825  0.1472  0.3722 -0.4188
 2579SOL    HW2 8308   1.412   2.264   0.841 -0.0012  0.4203  0.1477
 2580SOL     OW 8309   2.485   5.389   4.761 -0.7215 -0.2430 -0.0122
 2580SOL    HW1 8310   2.502   5.382   4.855  2.6555  0.0995 -0.4637
 2580SOL    HW2 8311   2.527   5.472   4.736 -1.4390 -0.3912 -1.8420
 2581SOL     OW 8312   4.838   1.578   4.294 -0.0307 -0.2176  0.3321
 2581SOL    HW1 8313   4.926   1.553   4.267 -0.9335  0.9190 -4.5004
 2581SOL    HW2 8314   4.788   1.497   4.293  0.0104 -0.2516 -1.5939
 2582SOL     OW 8315   0.254   0.780   2.722  0.3659  0.0865  0.1134
 2582SOL    HW1 8316   0.223   0.814   2.638 -0.4183 -0.6205  0.1072
 2582SOL    HW2 8317   0.195   0.707   2.742  0.1022  0.6766  1.6103
 2583SOL     OW 8318   2.505   4.332   3.927  0.1666 -0.3812 -0.2855
 2583SOL    HW1 8319   2.500   4.310   4.020 -1.7614  1.3515  0.1081
 2583SOL    HW2 8320   2.433   4.282   3.887 -0.7585  0.9160 -0.3157
 2584SOL     OW 8321   5.315   4.305   7.014  0.2997  0.0065 -0.3574
 2584SOL    HW1 8322   5.332   4.211   7.000  0.6432  0.1117 -0.6738
 2584SOL    HW2 8323   5.323   4.317   7.108  0.9559 -0.1540 -0.3882
 2585SOL     OW 8324   4.185   6.924   3.770 -0.2367 -0.0782 -0.5012
 2585SOL    HW1 8325   4.152   7.003   3.811  0.7570  0.4586 -0.6962
 2585SOL    HW2 8326   4.277   6.943   3.752 -0.2341 -0.9080 -1.4645
 2586SOL     OW 8327   2.814   3.669   0.783 -0.7319 -0.4191  0.0221
 2586SOL    HW1 8328   2.803   3.578   0.812  0.6524 -0.1885  1.4132
 2586SOL    HW2 8329   2.763   3.720   0.846  0.0777 -0.1221  0.4667
 2587SOL     OW 8330   7.278   1.484   3.349  0.2475 -0.1145  0.5373
 2587SOL    HW1 8331   7.280   1.556   3.286  0.8879 -1.0287 -0.5273
 2587SOL    HW2 8332   7.200   1.501   3.402  1.4479  2.4452  1.6516
 2588SOL     OW 8333   1.569   7.087   5.553 -0.0957  0.8427 -0.0385
 2588SOL    HW1 8334   1.577   7.002   5.596  1.1283  0.4920 -0.8961
 2588SOL    HW2 8335   1.523   7.069   5.471 -2.7495  1.5647  1.1893
 2589SOL     OW 8336   0.205   6.895   6.155 -0.0378  0.2599 -0.5279
 2589SOL    HW1 8337   0.167   6.919   6.239 -0.1528  1.3853 -0.8761
 2589SOL    HW2 8338   0.281   6.842   6.177  0.0883  0.7695  0.3041
 2590SOL     OW 8339   7.228   5.560   5.367  0.4034 -0.3577 -0.1098
 2590SOL    HW1 8340   7.253   5.503   5.440  1.3924  1.4959  1.0629
 2590SOL    HW2 8341   7.158   5.615   5.402  1.2083  0.8704 -0.3913
 2591SOL     OW 8342   5.920   6.749   0.118  0.0768  0.0950  0.1424
 2591SOL    HW1 8343   6.009   6.784   0.118 -0.2206  0.9195  1.6223
 2591SOL    HW2 8344   5.931   6.656   0.100  1.1845  0.2872 -0.2674
 2592SOL     OW 8345   2.892   6.301   5.026  1.0940  0.0678 -0.0305
 2592SOL    HW1 8346   2.937   6.351   5.094 -0.2757  2.0509 -0.5072
 2592SOL    HW2 8347   2.815   6.265   5.070  0.3022  1.2045 -0.4225
 2593SOL     OW 8348   1.298   0.254   7.133 -0.3580  0.2397  0.7669
 2593SOL    HW1 8349   1.242   0.308   7.077  0.3959 -0.0650 -0.3131
 2593SOL    HW2 8350   1.354   0.316   7.179  0.0842  0.4208 -0.0024
 2594SOL     OW 8351   4.071   4.348   3.425 -0.0396 -0.0795  0.2087
 2594SOL    HW1 8352   4.126   4.283   3.469 -0.5348 -0.9496 -0.4177
 2594SOL    HW2 8353   4.075   4.425   3.481  0.2319 -0.7942  1.2004
 2595SOL     OW 8354   1.368   0.951   4.603  0.3360  0.3444  0.3815
 2595SOL    HW1 8355   1.292   0.922   4.553 -0.4140 -0.5377  1.9461
 2595SOL    HW2 8356   1.332   1.011   4.668  0.8870 -0.3794  1.3960
 2596SOL     OW 8357   5.843   4.634   5.737 -0.3522  0.0139 -0.3783
 2596SOL    HW1 8358   5.806   4.593   5.659  0.6262 -2.2152  0.2180
 2596SOL    HW2 8359   5.900   4.566   5.775  0.1667  1.4383  1.5958
 2597SOL     OW 8360   1.333   5.714   2.979 -0.1556 -0.8439  0.1859
 2597SOL    HW1 8361   1.341   5.783   2.913 -1.0452  0.5572  1.4714
 2597SOL    HW2 8362   1.320   5.634   2.928  1.1806 -0.1278 -1.3557
 2598SOL     OW 8363   3.833   4.938   3.676  0.5300  0.2975  0.2243
 2598SOL    HW1 8364   3.893   4.865   3.688 -0.1962 -0.2736  0.3864
 2598SOL    HW2 8365   3.843   4.962   3.584  0.5532 -0.1933  0.0974
 2599SOL     OW 8366   5.370   4.565   4.720  0.0894 -0.0576 -0.4538
 2599SOL    HW1 8367   5.311   4.525   4.785 -1.5176  1.4927 -0.8793
 2599SOL    HW2 8368   5.440   4.603   4.771 -1.1535  1.1364  0.4316
 2600SOL     OW 8369   0.580   3.032   3.020 -0.0672  0.1130  0.7255
 2600SOL    HW1 8370   0.593   2.948   3.064  0.2146  0.0721  0.5640
 2600SOL    HW2 8371   0.590   3.097   3.090  0.5801  0.0587  0.6944
 2601SOL     OW 8372   5.866   0.609   4.688 -0.6034 -0.0376  0.3139
 2601SOL    HW1 8373   5.843   0.689   4.640  2.6312  0.3886 -0.7850
 2601SOL    HW2 8374   5.919   0.640   4.761  2.5449 -1.1471 -1.3259
 2602SOL     OW 8375   0.698   4.856   1.098  0.4271  0.2449 -0.3372
 2602SOL    HW1 8376   0.685   4.840   1.192 -1.2397 -1.8591 -0.8473
 2602SOL    HW2 8377   0.781   4.904   1.094  0.9663 -0.3035  2.1579
 2603SOL     OW 8378   7.352   7.115   1.513 -0.4496 -0.4228 -0.0448
 2603SOL    HW1 8379   7.420   7.054   1.541 -0.9896 -1.0433 -0.0384
 2603SOL    HW2 8380   7.332   7.089   1.423 -1.7243 -1.2473  0.4480
 2604SOL     OW 8381   2.813   2.347   0.211 -0.2764 -0.0885 -0.1603
 2604SOL    HW1 8382   2.829   2.411   0.281 -2.2993 -0.2569  0.5116
 2604SOL    HW2 8383   2.889   2.289   0.215  0.5277  0.9573  0.6907
 2605SOL     OW 8384   6.506   0.486   2.742  0.3234  0.0083  0.6222
 2605SOL    HW1 8385   6.494   0.578   2.766 -0.9939  0.1028 -0.2584
 2605SOL    HW2 8386   6.531   0.488   2.650 -0.9804 -0.5282  0.2269
 2606SOL     OW 8387   3.798   3.762   1.538 -0.1906 -0.0502  0.2011
 2606SOL    HW1 8388   3.803   3.674   1.575 -0.9546 -0.8559 -1.5334
 2606SOL    HW2 8389   3.717   3.799   1.574 -0.3876 -0.4233  0.1344
 2607SOL     OW 8390   7.319   0.551   0.396 -0.2352 -0.3692 -0.3630
 2607SOL    HW1 8391   7.239   0.604   0.398 -0.8408 -1.2209 -0.8587
 2607SOL    HW2 8392   7.292   0.467   0.434  0.9876  0.0165  1.5004
 2608SOL     OW 8393   2.352   3.729   4.305 -0.2782 -0.2218  0.4149
 2608SOL    HW1 8394   2.401   3.811   4.304  0.7757 -0.8007  1.3712
 2608SOL    HW2 8395   2.338   3.711   4.398 -0.1027 -1.3435  0.2428
 2609SOL     OW 8396   1.724   5.355   4.674 -0.1244  0.5017  0.3397
 2609SOL    HW1 8397   1.743   5.437   4.720 -0.3668  1.0480 -0.5066
 2609SOL    HW2 8398   1.696   5.294   4.743  2.0478  0.4798  1.2685
 2610SOL     OW 8399   2.281   0.982   3.847 -0.0407 -0.0264 -0.5881
 2610SOL    HW1 8400   2.318   1.018   3.928 -0.0573  0.2235 -0.6895
 2610SOL    HW2 8401   2.283   0.887   3.859 -0.0681  0.0106 -0.2828
 2611SOL     OW 8402   4.265   5.952   4.234 -0.5759 -0.6219 -0.4579
 2611SOL    HW1 8403   4.326   5.932   4.162 -0.7078 -1.1484 -0.4320
 2611SOL    HW2 8404   4.246   6.045   4.224  0.5586 -0.3518 -0.2113
 2612SOL     OW 8405   3.561   0.932   4.377 -0.6102 -0.2898 -0.7260
 2612SOL    HW1 8406   3.638   0.879   4.397 -1.5698 -0.7971  2.0816
 2612SOL    HW2 8407   3.527   0.894   4.296  2.5413  0.5995 -2.6416
 2613SOL     OW 8408   0.566   7.118   6.397  0.1375  0.1418  0.1884
 2613SOL    HW1 8409   0.501   7.175   6.438 -0.2904  0.2187 -0.5804
 2613SOL    HW2 8410   0.637   7.178   6.372 -1.1538  0.7334 -2.4011
 2614SOL     OW 8411   5.098   4.950   5.516  0.0201 -0.9013  0.6924
 2614SOL    HW1 8412   5.084   4.855   5.512 -0.3670 -0.8135 -0.9166
 2614SOL    HW2 8413   5.166   4.967   5.450 -0.2219 -0.0194  0.6542
 2615SOL     OW 8414   6.863   5.246   4.115 -0.1737  0.4095 -0.1524
 2615SOL    HW1 8415   6.782   5.231   4.067  0.3746 -0.0165 -0.9587
 2615SOL    HW2 8416   6.920   5.173   4.090 -0.2698 -0.5281  2.0470
 2616SOL     OW 8417   0.500   4.449   5.973  0.2586 -0.3886  0.6800
 2616SOL    HW1 8418   0.432   4.509   5.942  0.7751  1.3108  2.5707
 2616SOL    HW2 8419   0.576   4.470   5.919 -0.0489 -0.6034  0.1582
 2617SOL     OW 8420   5.366   7.046   2.892  0.2583  0.3103 -0.3520
 2617SOL    HW1 8421   5.299   7.087   2.947 -0.2237 -0.2191 -0.5378
 2617SOL    HW2 8422   5.347   6.952   2.897 -2.0518  0.3499 -4.2396
 2618SOL     OW 8423   4.736   2.950   5.619 -0.6031  0.2756  0.6014
 2618SOL    HW1 8424   4.797   2.989   5.556  1.7351 -1.4351  1.6386
 2618SOL    HW2 8425   4.699   2.875   5.574 -0.3381  0.1139  0.6506
 2619SOL     OW 8426   3.538   2.557   3.283  0.7609 -0.2485 -0.1622
 2619SOL    HW1 8427   3.557   2.531   3.373  0.9956  0.1510 -0.0917
 2619SOL    HW2 8428   3.444   2.572   3.282  0.8286  0.2248  0.1472
 2620SOL     OW 8429   1.524   1.080   2.892 -0.6841  0.2357 -0.1815
 2620SOL    HW1 8430   1.541   1.140   2.819  0.4717 -0.5288 -0.5525
 2620SOL    HW2 8431   1.523   1.137   2.969 -2.3751  1.1186 -0.8069
 2621SOL     OW 8432   6.534   4.774   6.505 -0.2787  0.3628  0.5687
 2621SOL    HW1 8433   6.522   4.865   6.478  0.0423  0.5953  1.1885
 2621SOL    HW2 8434   6.480   4.766   6.584 -1.1178 -0.2742 -0.0449
 2622SOL     OW 8435   6.881   5.465   5.654  0.1137  0.6435 -0.4331
 2622SOL    HW1 8436   6.912   5.375   5.663 -1.7767 -0.1844 -1.4926
 2622SOL    HW2 8437   6.840   5.485   5.738  0.1739  0.3654 -0.3384
 2623SOL     OW 8438   6.494   1.820   4.625  0.1583 -0.7159  0.2910
 2623SOL    HW1 8439   6.448   1.765   4.689  1.0965  1.8901  3.5051
 2623SOL    HW2 8440   6.574   1.772   4.605  0.0497 -1.4187  1.4433
 2624SOL     OW 8441   2.657   0.258   2.329 -0.0915  0.4903  0.3014
 2624SOL    HW1 8442   2.635   0.214   2.247 -0.8321  2.3341 -0.5199
 2624SOL    HW2 8443   2.751   0.273   2.324  0.4667 -2.1476  1.2194
 2625SOL     OW 8444   6.271   2.843   2.757  0.1666  0.4139 -0.9154
 2625SOL    HW1 8445   6.235   2.771   2.706 -0.5849  0.7575 -0.8976
 2625SOL    HW2 8446   6.194   2.897   2.779  0.6980  1.1688 -0.8582
 2626SOL     OW 8447   7.018   6.625   6.465  0.5091  0.1501 -0.3341
 2626SOL    HW1 8448   7.017   6.570   6.387 -2.4090 -2.0390  1.0580
 2626SOL    HW2 8449   7.042   6.566   6.537  3.0887  2.0849  0.5848
 2627SOL     OW 8450   6.606   5.382   1.897  0.0615  0.5666  0.5358
 2627SOL    HW1 8451   6.661   5.394   1.974  0.0378 -2.9243  1.2653
 2627SOL    HW2 8452   6.611   5.288   1.878 -2.0701  0.8491 -2.1259
 2628SOL     OW 8453   5.630   0.917   4.815 -0.0959 -0.6897  0.1551
 2628SOL    HW1 8454   5.691   0.901   4.888 -0.4078 -1.4259  0.2648
 2628SOL    HW2 8455   5.609   0.829   4.782 -2.0337 -0.5477  0.8924
 2629SOL     OW 8456   4.617   7.067   5.431 -0.2733 -0.1863 -0.4917
 2629SOL    HW1 8457   4.534   7.066   5.384 -0.6613 -0.8384  0.1915
 2629SOL    HW2 8458   4.680   7.101   5.367 -0.9476 -0.2287 -1.1965
 2630SOL     OW 8459   1.297   3.751   7.046  0.2608  1.0345 -0.6748
 2630SOL    HW1 8460   1.233   3.681   7.055 -0.3411  1.4343 -1.6239
 2630SOL    HW2 8461   1.381   3.706   7.038  0.0364  0.4816  0.0303
 2631SOL     OW 8462   3.441   0.645   3.844 -0.2367 -0.0418  0.2097
 2631SOL    HW1 8463   3.359   0.682   3.810 -1.2385 -1.3923  1.0604
 2631SOL    HW2 8464   3.453   0.687   3.929 -0.7859 -0.7947  0.6788
 2632SOL     OW 8465   0.515   1.774   6.722  0.4273 -0.3946 -0.8318
 2632SOL    HW1 8466   0.507   1.809   6.633 -0.9300  0.6138 -0.3639
 2632SOL    HW2 8467   0.523   1.852   6.777  1.2307 -1.0056 -0.0627
 2633SOL     OW 8468   5.755   3.217   5.670 -0.2073  0.1632 -0.1279
 2633SOL    HW1 8469   5.802   3.203   5.588  0.5771 -0.3341  0.3907
 2633SOL    HW2 8470   5.753   3.313   5.681  0.4453  0.1974 -0.2926
 2634SOL     OW 8471   1.445   1.719   5.429  0.2728 -0.0893 -0.0700
 2634SOL    HW1 8472   1.491   1.684   5.352  0.1012  0.0416 -0.2323
 2634SOL    HW2 8473   1.445   1.646   5.491 -1.5189 -0.9661 -1.0125
 2635SOL     OW 8474   1.810   3.134   2.045  0.5214  0.4839 -0.0940
 2635SOL    HW1 8475   1.775   3.065   1.988 -1.5933  0.5667  0.9699
 2635SOL    HW2 8476   1.809   3.212   1.991  0.7014  0.1280 -0.6186
 2636SOL     OW 8477   7.343   1.856   6.961  0.3518 -0.4126 -0.3067
 2636SOL    HW1 8478   7.270   1.872   6.902 -0.1146 -2.3165 -0.3105
 2636SOL    HW2 8479   7.405   1.806   6.908  0.3575 -1.3029  0.5221
 2637SOL     OW 8480   0.784   5.504   2.202 -0.4443  0.2290 -0.1202
 2637SOL    HW1 8481   0.799   5.599   2.203  0.6207  0.0857  1.2643
 2637SOL    HW2 8482   0.869   5.466   2.222 -1.1753 -0.9513  0.8868
 2638SOL     OW 8483   3.459   4.943   1.515 -0.0289  0.3706 -0.1509
 2638SOL    HW1 8484   3.419   4.914   1.432 -1.0339 -0.3484  0.5583
 2638SOL    HW2 8485   3.517   5.014   1.490 -0.8706  0.6567 -1.3945
 2639SOL     OW 8486   3.426   5.574   5.483  0.2925  0.7977 -0.4020
 2639SOL    HW1 8487   3.444   5.612   5.569 -1.2698 -0.1696  0.4048
 2639SOL    HW2 8488   3.472   5.490   5.483  1.2720  1.3178 -1.0035
 2640SOL     OW 8489   0.811   1.568   5.154 -0.2253  0.3328  0.7100
 2640SOL    HW1 8490   0.871   1.594   5.224  0.2542 -0.4212  0.5899
 2640SOL    HW2 8491   0.847   1.609   5.075 -0.4225  0.6823  0.7999
 2641SOL     OW 8492   2.645   0.106   2.091 -0.0146 -0.4049 -0.0707
 2641SOL    HW1 8493   2.704   0.132   2.020 -2.4520  1.1107 -1.7039
 2641SOL    HW2 8494   2.634   0.012   2.080  1.0450 -0.4940 -0.5261
 2642SOL     OW 8495   2.524   6.715   3.941 -0.0108 -0.4252  0.1688
 2642SOL    HW1 8496   2.586   6.644   3.923 -0.1662 -0.8841  1.3553
 2642SOL    HW2 8497   2.440   6.682   3.912 -0.5237 -1.7383  2.8144
 2643SOL     OW 8498   3.199   1.166   4.346  0.3984  0.2428  0.3709
 2643SOL    HW1 8499   3.280   1.130   4.381 -0.3046 -1.5941  0.2746
 2643SOL    HW2 8500   3.210   1.162   4.251  1.0031  2.0373  0.3413
 2644SOL     OW 8501   6.958   0.539   2.292 -0.4247  0.0010  0.0798
 2644SOL    HW1 8502   6.866   0.516   2.281  0.0579 -1.1535 -2.1638
 2644SOL    HW2 8503   7.005   0.459   2.269  1.1651  0.4651  1.5004
 2645SOL     OW 8504   1.258   4.246   6.597 -0.3213 -0.0753 -0.5337
 2645SOL    HW1 8505   1.263   4.157   6.564  3.6842 -0.1489 -0.2584
 2645SOL    HW2 8506   1.269   4.301   6.520  2.3531 -0.0782 -0.2543
 2646SOL     OW 8507   6.903   4.185   6.765 -0.0692  0.2063 -0.5378
 2646SOL    HW1 8508   6.844   4.238   6.819 -0.9486 -1.0685 -0.1950
 2646SOL    HW2 8509   6.915   4.236   6.685 -0.0898  1.3619  0.1812
 2647SOL     OW 8510   0.495   3.939   2.154  0.1968  0.4506 -0.0069
 2647SOL    HW1 8511   0.421   3.966   2.098 -1.1904 -0.6834  1.1922
 2647SOL    HW2 8512   0.480   3.846   2.170  0.7257  0.6597  1.9841
 2648SOL     OW 8513   3.678   0.961   2.873  0.6020 -0.2814 -0.1834
 2648SOL    HW1 8514   3.625   1.036   2.845  0.8325  0.0749  0.3289
 2648SOL    HW2 8515   3.695   0.976   2.966  1.2623 -0.5968 -0.2459
 2649SOL     OW 8516   3.953   0.513   3.006 -0.2630 -0.3338 -0.2929
 2649SOL    HW1 8517   3.939   0.575   2.935 -0.7671  0.9174  0.8511
 2649SOL    HW2 8518   3.935   0.563   3.085 -1.1683 -2.0793  0.6647
 2650SOL     OW 8519   4.687   1.304   4.779 -0.0055 -0.0579  0.4230
 2650SOL    HW1 8520   4.727   1.235   4.831 -0.5051 -0.6271  0.0731
 2650SOL    HW2 8521   4.750   1.322   4.709  1.3738  1.8014  2.0601
 2651SOL     OW 8522   1.089   2.545   5.980  0.1914  0.2204  0.5036
 2651SOL    HW1 8523   1.092   2.460   5.935  1.6789 -0.0627  1.0738
 2651SOL    HW2 8524   1.106   2.609   5.911  1.2231 -0.1244  0.4130
 2652SOL     OW 8525   5.290   4.187   4.567 -0.4813  0.0420  0.0467
 2652SOL    HW1 8526   5.254   4.112   4.520 -3.1116  2.1935 -1.7024
 2652SOL    HW2 8527   5.351   4.227   4.505 -0.1195  0.0991  0.4372
 2653SOL     OW 8528   2.460   3.317   7.351  0.5250 -0.5020 -0.1045
 2653SOL    HW1 8529   2.395   3.369   7.398  0.6963  0.5158 -0.9581
 2653SOL    HW2 8530   2.447   3.228   7.383 -1.3594 -0.3393 -0.3064
 2654SOL     OW 8531   4.431   1.566   6.246 -0.4042 -0.2463 -0.0582
 2654SOL    HW1 8532   4.467   1.637   6.299  0.9748  0.2262 -1.5475
 2654SOL    HW2 8533   4.340   1.591   6.230 -0.3785  0.3877  0.7330
 2655SOL     OW 8534   0.985   5.033   0.524 -0.0597  0.3384  0.0040
 2655SOL    HW1 8535   0.910   5.029   0.465  1.2961  1.4060 -1.9102
 2655SOL    HW2 8536   0.958   5.094   0.593 -0.4105  2.0564 -1.5716
 2656SOL     OW 8537   2.520   0.790   2.145 -0.4535 -0.3944 -0.1297
 2656SOL    HW1 8538   2.542   0.709   2.192 -0.0816 -0.3599 -0.2406
 2656SOL    HW2 8539   2.533   0.769   2.053  0.4248  0.0224 -0.1104
 2657SOL     OW 8540   6.386   5.533   1.885 -0.0274 -0.2092 -0.2540
 2657SOL    HW1 8541   6.416   5.620   1.856  1.8284 -0.6984  0.0548
 2657SOL    HW2 8542   6.460   5.475   1.867 -0.8693 -1.5575  0.4487
 2658SOL     OW 8543   0.757   6.256   4.018 -0.0496  0.6743  0.2185
 2658SOL    HW1 8544   0.683   6.272   4.077 -0.9767 -0.0637 -0.7028
 2658SOL    HW2 8545   0.716   6.227   3.936  1.2502  0.7335 -0.4716
 2659SOL     OW 8546   0.282   0.024   1.385  0.3990 -0.7162 -0.6852
 2659SOL    HW1 8547   0.215   0.062   1.441  0.4057 -0.3421 -0.9243
 2659SOL    HW2 8548   0.290   0.086   1.312  0.8398 -0.8707 -0.7737
 2660SOL     OW 8549   5.513   4.232   6.353 -0.0016  0.0845 -1.0519
 2660SOL    HW1 8550   5.430   4.276   6.372  0.5400  1.0604 -0.8314
 2660SOL    HW2 8551   5.557   4.289   6.290  1.2556  0.5480  0.1654
 2661SOL     OW 8552   0.739   2.563   2.397  0.3484 -0.1730 -0.1501
 2661SOL    HW1 8553   0.718   2.531   2.485 -1.1744 -0.8994 -0.7580
 2661SOL    HW2 8554   0.765   2.654   2.411 -1.3092  0.1854  0.9077
 2662SOL     OW 8555   4.125   4.085   3.259  0.1690 -0.2159  0.2903
 2662SOL    HW1 8556   4.067   4.117   3.189 -0.7200  0.3381  1.2477
 2662SOL    HW2 8557   4.125   4.155   3.324  1.2582 -0.5776  0.6946
 2663SOL     OW 8558   2.316   4.902   5.716 -0.0335  0.2472 -0.4192
 2663SOL    HW1 8559   2.400   4.902   5.669  0.0328 -0.1770 -0.3033
 2663SOL    HW2 8560   2.305   4.812   5.747 -0.5882  0.2710 -0.5302
 2664SOL     OW 8561   6.102   4.491   0.934  0.1092 -0.0996 -0.0855
 2664SOL    HW1 8562   6.165   4.550   0.892 -0.2982 -0.3185 -1.0379
 2664SOL    HW2 8563   6.021   4.542   0.939 -0.9906 -1.2826 -3.1928
 2665SOL     OW 8564   0.750   0.910   5.636 -0.0670 -0.2191 -0.3056
 2665SOL    HW1 8565   0.781   0.973   5.701 -1.5051  1.2115 -0.9352
 2665SOL    HW2 8566   0.714   0.964   5.566 -0.9027 -1.7569 -1.1073
 2666SOL     OW 8567   1.034   0.943   6.545 -0.3338  0.1393 -0.3323
 2666SOL    HW1 8568   1.021   0.888   6.468 -1.1210 -1.3320  0.8041
 2666SOL    HW2 8569   0.968   0.913   6.608  1.0352  0.4768  1.3480
 2667SOL     OW 8570   2.288   5.802   0.388  0.4978 -0.2542  0.0077
 2667SOL    HW1 8571   2.237   5.752   0.325 -0.6414 -0.1521  0.7996
 2667SOL    HW2 8572   2.361   5.745   0.411 -0.1909 -1.1242  0.0947
 2668SOL     OW 8573   1.900   4.228   5.278 -0.3004  0.1395 -0.3949
 2668SOL    HW1 8574   1.956   4.290   5.230  1.7499 -2.8086 -2.1024
 2668SOL    HW2 8575   1.960   4.173   5.327 -2.0470 -0.5351  1.1369
 2669SOL     OW 8576   6.676   4.860   5.281 -0.1253 -0.2203 -0.3350
 2669SOL    HW1 8577   6.766   4.834   5.298 -0.8926 -1.1695  3.0978
 2669SOL    HW2 8578   6.629   4.777   5.270 -0.8824  0.1503  0.0283
 2670SOL     OW 8579   1.698   4.244   7.316 -0.1837 -0.3133 -0.6785
 2670SOL    HW1 8580   1.652   4.279   7.240 -0.1619 -0.0738 -0.5857
 2670SOL    HW2 8581   1.763   4.184   7.281  1.0038  1.0833 -0.9855
 2671SOL     OW 8582   3.415   5.389   1.183  0.2403  0.4184 -0.1585
 2671SOL    HW1 8583   3.401   5.458   1.117  0.2763  1.3229  0.7538
 2671SOL    HW2 8584   3.493   5.343   1.153  0.1265  0.6750 -0.8725
 2672SOL     OW 8585   5.463   6.185   5.611  0.3140 -0.4317 -0.2047
 2672SOL    HW1 8586   5.551   6.150   5.622  0.3929 -0.1107  0.1907
 2672SOL    HW2 8587   5.476   6.277   5.587  0.0763 -0.0360  1.0979
 2673SOL     OW 8588   6.788   4.088   2.841 -0.2282 -0.1441  0.5049
 2673SOL    HW1 8589   6.808   4.135   2.759 -1.1351  2.3663  1.6157
 2673SOL    HW2 8590   6.871   4.047   2.866  0.2325 -0.4161 -1.2957
 2674SOL     OW 8591   4.709   3.444   0.478  0.5457  0.1906  0.0694
 2674SOL    HW1 8592   4.713   3.384   0.552 -1.0047 -1.2867 -0.9583
 2674SOL    HW2 8593   4.695   3.388   0.402  1.9296  1.6616 -1.3664
 2675SOL     OW 8594   3.089   2.433   6.254 -0.1654 -0.0372 -0.1835
 2675SOL    HW1 8595   3.121   2.390   6.333  2.1384  0.2006 -0.9099
 2675SOL    HW2 8596   3.013   2.483   6.283  0.4597 -0.1727  1.8296
 2676SOL     OW 8597   1.958   6.913   6.070 -0.0355  0.0672 -0.3709
 2676SOL    HW1 8598   2.021   6.985   6.066 -0.2444  0.1947 -1.4775
 2676SOL    HW2 8599   1.963   6.872   5.984  0.2016 -1.3589  0.2953
 2677SOL     OW 8600   5.134   1.076   0.866 -0.8176  0.0170  0.2043
 2677SOL    HW1 8601   5.165   1.004   0.921 -2.0308  0.8450  2.0754
 2677SOL    HW2 8602   5.067   1.036   0.810 -0.1911 -0.6759 -0.0600
 2678SOL     OW 8603   0.489   5.650   2.725 -0.4385  0.6436 -0.7440
 2678SOL    HW1 8604   0.414   5.613   2.773  0.8319 -0.3919  0.5336
 2678SOL    HW2 8605   0.524   5.717   2.784  1.4162 -0.9536  0.0644
 2679SOL     OW 8606   2.074   0.926   4.948 -0.1954  0.0561 -0.1875
 2679SOL    HW1 8607   2.135   0.874   4.896 -0.1638  1.1907 -1.3376
 2679SOL    HW2 8608   2.011   0.959   4.884 -0.5785  0.8972  0.6112
 2680SOL     OW 8609   5.805   6.084   5.847  0.1687 -0.2484  0.0102
 2680SOL    HW1 8610   5.866   6.012   5.834  0.5646  0.0785  0.0499
 2680SOL    HW2 8611   5.791   6.120   5.759 -0.4805 -0.7298 -0.0955
 2681SOL     OW 8612   7.391   0.177   7.383  0.3553  0.0035 -0.4897
 2681SOL    HW1 8613   7.462   0.234   7.411  0.3632 -0.4864  0.4909
 2681SOL    HW2 8614   7.412   0.091   7.419  0.3163 -0.6305 -1.9137
 2682SOL     OW 8615   3.069   1.729   2.889 -0.5612 -0.4864  0.5092
 2682SOL    HW1 8616   3.121   1.736   2.969  2.5139  1.0681 -1.4178
 2682SOL    HW2 8617   3.120   1.671   2.832 -0.6584  1.3707 -1.6092
 2683SOL     OW 8618   6.396   7.001   4.098  0.1883 -0.7628 -0.0098
 2683SOL    HW1 8619   6.407   6.967   4.187 -1.2862  2.6076  1.6852
 2683SOL    HW2 8620   6.469   7.062   4.086 -0.9758  0.7304  0.0370
 2684SOL     OW 8621   6.044   3.261   4.434  0.1919  0.6582 -0.1400
 2684SOL    HW1 8622   6.007   3.345   4.406  0.9686  0.4649 -1.8492
 2684SOL    HW2 8623   6.129   3.283   4.472  0.5880  0.6077 -0.9928
 2685SOL     OW 8624   2.229   4.360   5.322  0.3080  0.0587 -0.0061
 2685SOL    HW1 8625   2.309   4.317   5.351 -0.4477 -0.7437  0.9684
 2685SOL    HW2 8626   2.224   4.440   5.375  0.7488  0.4098 -0.4829
 2686SOL     OW 8627   6.754   5.354   0.873 -0.1001  0.1844  0.4148
 2686SOL    HW1 8628   6.715   5.335   0.788  1.1063 -0.8975  0.0769
 2686SOL    HW2 8629   6.680   5.366   0.931 -0.9427 -0.3355 -0.5241
 2687SOL     OW 8630   3.187   6.903   1.503  0.3483 -0.6120 -0.0918
 2687SOL    HW1 8631   3.275   6.929   1.477  0.0293  2.0060  1.0795
 2687SOL    HW2 8632   3.196   6.877   1.595  0.1583 -2.0537 -0.4617
 2688SOL     OW 8633   5.823   1.465   4.097 -0.1210 -0.1719  0.2368
 2688SOL    HW1 8634   5.879   1.518   4.153 -0.8727  0.1209  0.7234
 2688SOL    HW2 8635   5.764   1.419   4.158  0.1291 -1.1151 -0.2087
 2689SOL     OW 8636   0.056   1.336   5.164  0.1662  0.0266 -0.3730
 2689SOL    HW1 8637   0.080   1.383   5.085  0.8087  1.8795  0.8618
 2689SOL    HW2 8638   0.018   1.403   5.221  0.7241 -1.0297  1.3047
 2690SOL     OW 8639   6.658   4.540   6.596 -0.1528  0.0603 -0.0408
 2690SOL    HW1 8640   6.651   4.447   6.620 -2.1907  0.1005 -0.3354
 2690SOL    HW2 8641   6.661   4.586   6.680 -1.7514 -0.1433  0.1578
 2691SOL     OW 8642   1.772   5.621   0.330  0.5917  0.0217  0.0132
 2691SOL    HW1 8643   1.758   5.618   0.425  1.1724  1.4848  0.1638
 2691SOL    HW2 8644   1.727   5.701   0.302 -0.4188 -0.9039 -1.1138
 2692SOL     OW 8645   4.491   5.413   6.224  0.0881 -0.2768  0.0878
 2692SOL    HW1 8646   4.406   5.434   6.186  0.3252 -1.6702 -1.3368
 2692SOL    HW2 8647   4.553   5.472   6.181 -0.1126  0.6276  1.0087
 2693SOL     OW 8648   3.834   4.509   0.702  0.6948  0.3446  0.1793
 2693SOL    HW1 8649   3.853   4.590   0.750  3.0627 -1.1240  1.9819
 2693SOL    HW2 8650   3.920   4.477   0.676 -0.2958 -0.9271 -1.7340
 2694SOL     OW 8651   3.216   3.244   1.182 -0.3364  0.1430  0.0941
 2694SOL    HW1 8652   3.140   3.198   1.145 -2.1152 -0.6351  4.1801
 2694SOL    HW2 8653   3.178   3.316   1.231  1.7132  0.5487  1.1755
 2695SOL     OW 8654   4.882   3.884   2.666 -0.3975 -0.2477  0.4411
 2695SOL    HW1 8655   4.958   3.934   2.636 -0.4188 -0.1723  0.5150
 2695SOL    HW2 8656   4.821   3.949   2.699 -1.2999 -0.1208 -1.3480
 2696SOL     OW 8657   1.867   0.514   6.823 -0.2309  0.0487  0.5561
 2696SOL    HW1 8658   1.850   0.427   6.789 -0.0315  0.4681 -0.6759
 2696SOL    HW2 8659   1.949   0.505   6.871 -0.0979 -0.4042  0.2542
 2697SOL     OW 8660   6.774   5.012   4.856 -0.3309  0.0677  0.6087
 2697SOL    HW1 8661   6.784   5.101   4.821  0.2111 -0.4591 -0.6263
 2697SOL    HW2 8662   6.835   5.009   4.930  1.0176  0.1770 -0.4597
 2698SOL     OW 8663   6.714   0.595   1.324  0.1909  0.1031 -0.5024
 2698SOL    HW1 8664   6.754   0.681   1.336 -0.0797  0.1387  0.2163
 2698SOL    HW2 8665   6.737   0.569   1.235 -1.0097  1.5887 -1.2822
 2699SOL     OW 8666   3.115   2.820   0.753  0.4393 -0.0222 -0.3964
 2699SOL    HW1 8667   3.175   2.892   0.734 -2.4792  3.0525  1.0189
 2699SOL    HW2 8668   3.158   2.770   0.822  1.7266  1.5646  0.0042
 2700SOL     OW 8669   4.450   5.550   2.337  0.4142  0.4636 -0.1365
 2700SOL    HW1 8670   4.520   5.594   2.385  0.9847 -0.4535 -0.1217
 2700SOL    HW2 8671   4.372   5.564   2.390  0.7684  0.6624  0.3386
 2701SOL     OW 8672   4.147   6.510   7.020  0.3480 -0.5465 -0.1727
 2701SOL    HW1 8673   4.209   6.581   7.002  0.2342 -1.0069 -2.5864
 2701SOL    HW2 8674   4.199   6.430   7.013  0.1266 -0.8032  0.9377
 2702SOL     OW 8675   2.066   4.789   2.387  0.4908 -0.8089  0.0028
 2702SOL    HW1 8676   2.107   4.822   2.307 -2.7087  0.4757 -1.2966
 2702SOL    HW2 8677   2.047   4.697   2.368 -0.0511 -0.5692 -0.6798
 2703SOL     OW 8678   1.580   4.343   1.893  0.1688  0.2775  0.0497
 2703SOL    HW1 8679   1.664   4.312   1.927  0.0885  0.4361  0.3989
 2703SOL    HW2 8680   1.575   4.309   1.804  0.5147  0.1018  0.0998
 2704SOL     OW 8681   0.852   1.457   2.190 -0.2898  0.0544 -0.2987
 2704SOL    HW1 8682   0.884   1.548   2.189  1.1734 -0.4000  0.7028
 2704SOL    HW2 8683   0.927   1.407   2.224 -1.3893 -1.3949  0.0537
 2705SOL     OW 8684   6.504   0.794   4.623 -0.1544  0.0470  0.4645
 2705SOL    HW1 8685   6.527   0.757   4.537 -1.2569 -1.0783  0.6275
 2705SOL    HW2 8686   6.589   0.815   4.662  0.3718  0.6636 -0.9181
 2706SOL     OW 8687   2.962   2.046   3.628  0.5359 -0.0003 -0.0973
 2706SOL    HW1 8688   3.005   2.102   3.564 -0.2090  0.0763 -0.5439
 2706SOL    HW2 8689   2.872   2.038   3.597  0.4924 -1.0244  0.2412
 2707SOL     OW 8690   4.369   6.593   0.355 -0.2976 -0.3471  0.0045
 2707SOL    HW1 8691   4.321   6.534   0.413  2.1612 -2.9751 -0.4388
 2707SOL    HW2 8692   4.333   6.576   0.268  1.4497 -2.5438 -0.3755
 2708SOL     OW 8693   4.778   6.210   0.005  0.4029 -0.1428 -0.0190
 2708SOL    HW1 8694   4.834   6.133  -0.007  0.2378 -0.2310 -0.2541
 2708SOL    HW2 8695   4.816   6.257   0.079  0.6773 -0.2982 -0.0600
 2709SOL     OW 8696   5.330   4.792   1.379 -0.0779 -0.3807  0.3898
 2709SOL    HW1 8697   5.372   4.720   1.427  1.0337  0.8183  1.2621
 2709SOL    HW2 8698   5.236   4.775   1.390  0.1530 -1.1112  1.5035
 2710SOL     OW 8699   4.649   2.148   4.216 -0.3189  0.2808  0.5199
 2710SOL    HW1 8700   4.657   2.139   4.121  1.0811 -0.3489  0.6655
 2710SOL    HW2 8701   4.558   2.174   4.231 -0.9651 -1.0268 -0.8963
 2711SOL     OW 8702   1.698   0.384   3.679 -0.1273 -0.0774  0.0900
 2711SOL    HW1 8703   1.738   0.367   3.764  2.0411  1.4847 -0.5300
 2711SOL    HW2 8704   1.721   0.308   3.625  2.0679  0.7343 -0.2198
 2712SOL     OW 8705   5.388   1.258   4.395  0.6439 -0.2625  0.2109
 2712SOL    HW1 8706   5.415   1.167   4.413  0.6983 -0.2555  0.1622
 2712SOL    HW2 8707   5.293   1.256   4.406  0.8097  0.0673  1.9661
 2713SOL     OW 8708   5.160   1.482   1.682  0.4090  0.7499 -0.3788
 2713SOL    HW1 8709   5.204   1.467   1.766  0.3465  1.2064 -0.2639
 2713SOL    HW2 8710   5.117   1.399   1.663  2.6740 -0.3047 -1.3237
 2714SOL     OW 8711   5.317   2.399   6.157  0.2757 -0.4309  0.6724
 2714SOL    HW1 8712   5.241   2.435   6.203 -2.0673 -0.0318 -3.0823
 2714SOL    HW2 8713   5.298   2.305   6.150 -0.1314 -0.2764 -0.5732
 2715SOL     OW 8714   6.216   7.108   2.357  0.1803  0.1165  0.5241
 2715SOL    HW1 8715   6.250   7.140   2.274 -0.6638  0.2191  0.2036
 2715SOL    HW2 8716   6.293   7.080   2.406  0.6293 -0.9506 -0.7169
 2716SOL     OW 8717   5.660   4.981   2.095  0.7420 -0.1719 -0.0926
 2716SOL    HW1 8718   5.702   5.066   2.082  0.3093 -0.0674 -0.8262
 2716SOL    HW2 8719   5.690   4.953   2.182 -0.2082  1.3808  0.7971
 2717SOL     OW 8720   1.942   7.181   5.574  0.5244 -0.0927 -0.7139
 2717SOL    HW1 8721   2.000   7.224   5.637  1.1737  0.0729 -1.4069
 2717SOL    HW2 8722   1.855   7.217   5.592  0.4194 -1.1248  1.0403
 2718SOL     OW 8723   6.954   5.895   4.770  0.3062 -0.5528 -0.0042
 2718SOL    HW1 8724   6.860   5.888   4.785 -0.2062 -2.5711 -3.0124
 2718SOL    HW2 8725   6.989   5.810   4.798  0.9463 -0.4267 -0.3995
 2719SOL     OW 8726   0.949   3.926   5.612 -0.2084  0.1763  0.4225
 2719SOL    HW1 8727   0.876   3.864   5.617  0.3765 -0.4697  1.1290
 2719SOL    HW2 8728   1.007   3.900   5.683  1.5459 -0.3963 -1.1436
 2720SOL     OW 8729   6.383   3.962   6.444  0.3320 -0.1696  0.8639
 2720SOL    HW1 8730   6.445   3.950   6.516  1.1371  1.4969  0.5092
 2720SOL    HW2 8731   6.435   3.948   6.365 -0.6086 -2.2611  0.5493
 2721SOL     OW 8732   0.250   6.117   1.416 -0.5366 -0.4403 -0.0559
 2721SOL    HW1 8733   0.196   6.146   1.342 -0.2698  2.3438  0.7537
 2721SOL    HW2 8734   0.187   6.092   1.483 -0.8563  1.5214  0.4112
 2722SOL     OW 8735   5.100   2.089   1.025  0.6604 -0.1834  0.3452
 2722SOL    HW1 8736   5.181   2.045   1.003 -0.1603 -0.6331 -2.0868
 2722SOL    HW2 8737   5.125   2.154   1.092  2.4094 -2.2471  1.8186
 2723SOL     OW 8738   2.885   7.161   3.325  0.0109 -0.3076 -0.5999
 2723SOL    HW1 8739   2.911   7.095   3.389  2.7431  0.5616 -0.6919
 2723SOL    HW2 8740   2.881   7.113   3.242  0.6638 -0.6107 -0.4606
 2724SOL     OW 8741   5.086   6.260   4.934 -0.6108 -0.2729 -0.3690
 2724SOL    HW1 8742   5.163   6.227   4.888 -0.6468 -0.6252 -0.1756
 2724SOL    HW2 8743   5.046   6.322   4.872  0.9299  1.4752  0.2789
 2725SOL     OW 8744   1.309   0.056   4.613 -0.2672  0.1436 -0.7236
 2725SOL    HW1 8745   1.248   0.066   4.687  0.0748  0.1984 -0.4431
 2725SOL    HW2 8746   1.253   0.044   4.537 -0.6190 -0.6804 -0.3452
 2726SOL     OW 8747   3.713   6.341   4.659 -0.7632 -0.1943  0.0351
 2726SOL    HW1 8748   3.671   6.420   4.694  0.4619  0.0196  1.1050
 2726SOL    HW2 8749   3.688   6.272   4.720  0.9730  0.0809  1.1339
 2727SOL     OW 8750   4.308   3.679   4.027 -0.3937 -0.1744  0.2493
 2727SOL    HW1 8751   4.386   3.729   4.001 -2.2450  4.4657  2.3572
 2727SOL    HW2 8752   4.329   3.645   4.114 -0.2958  0.0715  0.3239
 2728SOL     OW 8753   2.452   1.036   3.263  0.0593 -0.6897  0.2460
 2728SOL    HW1 8754   2.502   1.082   3.196  1.4830 -0.2793  1.5251
 2728SOL    HW2 8755   2.517   0.983   3.309 -1.0496 -1.7038  0.6943
 2729SOL     OW 8756   0.563   1.771   3.420  0.2015  0.4375 -0.6021
 2729SOL    HW1 8757   0.555   1.707   3.349  0.8283  0.4475 -0.6913
 2729SOL    HW2 8758   0.482   1.762   3.470  0.0204 -0.0008 -0.9632
 2730SOL     OW 8759   0.898   4.432   6.993 -0.9212 -0.2414  0.3595
 2730SOL    HW1 8760   0.932   4.404   7.078  1.1546  0.8322 -0.0406
 2730SOL    HW2 8761   0.891   4.352   6.942 -2.0937 -0.8826  1.4695
 2731SOL     OW 8762   5.876   4.608   1.043  0.0682  0.3599 -0.3526
 2731SOL    HW1 8763   5.810   4.658   1.090  1.3960  0.1482  1.8269
 2731SOL    HW2 8764   5.950   4.601   1.103  0.7350 -2.4369 -1.3316
 2732SOL     OW 8765   1.873   1.675   4.498 -0.1353 -0.1933 -0.2720
 2732SOL    HW1 8766   1.939   1.610   4.472 -0.6297 -0.7966 -0.0411
 2732SOL    HW2 8767   1.857   1.726   4.419  1.4514  0.7195 -0.0517
 2733SOL     OW 8768   5.808   2.849   5.034  0.2771  0.0396  0.1141
 2733SOL    HW1 8769   5.780   2.909   5.103 -0.2054  0.1557 -0.1780
 2733SOL    HW2 8770   5.750   2.774   5.042  0.2469  0.0351 -0.1402
 2734SOL     OW 8771   2.470   0.093   0.006  0.1413  0.2444  0.0701
 2734SOL    HW1 8772   2.487   0.170   0.061  0.5733  0.1512  0.0681
 2734SOL    HW2 8773   2.492   0.018   0.060 -1.1737  0.0701  0.3981
 2735SOL     OW 8774   5.014   4.829   2.451  0.4298 -0.4758  0.1699
 2735SOL    HW1 8775   5.109   4.826   2.463  0.6724  0.0959 -1.3798
 2735SOL    HW2 8776   4.990   4.738   2.434  0.5600 -0.7550  1.3978
 2736SOL     OW 8777   2.184   5.384   4.836 -0.2057 -0.2403 -0.2636
 2736SOL    HW1 8778   2.264   5.397   4.785  0.6067 -3.2419  0.0488
 2736SOL    HW2 8779   2.121   5.445   4.798  2.2418  2.4654 -0.3323
 2737SOL     OW 8780   2.188   1.082   2.432 -0.6597  0.2822  0.1884
 2737SOL    HW1 8781   2.120   1.022   2.401 -0.9568  0.0543  1.2268
 2737SOL    HW2 8782   2.209   1.050   2.520  0.2763  0.7934  0.1651
 2738SOL     OW 8783   2.186   5.650   7.390 -0.0708 -0.5883 -0.5659
 2738SOL    HW1 8784   2.214   5.676   7.478 -2.6745 -0.1931  0.2403
 2738SOL    HW2 8785   2.174   5.555   7.397 -2.6958 -0.2836  0.3852
 2739SOL     OW 8786   6.750   2.396   4.579  0.2748 -0.0383  0.1447
 2739SOL    HW1 8787   6.821   2.358   4.529 -0.7999  0.4672 -1.8869
 2739SOL    HW2 8788   6.711   2.323   4.626  1.7050 -0.4187  0.7851
 2740SOL     OW 8789   5.550   1.022   3.927  0.4460  0.0496 -0.0064
 2740SOL    HW1 8790   5.482   0.956   3.944  2.1715 -1.9553 -0.5018
 2740SOL    HW2 8791   5.558   1.069   4.010 -1.6251  0.4710  0.0162
 2741SOL     OW 8792   0.078   7.290   4.903 -0.3607  0.1594 -0.0472
 2741SOL    HW1 8793   0.067   7.366   4.847  0.1903  1.0353  1.0088
 2741SOL    HW2 8794   0.004   7.293   4.963 -0.9326 -0.7619 -0.6655
 2742SOL     OW 8795   0.043   6.731   5.477 -0.8277  0.2936  0.2500
 2742SOL    HW1 8796   0.118   6.726   5.417  0.9111 -1.0987  2.4163
 2742SOL    HW2 8797  -0.019   6.668   5.442 -0.8742  1.1754 -1.3604
 2743SOL     OW 8798   3.334   0.577   1.970 -0.4461  0.0341 -0.0464
 2743SOL    HW1 8799   3.293   0.593   1.885 -0.7729  0.5047  0.1955
 2743SOL    HW2 8800   3.264   0.591   2.034  0.6356  3.6056  0.5707
 2744SOL     OW 8801   1.976   5.679   3.679 -0.1452  0.3076 -0.0752
 2744SOL    HW1 8802   1.900   5.647   3.727 -0.6087  0.6204 -0.5958
 2744SOL    HW2 8803   1.940   5.718   3.600  0.5347  0.7387 -0.1785
 2745SOL     OW 8804   1.014   5.318   5.233  0.2107 -0.1906 -0.1559
 2745SOL    HW1 8805   0.989   5.353   5.319  0.7614  0.9764 -0.4511
 2745SOL    HW2 8806   0.960   5.240   5.223 -0.0866 -0.1752  1.1183
 2746SOL     OW 8807   3.190   1.465   1.238 -0.3644 -0.0272 -0.3315
 2746SOL    HW1 8808   3.146   1.461   1.323  0.2739 -1.3642 -0.0394
 2746SOL    HW2 8809   3.271   1.415   1.251  0.9463  1.7929 -1.0312
 2747SOL     OW 8810   1.740   4.868   1.243  0.1562 -0.6852 -0.3387
 2747SOL    HW1 8811   1.775   4.929   1.308 -1.7203  0.4577 -0.3465
 2747SOL    HW2 8812   1.818   4.833   1.199  1.3130  1.5435 -0.1882
 2748SOL     OW 8813   5.359   6.177   1.802  0.4558  0.2500 -0.1506
 2748SOL    HW1 8814   5.290   6.243   1.799 -0.1733 -0.4206 -0.7875
 2748SOL    HW2 8815   5.313   6.095   1.820  1.0866 -0.2012 -0.5472
 2749SOL     OW 8816   5.343   5.628   1.815  0.7447  0.8451  0.8937
 2749SOL    HW1 8817   5.424   5.621   1.866  0.4324  1.8158  1.5432
 2749SOL    HW2 8818   5.372   5.619   1.724  1.4898  0.4948  1.1514
 2750SOL     OW 8819   3.903   1.400   1.823 -0.0819 -0.0558  0.5145
 2750SOL    HW1 8820   3.922   1.469   1.759 -0.3163 -1.3395 -1.0117
 2750SOL    HW2 8821   3.864   1.329   1.771  1.1738 -1.7844  1.8141
 2751SOL     OW 8822   1.238   3.503   1.154 -0.2333  0.4220 -0.1477
 2751SOL    HW1 8823   1.208   3.529   1.241  0.0639 -1.6023  0.6336
 2751SOL    HW2 8824   1.160   3.469   1.110 -0.3422  1.2507 -0.6204
 2752SOL     OW 8825   3.692   2.481   5.579 -0.6710  0.4307 -0.2057
 2752SOL    HW1 8826   3.603   2.453   5.557 -0.3353 -0.1340 -0.8840
 2752SOL    HW2 8827   3.683   2.525   5.663 -1.1917 -2.1524  1.2130
 2753SOL     OW 8828   4.031   5.794   2.413  0.1391  0.7286 -0.1143
 2753SOL    HW1 8829   3.995   5.730   2.474 -0.3311  1.0150 -0.0808
 2753SOL    HW2 8830   3.954   5.843   2.383  0.5035  1.3259 -0.0791
 2754SOL     OW 8831   3.565   0.988   6.853 -0.4923 -0.3410  0.5716
 2754SOL    HW1 8832   3.643   0.935   6.869 -0.5415 -0.3043  0.9455
 2754SOL    HW2 8833   3.548   0.978   6.759  0.3586  0.2045  0.3479
 2755SOL     OW 8834   7.260   4.471   7.385  0.2936 -0.3986  0.0633
 2755SOL    HW1 8835   7.355   4.462   7.377  0.3351 -1.2049  1.1961
 2755SOL    HW2 8836   7.246   4.562   7.411  0.4178  1.0284 -4.2186
 2756SOL     OW 8837   6.739   7.082   1.844 -0.0955 -0.0748  0.0803
 2756SOL    HW1 8838   6.779   7.002   1.879 -0.0297  0.1429  0.5023
 2756SOL    HW2 8839   6.694   7.053   1.764 -0.0653 -0.5319  0.2273
 2757SOL     OW 8840   6.931   4.738   0.516  0.0291  0.2879  0.2580
 2757SOL    HW1 8841   6.968   4.755   0.603 -1.6981  1.2413  0.8447
 2757SOL    HW2 8842   6.865   4.671   0.530  0.3746 -0.2366 -0.5102
 2758SOL     OW 8843   3.667   5.381   4.561  0.1939 -0.6771 -0.3028
 2758SOL    HW1 8844   3.684   5.471   4.588 -1.5163  0.3386 -2.2585
 2758SOL    HW2 8845   3.730   5.366   4.490 -0.5575 -0.3810 -1.0617
 2759SOL     OW 8846   4.232   2.389   6.807  0.0278  0.1671 -0.6163
 2759SOL    HW1 8847   4.173   2.344   6.746 -2.2529 -0.0866  1.6268
 2759SOL    HW2 8848   4.280   2.318   6.850  0.4484  0.2482 -0.9449
 2760SOL     OW 8849   6.248   4.420   3.809  0.0380  0.1282  0.0488
 2760SOL    HW1 8850   6.342   4.427   3.824  0.1359  2.6531 -1.1139
 2760SOL    HW2 8851   6.209   4.436   3.895  0.6805  1.2734  0.1551
 2761SOL     OW 8852   4.287   0.430   2.040  0.0603 -0.0404  0.1522
 2761SOL    HW1 8853   4.266   0.356   2.097 -1.7002 -0.2448 -0.6852
 2761SOL    HW2 8854   4.222   0.496   2.061  1.6758  1.3617  0.9541
 2762SOL     OW 8855   1.166   6.237   3.456 -0.3598 -0.1310  0.3669
 2762SOL    HW1 8856   1.159   6.171   3.525 -1.3769 -0.3399  0.0746
 2762SOL    HW2 8857   1.082   6.283   3.459  0.3830  1.2707  0.6763
 2763SOL     OW 8858   4.312   5.929   5.876  0.2956 -0.0987  0.1962
 2763SOL    HW1 8859   4.386   5.871   5.892  1.7585  1.3832 -0.7295
 2763SOL    HW2 8860   4.288   5.962   5.962 -2.2671 -3.8421  1.1364
 2764SOL     OW 8861   1.958   5.457   2.874 -0.0136 -0.3639  0.3094
 2764SOL    HW1 8862   1.965   5.456   2.779 -2.2665  0.9310  0.0633
 2764SOL    HW2 8863   1.867   5.482   2.892  0.1127 -1.3329  2.8116
 2765SOL     OW 8864   7.004   0.049   0.449  0.1199  0.3880 -0.1820
 2765SOL    HW1 8865   6.959   0.127   0.481 -1.9647 -0.6588 -0.4193
 2765SOL    HW2 8866   6.939   0.003   0.396  1.7887 -0.7314 -1.3657
 2766SOL     OW 8867   6.369   6.779   2.545 -0.1718 -0.1951  0.4968
 2766SOL    HW1 8868   6.403   6.834   2.615 -0.1293  1.6919 -0.9416
 2766SOL    HW2 8869   6.381   6.830   2.466 -0.5912 -2.1004 -0.8660
 2767SOL     OW 8870   5.607   5.844   6.110 -0.0789  0.0299  0.1211
 2767SOL    HW1 8871   5.534   5.857   6.171 -0.4679  0.3439 -0.3936
 2767SOL    HW2 8872   5.607   5.924   6.056  0.4961 -0.0759 -0.0416
 2768SOL     OW 8873   0.982   1.732   2.236  0.6390 -0.3921 -0.0327
 2768SOL    HW1 8874   1.078   1.732   2.235  0.6393 -0.1427 -0.0864
 2768SOL    HW2 8875   0.958   1.778   2.156  0.4980  1.5662  1.0732
 2769SOL     OW 8876   3.345   4.557   4.074 -0.0519 -0.0066  0.1052
 2769SOL    HW1 8877   3.268   4.603   4.039  0.4575  1.3761  0.7286
 2769SOL    HW2 8878   3.328   4.465   4.055 -0.6964  0.4805 -2.0070
 2770SOL     OW 8879   5.379   3.294   4.937  0.4284  0.5681  0.1774
 2770SOL    HW1 8880   5.422   3.272   5.019  1.5003 -1.3528 -0.8101
 2770SOL    HW2 8881   5.393   3.388   4.926 -0.3185  1.0120  2.4513
 2771SOL     OW 8882   5.093   6.412   4.517 -0.1383 -0.3262  0.4908
 2771SOL    HW1 8883   5.039   6.388   4.442  0.8149 -2.7481  0.4967
 2771SOL    HW2 8884   5.037   6.396   4.593 -0.5111  0.4046  0.3730
 2772SOL     OW 8885   1.283   2.530   1.353 -0.1349  0.7588 -0.6397
 2772SOL    HW1 8886   1.203   2.583   1.362  0.6684  2.0301 -0.6716
 2772SOL    HW2 8887   1.313   2.546   1.264 -0.1215 -0.1249 -0.7970
 2773SOL     OW 8888   5.932   3.116   4.622 -0.7333 -0.3552 -0.1404
 2773SOL    HW1 8889   5.845   3.152   4.645 -0.5813  0.2091 -0.4286
 2773SOL    HW2 8890   5.951   3.153   4.536 -0.6732 -1.3425 -0.5641
 2774SOL     OW 8891   1.935   6.921   5.771  0.4195 -0.2647  0.5876
 2774SOL    HW1 8892   1.844   6.943   5.754  0.4487  0.6850  1.5898
 2774SOL    HW2 8893   1.982   7.005   5.765  1.1595 -0.6676  0.5580
 2775SOL     OW 8894   3.328   5.940   2.209  0.2131  0.3368  0.9995
 2775SOL    HW1 8895   3.285   5.858   2.184 -0.1074  0.7200  0.2481
 2775SOL    HW2 8896   3.268   5.981   2.271 -0.4437  0.7824  0.0968
 2776SOL     OW 8897   6.647   6.726   6.832  0.0984  0.0231 -0.1387
 2776SOL    HW1 8898   6.691   6.756   6.752  0.0876 -0.4114 -0.3117
 2776SOL    HW2 8899   6.702   6.758   6.903  1.0551 -1.0382 -0.3690
 2777SOL     OW 8900   7.311   0.825   2.668  0.0673  0.1187  0.1823
 2777SOL    HW1 8901   7.245   0.852   2.605 -0.3085 -2.0049 -0.4146
 2777SOL    HW2 8902   7.367   0.902   2.679 -1.7725  1.5801 -0.1944
 2778SOL     OW 8903   5.344   7.376   3.698  0.4830  0.6687 -0.0731
 2778SOL    HW1 8904   5.260   7.423   3.705  0.7814  1.3836 -1.1219
 2778SOL    HW2 8905   5.364   7.376   3.604  1.5515  0.2997  0.1411
 2779SOL     OW 8906   3.464   2.629   6.540  0.6607 -0.2703  0.2822
 2779SOL    HW1 8907   3.478   2.561   6.474  1.7304  1.1016 -0.9710
 2779SOL    HW2 8908   3.378   2.664   6.520  0.3464 -0.8594  0.5769
 2780SOL     OW 8909   3.982   1.337   2.351  0.0784  0.3371 -0.1891
 2780SOL    HW1 8910   4.039   1.355   2.276  0.1819  0.0365 -0.1825
 2780SOL    HW2 8911   3.991   1.414   2.407  1.6544 -0.3298  0.5564
 2781SOL     OW 8912   0.246   1.761   1.111  0.6751 -0.4568 -0.1327
 2781SOL    HW1 8913   0.201   1.681   1.137  2.9533 -1.8662 -0.3467
 2781SOL    HW2 8914   0.232   1.767   1.017  1.4319 -1.2204 -0.2968
 2782SOL     OW 8915   6.475   0.849   2.836  0.0971  0.5394  0.3798
 2782SOL    HW1 8916   6.474   0.908   2.761 -0.1911  1.0708  0.8025
 2782SOL    HW2 8917   6.390   0.806   2.834  0.4068 -0.0838 -0.0874
 2783SOL     OW 8918   4.708   1.253   1.715 -0.3173  0.3211  0.1123
 2783SOL    HW1 8919   4.650   1.327   1.699  0.0689  0.7213  0.5106
 2783SOL    HW2 8920   4.678   1.217   1.799  0.1568  0.6749  0.4355
 2784SOL     OW 8921   6.775   5.749   5.831  0.6242  0.5952 -0.0150
 2784SOL    HW1 8922   6.814   5.829   5.796  1.0723 -0.2023 -1.4424
 2784SOL    HW2 8923   6.708   5.725   5.766  0.2139  0.0329  0.6011
 2785SOL     OW 8924   2.885   6.572   6.271 -0.6399 -0.1801 -0.0859
 2785SOL    HW1 8925   2.905   6.479   6.286 -2.8744 -0.4095  1.9837
 2785SOL    HW2 8926   2.828   6.572   6.194 -0.9591 -0.5575  0.1494
 2786SOL     OW 8927   5.801   5.675   6.204  0.5264 -0.2568  0.7720
 2786SOL    HW1 8928   5.721   5.727   6.194  0.4962 -0.3553  0.4921
 2786SOL    HW2 8929   5.775   5.587   6.179  1.2334  0.1035 -1.4396
 2787SOL     OW 8930   6.521   6.105   2.073 -0.3704 -0.0799 -0.3692
 2787SOL    HW1 8931   6.529   6.195   2.042 -1.0028 -0.0077 -0.3414
 2787SOL    HW2 8932   6.607   6.083   2.107 -0.2036  0.5032 -0.4083
 2788SOL     OW 8933   5.612   1.137   5.608  0.2049  0.6176  0.4045
 2788SOL    HW1 8934   5.618   1.230   5.626  1.7114  0.6616 -0.2035
 2788SOL    HW2 8935   5.579   1.132   5.518 -1.9125  0.4821  1.1138
 2789SOL     OW 8936   6.173   6.098   1.673 -0.1677  0.0056 -0.1644
 2789SOL    HW1 8937   6.112   6.170   1.655 -0.5818 -0.7467 -2.1233
 2789SOL    HW2 8938   6.122   6.035   1.724 -0.4423  0.2258 -0.1651
 2790SOL     OW 8939   0.387   6.089   5.609 -0.0080  0.5054  0.4253
 2790SOL    HW1 8940   0.403   6.043   5.691 -0.8651 -0.1074  0.2627
 2790SOL    HW2 8941   0.474   6.104   5.572  0.2847 -1.8676 -0.0060
 2791SOL     OW 8942   3.941   6.426   1.936 -0.4237  0.2417 -0.9766
 2791SOL    HW1 8943   3.860   6.379   1.915  0.6533 -0.8087 -3.0301
 2791SOL    HW2 8944   3.911   6.512   1.967 -2.3179 -0.1950 -1.4540
 2792SOL     OW 8945   4.597   1.446   6.034 -0.4134 -0.1092  0.2653
 2792SOL    HW1 8946   4.539   1.507   6.080 -1.7248 -1.5301  0.5835
 2792SOL    HW2 8947   4.542   1.407   5.966 -0.1477 -2.0972  1.0979
 2793SOL     OW 8948   5.336   5.980   0.960  0.3668 -0.6206  0.4705
 2793SOL    HW1 8949   5.247   6.014   0.956  0.3459 -0.6135  0.9432
 2793SOL    HW2 8950   5.359   5.961   0.869 -0.3610 -1.2566  0.4117
 2794SOL     OW 8951   2.791   5.918   2.730 -0.8660 -0.3908 -0.0476
 2794SOL    HW1 8952   2.825   5.917   2.641 -1.2341  0.0672 -0.2010
 2794SOL    HW2 8953   2.696   5.922   2.719 -0.9858 -1.7247  0.3734
 2795SOL     OW 8954   4.266   1.542   5.909 -0.4347 -0.1309 -0.1167
 2795SOL    HW1 8955   4.219   1.555   5.991 -0.2469 -0.8823  0.1167
 2795SOL    HW2 8956   4.233   1.458   5.875 -1.0800  0.5320 -1.2008
 2796SOL     OW 8957   1.077   1.304   0.041 -0.0458  0.1948  0.0905
 2796SOL    HW1 8958   1.034   1.273   0.121 -0.7270  2.0136  0.5012
 2796SOL    HW2 8959   1.039   1.391   0.027  1.4312  0.6750 -1.1726
 2797SOL     OW 8960   4.854   0.889   4.910 -0.0330 -0.5863  0.6752
 2797SOL    HW1 8961   4.869   0.819   4.847 -1.8577 -0.2069 -0.2669
 2797SOL    HW2 8962   4.816   0.845   4.986 -1.6218 -0.6275 -0.0955
 2798SOL     OW 8963   4.767   1.203   1.015 -0.0683  0.2737 -0.2127
 2798SOL    HW1 8964   4.823   1.240   0.947 -1.5774  0.8983 -1.1659
 2798SOL    HW2 8965   4.678   1.220   0.985 -0.7884 -0.2958  1.4648
 2799SOL     OW 8966   2.462   4.314   6.363 -0.1585 -0.6524 -0.5774
 2799SOL    HW1 8967   2.451   4.325   6.269 -1.7074 -2.9221 -0.7421
 2799SOL    HW2 8968   2.485   4.402   6.395 -1.3472  0.5552 -2.8048
 2800SOL     OW 8969   6.689   6.714   1.319  0.0533  0.1592 -0.4711
 2800SOL    HW1 8970   6.613   6.722   1.377 -0.5607  1.7425 -1.4081
 2800SOL    HW2 8971   6.652   6.687   1.234  0.3396  1.9561 -1.2173
 2801SOL     OW 8972   0.478   0.832   3.249  0.7384  0.0009  0.3592
 2801SOL    HW1 8973   0.455   0.741   3.230  0.7920  0.1780 -0.6201
 2801SOL    HW2 8974   0.411   0.861   3.311 -1.6348  0.4143 -2.1891
 2802SOL     OW 8975   2.455   7.431   6.749 -0.3429  0.2339  0.0566
 2802SOL    HW1 8976   2.464   7.343   6.714  1.8170  0.3315  0.2041
 2802SOL    HW2 8977   2.498   7.427   6.835 -0.2109  1.4126  0.0632
 2803SOL     OW 8978   6.793   3.657   4.520  0.3041 -0.7211  0.0127
 2803SOL    HW1 8979   6.765   3.572   4.555  2.4326 -1.0164  1.1916
 2803SOL    HW2 8980   6.852   3.692   4.587  0.2258  1.2669 -0.8898
 2804SOL     OW 8981   7.050   6.449   6.673  0.0190  0.2046  0.2139
 2804SOL    HW1 8982   7.040   6.506   6.750 -0.8499 -0.6820  0.7701
 2804SOL    HW2 8983   7.020   6.363   6.702  1.4589 -0.6071 -0.5722
 2805SOL     OW 8984   3.936   5.544   7.120  0.0892  0.6302  0.6283
 2805SOL    HW1 8985   3.968   5.454   7.132 -1.7773 -0.2921 -0.8272
 2805SOL    HW2 8986   3.862   5.552   7.180  1.0926  1.7359  1.7906
 2806SOL     OW 8987   6.928   3.438   4.813  0.1778 -0.2330 -0.4144
 2806SOL    HW1 8988   6.979   3.357   4.822  0.0869 -0.4083 -1.3806
 2806SOL    HW2 8989   6.869   3.421   4.739 -0.7037  0.2702  0.1644
 2807SOL     OW 8990   2.534   3.088   3.354  0.0733 -0.7937 -0.4173
 2807SOL    HW1 8991   2.603   3.151   3.332  0.7426 -1.9236 -1.7509
 2807SOL    HW2 8992   2.531   3.088   3.449  0.1030  1.1775 -0.3790
 2808SOL     OW 8993   4.081   0.085   6.626  0.3770 -0.1644  0.3725
 2808SOL    HW1 8994   4.164   0.053   6.591 -0.3233 -2.5323  0.7573
 2808SOL    HW2 8995   4.087   0.068   6.720  0.0961  1.2161  0.6651
 2809SOL     OW 8996   3.870   6.677   2.005 -0.0234  0.4470 -0.2114
 2809SOL    HW1 8997   3.952   6.725   1.993 -1.3153  2.5747 -1.3747
 2809SOL    HW2 8998   3.836   6.709   2.089 -0.5618  1.0983 -0.6645
 2810SOL     OW 8999   6.208   5.416   7.417  0.0293  0.0168  0.1624
 2810SOL    HW1 9000   6.153   5.491   7.392 -1.0871 -0.5971  0.6712
 2810SOL    HW2 9001   6.181   5.346   7.357 -0.2776 -0.4963  0.8838
 2811SOL     OW 9002   5.874   7.005   5.654  0.6200 -0.0094 -0.0346
 2811SOL    HW1 9003   5.820   6.971   5.725 -0.3011 -1.6559 -1.4748
 2811SOL    HW2 9004   5.832   6.974   5.574  2.2164  0.9110 -1.2847
 2812SOL     OW 9005   3.118   3.432   4.658 -0.0263  0.6241 -0.2126
 2812SOL    HW1 9006   3.055   3.389   4.600  1.2854 -2.6637  0.6058
 2812SOL    HW2 9007   3.173   3.485   4.600 -2.0708  1.7915 -1.1935
 2813SOL     OW 9008   6.493   0.483   3.812 -0.3657 -0.1462  0.0259
 2813SOL    HW1 9009   6.567   0.511   3.867  1.5379 -1.2854 -1.8182
 2813SOL    HW2 9010   6.484   0.390   3.831 -1.4997  0.0199  0.3657
 2814SOL     OW 9011   4.710   6.707   6.651 -0.5141  0.4621  0.2430
 2814SOL    HW1 9012   4.756   6.730   6.732  1.0358  0.4631 -0.5951
 2814SOL    HW2 9013   4.678   6.618   6.666 -0.3972  0.5281  0.9196
 2815SOL     OW 9014   2.454   2.038   3.581  0.1629  0.1748 -0.0052
 2815SOL    HW1 9015   2.389   2.056   3.650  1.0342 -1.1693  1.2278
 2815SOL    HW2 9016   2.432   1.951   3.549  0.2739  0.4532 -0.8589
 2816SOL     OW 9017   0.357   5.912   3.267 -0.1879  0.3082 -0.3468
 2816SOL    HW1 9018   0.395   5.834   3.228  1.6591  0.9998 -0.0417
 2816SOL    HW2 9019   0.289   5.939   3.206  0.0946 -0.7524 -1.1482
 2817SOL     OW 9020   3.544   5.912   3.911 -0.1910  0.4790  0.4599
 2817SOL    HW1 9021   3.460   5.873   3.935 -1.7332  2.2188 -1.6313
 2817SOL    HW2 9022   3.598   5.904   3.989 -1.7224 -2.1326  1.3711
 2818SOL     OW 9023   5.976   0.398   5.946 -0.1912  0.4963 -0.9684
 2818SOL    HW1 9024   5.955   0.426   5.857 -2.6393  1.8213 -0.0738
 2818SOL    HW2 9025   6.007   0.477   5.989 -3.1477  1.0399  0.4373
 2819SOL     OW 9026   7.018   0.458   1.053  0.3315  0.0292  0.3752
 2819SOL    HW1 9027   6.925   0.449   1.073  0.2209  0.3578  0.0075
 2819SOL    HW2 9028   7.040   0.547   1.079  1.2339 -0.9096  3.2005
 2820SOL     OW 9029   5.265   2.016   3.842 -0.2027  0.1072  0.1303
 2820SOL    HW1 9030   5.209   1.984   3.912 -0.4543 -0.2638 -0.2376
 2820SOL    HW2 9031   5.317   2.086   3.882 -0.6631  0.1975  0.5661
 2821SOL     OW 9032   7.380   1.104   5.503 -0.8730  0.2907 -0.0220
 2821SOL    HW1 9033   7.384   1.038   5.572 -0.8305 -1.2631 -1.4520
 2821SOL    HW2 9034   7.291   1.137   5.507 -1.7059 -1.6753 -0.8364
 2822SOL     OW 9035   2.859   1.632   0.863  0.0170 -0.1722 -0.1050
 2822SOL    HW1 9036   2.934   1.576   0.881  0.2534 -0.1618 -1.0157
 2822SOL    HW2 9037   2.783   1.580   0.891  0.3314 -0.3343  0.4598
 2823SOL     OW 9038   4.285   5.607   6.079 -0.2803  0.8151 -0.2558
 2823SOL    HW1 9039   4.192   5.604   6.103 -0.0151  0.9859  0.8630
 2823SOL    HW2 9040   4.327   5.649   6.154  1.0002 -1.1557  0.2077
 2824SOL     OW 9041   4.818   3.358   1.570 -0.3448 -0.3424  0.1665
 2824SOL    HW1 9042   4.900   3.328   1.610  0.4786 -0.0220 -1.2136
 2824SOL    HW2 9043   4.814   3.452   1.591 -0.8713 -0.5488  1.0506
 2825SOL     OW 9044   0.245   3.017   1.032 -0.1013 -0.0794 -0.4450
 2825SOL    HW1 9045   0.168   2.984   0.985 -0.7520  0.6072  0.1291
 2825SOL    HW2 9046   0.260   2.953   1.101  0.2879 -0.5931 -0.9921
 2826SOL     OW 9047   1.611   4.852   2.330  0.3514  0.0282  0.1443
 2826SOL    HW1 9048   1.522   4.824   2.353  0.6417  0.1198  1.4491
 2826SOL    HW2 9049   1.646   4.780   2.279 -0.4161 -0.0847 -0.2394
 2827SOL     OW 9050   7.043   4.487   2.691 -0.0931  0.4552  0.3878
 2827SOL    HW1 9051   7.032   4.429   2.615  0.5387  1.5168 -0.5405
 2827SOL    HW2 9052   7.077   4.568   2.655  0.4057  0.9317  1.8474
 2828SOL     OW 9053   5.822   3.478   2.815 -0.1302 -0.1967 -0.0572
 2828SOL    HW1 9054   5.823   3.521   2.901 -2.3164  1.4515 -0.7395
 2828SOL    HW2 9055   5.734   3.440   2.809 -0.2774  0.3493 -1.8314
 2829SOL     OW 9056   1.791   3.974   3.719 -0.5851 -0.1174 -0.2623
 2829SOL    HW1 9057   1.827   3.932   3.641 -1.2237 -0.5034 -0.3589
 2829SOL    HW2 9058   1.697   3.957   3.714 -0.4711 -1.4468  1.3476
 2830SOL     OW 9059   4.115   4.396   0.638  0.4379  0.0275  0.7050
 2830SOL    HW1 9060   4.128   4.340   0.562 -0.4444  0.2381  0.3882
 2830SOL    HW2 9061   4.180   4.466   0.628  1.0814 -0.5573  0.7439
 2831SOL     OW 9062   1.907   4.943   0.080 -0.1042 -0.6767 -0.2802
 2831SOL    HW1 9063   1.976   4.879   0.061  0.8344 -0.1204  1.0511
 2831SOL    HW2 9064   1.923   5.014   0.019 -0.0962 -0.9829 -0.6361
 2832SOL     OW 9065   6.508   0.460   1.774  0.1836  0.4722 -0.3412
 2832SOL    HW1 9066   6.469   0.532   1.725  0.6537  1.0624  0.1375
 2832SOL    HW2 9067   6.434   0.410   1.808 -0.2327 -1.0543 -3.1526
 2833SOL     OW 9068   0.166   0.013   0.875 -0.3347  0.2732 -0.0089
 2833SOL    HW1 9069   0.141  -0.047   0.804  0.0406  0.1622 -0.0465
 2833SOL    HW2 9070   0.213  -0.042   0.937  2.2780  0.9729 -1.2154
 2834SOL     OW 9071   6.759   0.101   6.936  0.5219  0.0733  0.0772
 2834SOL    HW1 9072   6.678   0.054   6.955  1.2082 -2.6834 -2.8729
 2834SOL    HW2 9073   6.734   0.168   6.872  0.4542 -0.4720 -0.4795
 2835SOL     OW 9074   0.250   0.442   4.215  0.9132  0.0270 -0.1573
 2835SOL    HW1 9075   0.333   0.434   4.261  1.1616  0.6512 -0.4881
 2835SOL    HW2 9076   0.246   0.364   4.159  1.2141 -0.0699 -0.0449
 2836SOL     OW 9077   5.501   5.844   6.356  0.0418  0.3728  0.5394
 2836SOL    HW1 9078   5.425   5.901   6.342  1.3768  1.9769 -0.5938
 2836SOL    HW2 9079   5.544   5.881   6.433  0.8531  0.8608 -0.1316
 2837SOL     OW 9080   5.523   7.311   2.488 -0.7557 -0.2574  1.0117
 2837SOL    HW1 9081   5.530   7.254   2.411  0.4706 -1.4890  1.9809
 2837SOL    HW2 9082   5.510   7.399   2.451 -0.7689 -0.8900 -0.5856
 2838SOL     OW 9083   3.340   4.399   5.112 -0.5580  0.1757 -0.2018
 2838SOL    HW1 9084   3.330   4.354   5.196 -0.7573 -0.4150 -0.5336
 2838SOL    HW2 9085   3.432   4.384   5.088 -0.6988 -0.2979 -0.4473
 2839SOL     OW 9086   0.298   0.250   1.156  0.0610 -0.3104  0.0507
 2839SOL    HW1 9087   0.207   0.252   1.126  0.6318  0.0670 -1.7917
 2839SOL    HW2 9088   0.315   0.339   1.187  0.1659 -0.0191 -0.8167
 2840SOL     OW 9089   3.321   4.733   1.022 -0.0457  0.5890  0.0356
 2840SOL    HW1 9090   3.241   4.735   0.969 -0.3844  1.6385  0.5541
 2840SOL    HW2 9091   3.364   4.650   0.999 -0.5360  0.6969 -1.3508
 2841SOL     OW 9092   2.331   6.802   7.070  1.0181  0.2747  0.4706
 2841SOL    HW1 9093   2.287   6.831   6.990  0.3550 -0.7071  0.4713
 2841SOL    HW2 9094   2.309   6.870   7.134 -0.0872  0.0745  0.3319
 2842SOL     OW 9095   0.911   5.119   6.160  0.0183  0.1751 -0.0656
 2842SOL    HW1 9096   0.995   5.089   6.195  0.3847  0.4665 -0.6785
 2842SOL    HW2 9097   0.922   5.116   6.065 -0.9377 -0.5270 -0.1714
 2843SOL     OW 9098   1.342   0.366   5.781 -0.2088 -0.6129 -0.9310
 2843SOL    HW1 9099   1.295   0.448   5.800  1.6829  0.2306  0.3874
 2843SOL    HW2 9100   1.321   0.309   5.854  1.9249  0.3112  0.4780
 2844SOL     OW 9101   4.425   4.021   0.602 -0.4799 -0.0502  0.2563
 2844SOL    HW1 9102   4.449   4.105   0.642  0.5267  0.1510 -0.7029
 2844SOL    HW2 9103   4.461   3.955   0.662  0.5258  0.2383 -0.0093
 2845SOL     OW 9104   2.424   5.104   1.246  0.1272  0.4888  0.3524
 2845SOL    HW1 9105   2.378   5.122   1.164 -0.5263  0.6197  0.7452
 2845SOL    HW2 9106   2.431   5.189   1.289 -0.7815  0.2085  1.0761
 2846SOL     OW 9107   3.129   1.444   4.375  0.2964  0.0030 -0.2745
 2846SOL    HW1 9108   3.119   1.353   4.403  0.6686  0.4777  1.5075
 2846SOL    HW2 9109   3.206   1.443   4.317 -0.4505 -0.9997 -1.2881
 2847SOL     OW 9110   4.630   7.075   7.086  0.1554 -0.6812  0.0382
 2847SOL    HW1 9111   4.670   7.079   7.172 -1.0480 -0.3748  0.6080
 2847SOL    HW2 9112   4.581   6.993   7.085  0.1034 -0.6503 -0.3278
 2848SOL     OW 9113   7.321   6.352   6.919 -0.1226  0.9733  0.2989
 2848SOL    HW1 9114   7.244   6.401   6.949  0.5405  0.6889  2.6751
 2848SOL    HW2 9115   7.358   6.407   6.850 -0.2659  3.1411  1.8102
 2849SOL     OW 9116   4.303   4.172   0.082  0.6721 -0.4724 -0.7054
 2849SOL    HW1 9117   4.248   4.213   0.015  0.1198 -1.7127 -1.0566
 2849SOL    HW2 9118   4.240   4.132   0.142  1.1820 -0.4340 -0.1479
 2850SOL     OW 9119   5.363   2.696   6.643 -0.4315  0.8211  0.5118
 2850SOL    HW1 9120   5.325   2.725   6.560 -0.8461  0.5473  0.6045
 2850SOL    HW2 9121   5.291   2.654   6.690  0.3522 -1.3093 -0.0578
 2851SOL     OW 9122   6.923   0.425   2.027 -0.0744 -0.4306 -0.1366
 2851SOL    HW1 9123   6.832   0.427   1.997  0.0267  0.9476 -0.4242
 2851SOL    HW2 9124   6.938   0.334   2.052 -0.3118 -1.6639 -3.8407
 2852SOL     OW 9125   0.735   5.457   1.060 -0.3172  0.3664  0.0720
 2852SOL    HW1 9126   0.723   5.362   1.061 -2.2308  0.5626  0.5481
 2852SOL    HW2 9127   0.727   5.481   0.967  0.0317  0.0738 -0.0334
 2853SOL     OW 9128   6.894   7.321   1.843 -0.5396  0.0243  0.5785
 2853SOL    HW1 9129   6.980   7.311   1.885  0.4092  1.7584 -0.7928
 2853SOL    HW2 9130   6.863   7.232   1.831  1.3778 -0.6899  0.5451
 2854SOL     OW 9131   2.791   3.016   4.394  0.2100 -0.0258  0.1793
 2854SOL    HW1 9132   2.791   2.921   4.378 -1.7280  0.2059 -1.6100
 2854SOL    HW2 9133   2.883   3.042   4.384  0.4919 -1.4307 -1.1866
 2855SOL     OW 9134   4.894   0.786   1.185 -0.0825  0.1570 -0.6895
 2855SOL    HW1 9135   4.815   0.831   1.214  1.0534  0.5216  2.2422
 2855SOL    HW2 9136   4.863   0.702   1.150 -1.7391 -0.3185  1.6829
 2856SOL     OW 9137   3.672   0.491   4.887  0.1154  0.5243  0.2263
 2856SOL    HW1 9138   3.763   0.519   4.882  0.2139  0.5579  1.7564
 2856SOL    HW2 9139   3.634   0.545   4.956 -0.5412 -0.8435  0.9647
 2857SOL     OW 9140   5.275   3.428   0.029 -0.1100 -0.2407  0.0222
 2857SOL    HW1 9141   5.348   3.453  -0.027 -0.0793 -0.9462 -0.2572
 2857SOL    HW2 9142   5.254   3.508   0.078  2.1497 -0.5592  1.6159
 2858SOL     OW 9143   0.014   0.614   2.785 -0.0188 -0.4013  0.0145
 2858SOL    HW1 9144  -0.018   0.601   2.875 -1.3585 -1.3400 -0.5695
 2858SOL    HW2 9145  -0.037   0.688   2.752 -1.1052 -1.4039 -0.6545
 2859SOL     OW 9146   2.766   1.976   1.371 -0.1065 -0.2032  0.0771
 2859SOL    HW1 9147   2.741   2.004   1.459 -2.2298  1.1395 -0.8587
 2859SOL    HW2 9148   2.783   1.882   1.379 -0.4298 -0.1391  1.8658
 2860SOL     OW 9149   5.773   0.406   5.479 -0.1991  0.6115 -0.2964
 2860SOL    HW1 9150   5.686   0.445   5.471 -0.7492 -0.2795  0.8886
 2860SOL    HW2 9151   5.756   0.319   5.516  1.1577  0.1942 -0.6033
 2861SOL     OW 9152   2.045   6.233   2.251 -0.0548 -0.3633 -0.4980
 2861SOL    HW1 9153   2.017   6.324   2.257  0.4391 -0.1783 -0.9572
 2861SOL    HW2 9154   1.964   6.184   2.235 -0.4577 -0.1245  0.7330
 2862SOL     OW 9155   2.362   6.133   1.198 -0.3445  0.0275  0.2794
 2862SOL    HW1 9156   2.308   6.113   1.274  0.6872 -1.0243  0.7620
 2862SOL    HW2 9157   2.360   6.053   1.145 -1.4797  0.9083 -1.1067
 2863SOL     OW 9158   5.748   7.202   1.190  0.1751  0.1971  0.2128
 2863SOL    HW1 9159   5.791   7.186   1.107 -1.3017 -0.4465 -0.4601
 2863SOL    HW2 9160   5.773   7.291   1.214  0.5302  0.4265 -0.9760
 2864SOL     OW 9161   4.063   4.740   2.980  0.3236 -0.2406  0.4158
 2864SOL    HW1 9162   3.997   4.679   2.949 -1.4175  1.3553  0.7774
 2864SOL    HW2 9163   4.145   4.709   2.942 -0.9603 -1.0834 -1.8457
 2865SOL     OW 9164   3.436   6.597   3.840  0.4136 -0.0972  0.4686
 2865SOL    HW1 9165   3.526   6.631   3.842  0.3189  0.1514  2.1496
 2865SOL    HW2 9166   3.390   6.648   3.907 -0.8310 -0.6540  0.0629
 2866SOL     OW 9167   5.977   2.707   0.424  0.0145 -0.2596  0.4796
 2866SOL    HW1 9168   6.049   2.654   0.457  0.3348  0.6906  1.3372
 2866SOL    HW2 9169   6.016   2.792   0.404 -1.0001  0.5392  1.7359
 2867SOL     OW 9170   1.836   6.503   5.550 -0.4076 -0.1972 -0.1365
 2867SOL    HW1 9171   1.780   6.428   5.530 -0.1089 -0.4219 -0.1282
 2867SOL    HW2 9172   1.838   6.554   5.470 -0.8164 -0.0643 -0.0662
 2868SOL     OW 9173   4.460   4.612   6.526  0.2403 -0.2381  0.3683
 2868SOL    HW1 9174   4.449   4.707   6.514 -1.5175 -0.4210  0.2256
 2868SOL    HW2 9175   4.378   4.575   6.494  0.4547 -1.7249  1.4668
 2869SOL     OW 9176   5.265   2.157   4.164 -0.1926  0.1808  0.0716
 2869SOL    HW1 9177   5.182   2.134   4.122  0.0140 -0.2281 -0.1214
 2869SOL    HW2 9178   5.311   2.073   4.172  0.6809  0.5551 -0.8757
 2870SOL     OW 9179   4.760   5.684   5.105 -0.6083  0.3805 -0.0077
 2870SOL    HW1 9180   4.673   5.692   5.066 -0.2189 -0.3409 -1.0758
 2870SOL    HW2 9181   4.749   5.714   5.195 -1.7169  1.3319 -0.4382
 2871SOL     OW 9182   1.585   7.326   1.038 -0.3288  0.0290  0.6274
 2871SOL    HW1 9183   1.655   7.360   1.093 -0.2149 -0.5292  0.8315
 2871SOL    HW2 9184   1.552   7.250   1.085 -0.4112 -0.2938  0.0540
 2872SOL     OW 9185   1.816   3.922   4.981 -0.3576  0.2223  0.7299
 2872SOL    HW1 9186   1.868   4.002   4.978 -2.4777  1.6688 -1.3693
 2872SOL    HW2 9187   1.811   3.900   5.074  1.4525  1.6732  1.2348
 2873SOL     OW 9188   0.470   1.771   0.003  0.1143 -1.2169 -0.2671
 2873SOL    HW1 9189   0.534   1.802   0.068 -0.0799  1.0320 -1.0759
 2873SOL    HW2 9190   0.502   1.804  -0.080 -2.2562  0.3605 -0.6595
 2874SOL     OW 9191   0.924   4.844   5.834  0.5742 -0.0893 -0.4907
 2874SOL    HW1 9192   1.004   4.792   5.845  1.3492  1.1171 -0.2353
 2874SOL    HW2 9193   0.952   4.934   5.851 -1.1375  0.2118  0.9442
 2875SOL     OW 9194   4.619   3.095   4.034 -0.1063 -0.2281 -0.1024
 2875SOL    HW1 9195   4.539   3.101   3.980 -0.5283 -1.3983  0.3648
 2875SOL    HW2 9196   4.588   3.110   4.123  0.4438  0.7555 -0.0690
 2876SOL     OW 9197   5.740   4.181   6.842 -0.0892  0.0356  0.6623
 2876SOL    HW1 9198   5.760   4.179   6.749  1.6515  1.2290  0.9591
 2876SOL    HW2 9199   5.648   4.208   6.846 -0.0948  0.2979 -0.7009
 2877SOL     OW 9200   2.209   0.472   4.187 -0.1077 -0.5930 -0.2974
 2877SOL    HW1 9201   2.162   0.519   4.256  1.6621 -1.2292  1.4437
 2877SOL    HW2 9202   2.158   0.393   4.172 -0.4006 -0.5682  0.4948
 2878SOL     OW 9203   0.051   0.160   6.283  0.0365 -0.0795 -0.0012
 2878SOL    HW1 9204   0.080   0.069   6.280  0.0158 -0.0898  0.1171
 2878SOL    HW2 9205   0.130   0.211   6.265 -0.3629 -0.1793 -2.3570
 2879SOL     OW 9206   2.933   1.281   2.373  0.3945  0.1731 -0.1093
 2879SOL    HW1 9207   2.974   1.367   2.381 -0.4681  0.6564 -0.7203
 2879SOL    HW2 9208   2.914   1.254   2.463 -0.0243  0.9706  0.0502
 2880SOL     OW 9209   0.619   6.789   7.223 -0.1009 -0.1009  0.9350
 2880SOL    HW1 9210   0.532   6.762   7.195 -0.3498  0.2694  1.3457
 2880SOL    HW2 9211   0.663   6.816   7.142 -1.0612  1.6605  0.9646
 2881SOL     OW 9212   1.458   5.296   0.822  0.8492  0.1368 -0.5047
 2881SOL    HW1 9213   1.493   5.218   0.865 -0.9787 -0.4809 -0.0530
 2881SOL    HW2 9214   1.405   5.339   0.890 -1.8884 -0.7259 -1.9542
 2882SOL     OW 9215   0.821   1.070   7.415  0.3031  0.7531 -0.0881
 2882SOL    HW1 9216   0.790   1.045   7.328  1.4043  0.5401 -0.4441
 2882SOL    HW2 9217   0.830   0.987   7.462  0.4337  0.7966 -0.0337
 2883SOL     OW 9218   0.928   5.707   3.799 -0.5480  1.2766  0.2337
 2883SOL    HW1 9219   0.950   5.628   3.849 -0.4941 -0.1967 -1.9578
 2883SOL    HW2 9220   0.832   5.713   3.804 -0.8357 -0.4803 -1.6067
 2884SOL     OW 9221   4.517   1.264   3.638  0.4399 -0.7842 -0.2535
 2884SOL    HW1 9222   4.569   1.187   3.662  2.2881  0.4347 -0.1571
 2884SOL    HW2 9223   4.577   1.319   3.589 -0.3225  1.3303  1.0538
 2885SOL     OW 9224   6.206   7.256   0.693 -0.2699  0.6591  0.4133
 2885SOL    HW1 9225   6.204   7.164   0.669 -2.3783  0.8790 -0.5280
 2885SOL    HW2 9226   6.249   7.300   0.619 -2.1181  0.7365 -0.6854
 2886SOL     OW 9227   3.322   5.083   6.454 -0.2515 -0.1673  0.5213
 2886SOL    HW1 9228   3.250   5.141   6.479 -1.1046 -0.1249 -1.8261
 2886SOL    HW2 9229   3.281   4.999   6.436  0.2270 -0.1026 -1.0058
 2887SOL     OW 9230   6.991   4.879   4.423 -0.7231  0.1381  0.3300
 2887SOL    HW1 9231   6.926   4.842   4.483 -1.3621  2.8676  1.4763
 2887SOL    HW2 9232   6.962   4.853   4.336 -1.3769 -1.5697  1.0291
 2888SOL     OW 9233   4.950   0.242   7.193 -0.3938 -0.1893  0.3498
 2888SOL    HW1 9234   4.893   0.317   7.211  0.1539 -0.0461  1.6442
 2888SOL    HW2 9235   4.924   0.177   7.258 -0.5556 -0.9528 -0.4732
 2889SOL     OW 9236   0.510   2.808   4.356  0.1241 -0.1416  0.3693
 2889SOL    HW1 9237   0.548   2.885   4.399  0.1295  0.1824 -0.2124
 2889SOL    HW2 9238   0.478   2.840   4.272 -1.6066 -0.3724  0.9092
 2890SOL     OW 9239   6.973   3.767   2.679  0.2530  0.1766 -0.6573
 2890SOL    HW1 9240   7.035   3.702   2.713 -0.6707 -0.4141 -0.0528
 2890SOL    HW2 9241   6.993   3.847   2.726  0.6601  0.0371 -0.5872
 2891SOL     OW 9242   6.529   3.277   5.493 -0.3077  0.0352  0.4015
 2891SOL    HW1 9243   6.497   3.192   5.464  0.8124 -0.5376  0.8093
 2891SOL    HW2 9244   6.612   3.288   5.447 -0.3064  0.7889  0.5714
 2892SOL     OW 9245   0.999   5.307   7.269  0.2214  0.1108 -0.2918
 2892SOL    HW1 9246   0.991   5.302   7.174 -0.4995 -0.9094 -0.2004
 2892SOL    HW2 9247   0.956   5.227   7.300 -2.6010  1.9926  1.0274
 2893SOL     OW 9248   3.616   2.661   5.801 -0.2252 -0.3787  0.6329
 2893SOL    HW1 9249   3.699   2.706   5.813 -0.3662  0.0605  0.0378
 2893SOL    HW2 9250   3.549   2.728   5.818 -0.4335 -0.1622 -0.8818
 2894SOL     OW 9251   1.314   5.712   6.058  0.3910 -0.4248 -0.7624
 2894SOL    HW1 9252   1.293   5.621   6.036 -0.3643  0.1236 -2.4741
 2894SOL    HW2 9253   1.409   5.718   6.048  0.2516 -0.6202 -2.4122
 2895SOL     OW 9254   1.202   0.710   4.958 -0.3443 -0.7989 -0.2459
 2895SOL    HW1 9255   1.175   0.781   4.901  0.9164 -1.4806 -1.7997
 2895SOL    HW2 9256   1.288   0.736   4.991  0.7212 -2.0730 -1.8453
 2896SOL     OW 9257   0.432   4.291   2.716 -0.3892  0.0039  0.5987
 2896SOL    HW1 9258   0.487   4.256   2.786 -3.0535 -1.5631  2.0583
 2896SOL    HW2 9259   0.345   4.296   2.754 -1.7399  0.2707 -2.2678
 2897SOL     OW 9260   7.176   7.339   1.751 -0.3840 -0.3491 -0.1182
 2897SOL    HW1 9261   7.096   7.377   1.715 -1.3929 -0.1511  2.1768
 2897SOL    HW2 9262   7.210   7.405   1.811 -0.3932 -1.7478  1.5025
 2898SOL     OW 9263   3.027   3.894   6.871  0.2099 -0.0176  0.3020
 2898SOL    HW1 9264   3.077   3.876   6.950  1.4432  0.0767 -0.4345
 2898SOL    HW2 9265   3.047   3.985   6.849 -1.7557  0.6402  1.0002
 2899SOL     OW 9266   5.364   6.570   6.936 -0.7718  0.4148  0.5960
 2899SOL    HW1 9267   5.296   6.527   6.885  0.2033 -1.0953  0.4780
 2899SOL    HW2 9268   5.388   6.648   6.885 -1.3508  0.1299 -0.1166
 2900SOL     OW 9269   1.026   4.003   0.188  0.0456  0.2726 -1.2537
 2900SOL    HW1 9270   0.950   3.979   0.135  0.5741 -1.6142 -1.2599
 2900SOL    HW2 9271   1.092   3.938   0.165  0.6087 -0.0427  1.0027
 2901SOL     OW 9272   0.919   4.723   2.135 -0.3492 -0.2505  0.0757
 2901SOL    HW1 9273   0.980   4.793   2.113 -0.9358  1.3960  3.1342
 2901SOL    HW2 9274   0.850   4.729   2.069  2.3798 -1.9636 -3.2781
 2902SOL     OW 9275   3.708   2.754   4.818 -0.0401  0.2313 -0.1884
 2902SOL    HW1 9276   3.657   2.676   4.799 -0.2582  0.2342  0.3787
 2902SOL    HW2 9277   3.799   2.725   4.817 -0.1928 -0.7542  3.1001
 2903SOL     OW 9278   0.470   6.824   2.254  0.2117 -0.0329 -0.3371
 2903SOL    HW1 9279   0.540   6.792   2.196 -0.1750  1.7188 -1.8926
 2903SOL    HW2 9280   0.406   6.753   2.256  2.0052 -1.7147  1.1858
 2904SOL     OW 9281   1.162   2.247   6.615  0.1031 -0.1522 -0.1735
 2904SOL    HW1 9282   1.079   2.294   6.622 -1.1715 -2.3680  0.7049
 2904SOL    HW2 9283   1.197   2.274   6.530 -0.8513  1.8036 -0.0159
 2905SOL     OW 9284   6.457   3.173   6.501 -1.0895 -0.3647 -0.4358
 2905SOL    HW1 9285   6.467   3.182   6.406 -0.5609  0.0015 -0.3496
 2905SOL    HW2 9286   6.545   3.183   6.536 -1.1952 -1.0541  0.0604
 2906SOL     OW 9287   4.255   2.665   2.078 -0.2548  0.0761 -0.0979
 2906SOL    HW1 9288   4.227   2.589   2.026 -1.6421  0.7127 -0.3352
 2906SOL    HW2 9289   4.289   2.627   2.159 -0.0554 -0.8394 -0.5968
 2907SOL     OW 9290   6.886   3.066   7.234 -0.1588 -0.5349  0.2402
 2907SOL    HW1 9291   6.881   2.989   7.291  0.5102  0.1566  1.2568
 2907SOL    HW2 9292   6.835   3.133   7.279 -0.4766 -0.2763 -0.4865
 2908SOL     OW 9293   6.124   1.462   1.890  0.3819  0.0491 -1.1162
 2908SOL    HW1 9294   6.134   1.371   1.917  1.0113  0.3894 -0.1339
 2908SOL    HW2 9295   6.034   1.485   1.915 -0.5755 -0.9317 -3.4234
 2909SOL     OW 9296   6.171   5.174   1.564 -0.7016  0.1981 -0.1001
 2909SOL    HW1 9297   6.117   5.249   1.587 -1.7173 -0.3892 -0.5006
 2909SOL    HW2 9298   6.153   5.158   1.472 -0.6509 -0.6480  0.0280
 2910SOL     OW 9299   1.502   4.658   3.388  0.1242  0.3863  0.2367
 2910SOL    HW1 9300   1.518   4.746   3.354 -0.9424 -0.2318 -2.1288
 2910SOL    HW2 9301   1.421   4.630   3.344 -0.7076 -1.0237  2.4881
 2911SOL     OW 9302   0.972   2.687   6.845 -0.1645 -0.1316 -0.2249
 2911SOL    HW1 9303   0.946   2.598   6.867  1.9419 -0.3001  2.0718
 2911SOL    HW2 9304   1.029   2.713   6.917 -0.9959  3.2427 -0.6495
 2912SOL     OW 9305   5.193   6.517   2.490 -0.4927 -0.0210 -0.0120
 2912SOL    HW1 9306   5.141   6.468   2.554  1.1503 -0.3662  1.1366
 2912SOL    HW2 9307   5.233   6.450   2.435 -0.2533  0.1515 -0.0511
 2913SOL     OW 9308   5.632   3.823   1.658 -0.1204  0.1729 -0.4331
 2913SOL    HW1 9309   5.561   3.866   1.610 -0.9694 -1.0410 -0.3018
 2913SOL    HW2 9310   5.599   3.735   1.675  0.5595  0.2653  1.5225
 2914SOL     OW 9311   1.358   6.653   1.454 -0.1227 -0.0804 -0.0891
 2914SOL    HW1 9312   1.379   6.734   1.409 -1.3552  0.2297 -0.1380
 2914SOL    HW2 9313   1.349   6.588   1.384 -1.0023  0.1730 -0.2293
 2915SOL     OW 9314   7.042   3.981   2.856  0.0736  0.3365 -0.0719
 2915SOL    HW1 9315   7.112   4.010   2.798 -0.3509  0.6963 -0.4162
 2915SOL    HW2 9316   7.085   3.962   2.939  0.3197  2.3247  0.2950
 2916SOL     OW 9317   6.682   3.596   6.498 -0.6622 -0.2426 -0.0684
 2916SOL    HW1 9318   6.622   3.546   6.443 -1.6691 -0.4529  1.1705
 2916SOL    HW2 9319   6.635   3.608   6.580  1.5017 -1.6621  1.5180
 2917SOL     OW 9320   6.768   6.143   4.996  0.7666 -0.1701  0.0499
 2917SOL    HW1 9321   6.718   6.075   5.042  0.5702 -1.0156 -1.3753
 2917SOL    HW2 9322   6.842   6.161   5.054 -0.0329 -0.4231  1.2031
 2918SOL     OW 9323   4.080   1.413   1.509  0.2875  0.9290 -0.2792
 2918SOL    HW1 9324   3.986   1.402   1.497  0.6012 -1.6161 -0.9519
 2918SOL    HW2 9325   4.115   1.429   1.421  0.6605  0.0319 -0.3054
 2919SOL     OW 9326   2.037   3.341   1.055 -0.2076 -0.4357  0.2646
 2919SOL    HW1 9327   1.967   3.284   1.087 -0.0128 -1.6803 -1.3572
 2919SOL    HW2 9328   2.002   3.429   1.064 -1.2951 -0.9243  1.0745
 2920SOL     OW 9329   7.199   0.753   1.794 -0.6441  0.6272  0.0829
 2920SOL    HW1 9330   7.161   0.728   1.877  0.5149  0.5158  0.5996
 2920SOL    HW2 9331   7.126   0.788   1.743 -1.2207  1.4763  1.4469
 2921SOL     OW 9332   4.832   6.599   5.123  0.6802 -0.8029 -0.3642
 2921SOL    HW1 9333   4.874   6.609   5.038 -0.0653  0.9769 -0.5621
 2921SOL    HW2 9334   4.901   6.620   5.186  0.4563  0.9690 -0.6545
 2922SOL     OW 9335   6.639   4.938   0.333  0.1483 -0.3688 -0.4039
 2922SOL    HW1 9336   6.716   4.991   0.352 -0.2711  0.2838 -0.5070
 2922SOL    HW2 9337   6.613   4.964   0.245  0.6033 -1.5747 -0.9199
 2923SOL     OW 9338   5.113   1.151   2.599  0.0464  0.0692 -0.2978
 2923SOL    HW1 9339   5.120   1.224   2.537 -0.9401 -1.2875 -2.1011
 2923SOL    HW2 9340   5.203   1.119   2.608  0.2968  0.6889 -0.5265
 2924SOL     OW 9341   1.765   6.510   1.600  0.4543  0.0917  0.4220
 2924SOL    HW1 9342   1.689   6.453   1.604 -0.8888  1.8142  0.6689
 2924SOL    HW2 9343   1.833   6.457   1.558 -0.3958 -1.9773  1.5348
 2925SOL     OW 9344   1.051   3.389   0.999 -0.1082 -0.0865 -0.1963
 2925SOL    HW1 9345   1.062   3.331   1.074 -0.3036  1.9719  1.4914
 2925SOL    HW2 9346   1.010   3.333   0.932 -1.7919 -1.5102  1.8840
 2926SOL     OW 9347   1.074   6.909   0.364 -0.1577 -1.0134 -0.2458
 2926SOL    HW1 9348   1.148   6.947   0.315  0.3064  0.4272  1.4773
 2926SOL    HW2 9349   1.002   6.969   0.347  0.3017  0.1424  1.6619
 2927SOL     OW 9350   5.629   5.572   0.329 -0.3278 -0.0367  0.2013
 2927SOL    HW1 9351   5.644   5.547   0.238 -0.1503  2.4552 -0.5222
 2927SOL    HW2 9352   5.717   5.590   0.363 -0.1167 -3.1293  1.6660
 2928SOL     OW 9353   6.526   7.019   1.578  0.9637  0.5037 -0.3141
 2928SOL    HW1 9354   6.557   7.102   1.616  2.3129  0.0901 -0.4651
 2928SOL    HW2 9355   6.588   7.000   1.508  0.9448 -0.8745  0.0210
 2929SOL     OW 9356   3.290   1.094   3.310  0.8310  0.5857  1.5033
 2929SOL    HW1 9357   3.344   1.033   3.258 -0.2795  0.1402  0.8397
 2929SOL    HW2 9358   3.328   1.180   3.293  0.0885  0.5329 -0.6064
 2930SOL     OW 9359   7.373   3.711   5.047  0.1209 -0.5929 -0.2550
 2930SOL    HW1 9360   7.366   3.764   5.127 -0.0556 -0.8698 -0.0861
 2930SOL    HW2 9361   7.292   3.729   5.000  0.5022  0.0669 -0.6841
 2931SOL     OW 9362   4.435   6.861   3.667  0.0549 -0.4593  0.2414
 2931SOL    HW1 9363   4.451   6.937   3.612 -0.9955 -0.6415 -0.3361
 2931SOL    HW2 9364   4.478   6.789   3.622  0.5941 -0.3130  0.5146
 2932SOL     OW 9365   1.850   2.116   4.189  0.8786  0.5612  0.4390
 2932SOL    HW1 9366   1.934   2.159   4.198  0.6890  0.8362  0.9034
 2932SOL    HW2 9367   1.844   2.058   4.265  1.1217 -0.2829 -0.1622
 2933SOL     OW 9368   4.295   7.174   0.970 -0.1696  0.3699 -0.0557
 2933SOL    HW1 9369   4.340   7.158   1.053 -1.3380  0.8995  0.7088
 2933SOL    HW2 9370   4.221   7.113   0.972 -1.2178  1.5960  0.1314
 2934SOL     OW 9371   0.961   0.137   7.290  0.3993  0.1047 -0.0778
 2934SOL    HW1 9372   0.917   0.220   7.276  1.2800  0.5845 -0.0578
 2934SOL    HW2 9373   0.917   0.098   7.366  0.3776  0.8179  0.2797
 2935SOL     OW 9374   3.921   4.196   2.134  0.2744 -0.1990 -0.1555
 2935SOL    HW1 9375   3.957   4.280   2.106 -1.3251  0.3897 -0.5328
 2935SOL    HW2 9376   3.894   4.210   2.224 -0.5081 -0.1139 -0.3927
 2936SOL     OW 9377   1.427   2.548   6.878  0.0329  0.0310  0.0332
 2936SOL    HW1 9378   1.445   2.555   6.785  0.6897  1.5873  0.2480
 2936SOL    HW2 9379   1.507   2.578   6.921 -0.6005  0.2864  1.0892
 2937SOL     OW 9380   6.898   5.787   0.792  0.1257  0.4852 -0.0236
 2937SOL    HW1 9381   6.860   5.873   0.772 -0.1094  0.2878 -0.4275
 2937SOL    HW2 9382   6.836   5.747   0.852  0.8262  1.0745  1.1251
 2938SOL     OW 9383   0.451   6.689   1.365 -0.1743  0.3650 -0.5573
 2938SOL    HW1 9384   0.436   6.777   1.331 -1.7325 -0.0929 -1.1682
 2938SOL    HW2 9385   0.445   6.633   1.288 -0.1866 -0.3585 -0.0402
 2939SOL     OW 9386   2.928   5.329   3.182  0.1350 -0.0091 -0.1895
 2939SOL    HW1 9387   2.873   5.388   3.233 -3.5353 -1.8347 -1.6763
 2939SOL    HW2 9388   2.930   5.247   3.233  0.8838 -0.2204 -0.5311
 2940SOL     OW 9389   3.189   2.372   0.114 -0.1994 -0.0459  0.4004
 2940SOL    HW1 9390   3.150   2.309   0.053  0.8033 -0.5793  0.2889
 2940SOL    HW2 9391   3.257   2.322   0.159  1.0948  1.1222 -0.1909
 2941SOL     OW 9392   2.756   3.613   3.524  0.2418  0.6691  0.7276
 2941SOL    HW1 9393   2.673   3.643   3.562 -0.8628 -0.7314 -0.4471
 2941SOL    HW2 9394   2.730   3.568   3.443  2.1329  0.0068  0.4436
 2942SOL     OW 9395   3.126   1.743   2.102 -0.2909 -0.2305 -0.1393
 2942SOL    HW1 9396   3.160   1.830   2.078  0.6801 -0.6978 -0.5082
 2942SOL    HW2 9397   3.038   1.760   2.136 -1.5075  0.5663 -3.3420
 2943SOL     OW 9398   2.605   7.052   5.292  0.0703  1.1852 -0.0940
 2943SOL    HW1 9399   2.560   7.136   5.281 -1.4508  0.7493  2.1991
 2943SOL    HW2 9400   2.540   6.986   5.268  1.0610  0.5941 -1.2949
 2944SOL     OW 9401   3.815   6.395   0.481  0.2867  0.0846 -0.1918
 2944SOL    HW1 9402   3.790   6.358   0.565  1.8503 -1.7483 -0.4622
 2944SOL    HW2 9403   3.847   6.321   0.430 -0.5745  1.1493 -2.4193
 2945SOL     OW 9404   3.909   0.242   1.346  0.1682  0.3538  0.2590
 2945SOL    HW1 9405   3.872   0.299   1.413  0.7480  1.4976 -0.3698
 2945SOL    HW2 9406   3.999   0.273   1.335 -0.5947  1.8935 -2.8046
 2946SOL     OW 9407   0.379   5.708   6.769  0.5670 -0.3689  0.8985
 2946SOL    HW1 9408   0.413   5.663   6.847  2.1664  0.2210  0.5671
 2946SOL    HW2 9409   0.442   5.689   6.700  1.5588  2.6357  0.8276
 2947SOL     OW 9410   3.139   2.343   2.406  0.1464 -0.2168 -0.0043
 2947SOL    HW1 9411   3.180   2.267   2.364 -0.7436 -0.1708 -1.0009
 2947SOL    HW2 9412   3.048   2.317   2.420 -0.2222  0.7240 -0.5519
 2948SOL     OW 9413   6.629   2.122   5.482 -0.2848  0.1160  0.4913
 2948SOL    HW1 9414   6.699   2.107   5.419 -1.4723  0.6263 -0.9982
 2948SOL    HW2 9415   6.551   2.136   5.429 -1.1008  1.8436  2.0391
 2949SOL     OW 9416   2.163   1.188   4.968 -0.2068  0.4971  0.3419
 2949SOL    HW1 9417   2.134   1.221   4.883  1.7792 -0.5691 -0.8183
 2949SOL    HW2 9418   2.143   1.094   4.966  2.3179 -0.0924 -0.1411
 2950SOL     OW 9419   2.505   5.495   3.918  0.4730  0.2087 -0.0275
 2950SOL    HW1 9420   2.417   5.475   3.949  0.6249  0.5432  0.6203
 2950SOL    HW2 9421   2.516   5.588   3.933  0.5067  0.4136 -1.2028
 2951SOL     OW 9422   3.416   7.002   1.734 -0.6945  0.9131 -0.0415
 2951SOL    HW1 9423   3.480   7.042   1.792 -1.8673 -1.2220  3.0187
 2951SOL    HW2 9424   3.460   6.925   1.699 -1.0948  0.1733  1.0215
 2952SOL     OW 9425   4.394   0.046   5.682  0.1055 -0.4071  0.0933
 2952SOL    HW1 9426   4.376  -0.038   5.642  0.2130  0.1612 -1.1961
 2952SOL    HW2 9427   4.376   0.110   5.613  1.1296  0.5583  0.6869
 2953SOL     OW 9428   4.186   2.748   0.317  0.4314 -0.0155 -0.0996
 2953SOL    HW1 9429   4.215   2.837   0.333  0.2921  0.3527 -1.6871
 2953SOL    HW2 9430   4.126   2.728   0.388  0.5755  1.0992  0.3464
 2954SOL     OW 9431   5.465   2.831   0.244  0.5714 -0.3887 -0.3960
 2954SOL    HW1 9432   5.394   2.845   0.307  0.9279 -1.4063  0.2476
 2954SOL    HW2 9433   5.522   2.907   0.257  0.9683 -0.8794  0.9914
 2955SOL     OW 9434   1.318   5.740   2.464 -0.3985 -0.2876 -0.3750
 2955SOL    HW1 9435   1.329   5.678   2.536  2.4335  0.0506 -0.3945
 2955SOL    HW2 9436   1.244   5.706   2.414 -2.0456 -0.8871  2.2862
 2956SOL     OW 9437   6.816   7.325   3.283  0.1211 -0.1146 -0.3626
 2956SOL    HW1 9438   6.765   7.372   3.217 -2.0787  1.4230  2.2144
 2956SOL    HW2 9439   6.835   7.240   3.243 -1.5275  0.5494 -2.7635
 2957SOL     OW 9440   1.232   1.204   0.863 -0.0935 -0.4314  0.6224
 2957SOL    HW1 9441   1.221   1.283   0.917  1.6497 -0.2389  0.7385
 2957SOL    HW2 9442   1.157   1.149   0.886 -1.5250  1.2929  0.3209
 2958SOL     OW 9443   3.674   1.764   1.899 -0.0333  0.2146  0.1858
 2958SOL    HW1 9444   3.590   1.787   1.939 -0.2787  1.9543 -1.1817
 2958SOL    HW2 9445   3.720   1.714   1.966 -1.2993  1.0745  1.7600
 2959SOL     OW 9446   6.986   4.109   0.112 -0.0895 -0.4179  0.0906
 2959SOL    HW1 9447   6.915   4.113   0.048  1.2019 -0.4282 -1.3822
 2959SOL    HW2 9448   7.019   4.198   0.117  0.0916 -0.5010  0.4416
 2960SOL     OW 9449   6.910   2.636   0.421 -0.1729  0.8925 -0.3351
 2960SOL    HW1 9450   6.816   2.622   0.427 -0.1484  0.6854 -0.4249
 2960SOL    HW2 9451   6.931   2.619   0.329 -0.3569  2.8309 -0.7786
 2961SOL     OW 9452   4.345   2.442   3.385  0.0423 -0.2262 -0.3231
 2961SOL    HW1 9453   4.404   2.375   3.417  0.0707  0.6762  1.6810
 2961SOL    HW2 9454   4.391   2.525   3.401  0.2726  0.3390 -3.2790
 2962SOL     OW 9455   0.717   5.640   3.008 -0.3369 -0.2351 -0.0011
 2962SOL    HW1 9456   0.731   5.707   2.941 -3.5988  2.9705  2.1436
 2962SOL    HW2 9457   0.785   5.655   3.073 -1.3083  1.4520  0.6805
 2963SOL     OW 9458   1.196   1.633   4.039 -0.1322 -0.4031  0.4549
 2963SOL    HW1 9459   1.102   1.623   4.030 -0.3922 -0.1829  2.4558
 2963SOL    HW2 9460   1.211   1.641   4.134  1.7117  1.2835  0.0979
 2964SOL     OW 9461   3.158   2.273   6.497 -0.0607 -0.0743 -0.1334
 2964SOL    HW1 9462   3.218   2.237   6.431 -0.1808 -0.0209 -0.2746
 2964SOL    HW2 9463   3.155   2.207   6.566  0.3826  0.0505  0.0095
 2965SOL     OW 9464   0.279   1.512   6.288 -0.1894  0.0260 -0.1452
 2965SOL    HW1 9465   0.195   1.546   6.318 -1.5349 -1.8459 -1.5625
 2965SOL    HW2 9466   0.315   1.583   6.234 -1.8891  0.1194 -1.2635
 2966SOL     OW 9467   5.552   7.211   0.626 -0.0046 -0.0750  0.2432
 2966SOL    HW1 9468   5.571   7.277   0.561  1.5101  0.6286  1.3342
 2966SOL    HW2 9469   5.633   7.162   0.635 -0.4197 -0.6422  1.0570
 2967SOL     OW 9470   6.202   7.036   5.509  0.5202  0.1234 -0.1747
 2967SOL    HW1 9471   6.293   7.046   5.536  0.0254 -0.1382  1.7899
 2967SOL    HW2 9472   6.160   6.992   5.583 -1.0988 -0.2070 -1.2423
 2968SOL     OW 9473   6.604   1.577   3.870  0.0132  0.3878 -0.6460
 2968SOL    HW1 9474   6.692   1.540   3.878 -0.2663 -0.8025 -2.4176
 2968SOL    HW2 9475   6.586   1.576   3.776 -2.3795 -0.6013 -0.2527
 2969SOL     OW 9476   1.377   3.312   3.193  0.1537  0.1331 -0.1951
 2969SOL    HW1 9477   1.404   3.402   3.210 -1.2450  0.2773  1.5603
 2969SOL    HW2 9478   1.424   3.261   3.259 -1.7964  0.0810  1.2297
 2970SOL     OW 9479   0.536   6.536   0.022  0.5612  0.0379 -0.6888
 2970SOL    HW1 9480   0.487   6.472  -0.030  0.2869 -0.1100 -0.2459
 2970SOL    HW2 9481   0.603   6.568  -0.039  2.0094 -2.1213 -0.3597
 2971SOL     OW 9482   2.004   2.659   5.669  0.4826 -0.7468  0.8459
 2971SOL    HW1 9483   1.981   2.752   5.661 -1.3005 -1.1790  0.6013
 2971SOL    HW2 9484   2.099   2.658   5.664  0.5235  1.0419  0.5373
 2972SOL     OW 9485   5.639   2.616   0.239 -0.1837  0.7399 -0.1005
 2972SOL    HW1 9486   5.710   2.678   0.220 -1.3456  1.7328 -1.4539
 2972SOL    HW2 9487   5.562   2.672   0.252 -0.7762 -0.3196  1.2335
 2973SOL     OW 9488   3.022   5.966   3.240  0.4774  0.0407 -0.1136
 2973SOL    HW1 9489   3.048   5.914   3.317  0.0616 -1.6770 -1.0730
 2973SOL    HW2 9490   3.064   6.051   3.254  0.4877 -0.2320  1.9583
 2974SOL     OW 9491   6.916   1.661   5.683 -0.0063  0.3293 -0.2710
 2974SOL    HW1 9492   6.866   1.588   5.645  0.8489 -0.0571 -0.6783
 2974SOL    HW2 9493   6.877   1.739   5.645  0.4212 -0.0227 -1.4691
 2975SOL     OW 9494   3.136   2.965   3.159  0.3821 -0.0753  0.0229
 2975SOL    HW1 9495   3.083   2.888   3.180 -2.3464  1.5244 -0.5678
 2975SOL    HW2 9496   3.206   2.931   3.104 -1.1102 -2.0658 -0.7670
 2976SOL     OW 9497   4.398   6.938   6.072 -0.0961  0.4188 -0.6717
 2976SOL    HW1 9498   4.441   6.901   6.149 -0.9556 -1.8186 -1.2009
 2976SOL    HW2 9499   4.399   7.032   6.087  1.0539  0.1339  1.3672
 2977SOL     OW 9500   4.623   0.068   3.424 -0.5045  0.0078 -0.1194
 2977SOL    HW1 9501   4.599  -0.019   3.458  0.8284 -0.1088  0.5769
 2977SOL    HW2 9502   4.558   0.127   3.461  0.4052 -0.2427  2.0106
 2978SOL     OW 9503   2.469   0.435   7.290  0.4756  0.7618 -1.0196
 2978SOL    HW1 9504   2.440   0.449   7.380  0.4094 -1.4898 -0.6302
 2978SOL    HW2 9505   2.389   0.409   7.243  1.1105 -1.9522 -0.7568
 2979SOL     OW 9506   4.205   2.716   1.346 -0.2033  0.0804 -0.1814
 2979SOL    HW1 9507   4.177   2.708   1.254 -0.7283  0.1047 -0.0253
 2979SOL    HW2 9508   4.151   2.787   1.381  0.1885  0.2521  0.0734
 2980SOL     OW 9509   3.120   1.682   0.439  0.1381 -0.1025  0.0105
 2980SOL    HW1 9510   3.144   1.761   0.487  0.6881 -1.9634  3.1079
 2980SOL    HW2 9511   3.024   1.684   0.434  0.1641  0.8826 -0.2695
 2981SOL     OW 9512   6.753   5.012   2.569  0.4456 -0.1683  0.5219
 2981SOL    HW1 9513   6.811   5.079   2.606 -1.0333  2.1518 -1.0490
 2981SOL    HW2 9514   6.727   5.048   2.484 -1.0277 -2.4611 -0.0927
 2982SOL     OW 9515   0.844   5.754   2.192  0.0957  0.4035  0.1871
 2982SOL    HW1 9516   0.903   5.824   2.221 -2.9708  2.7028  1.3352
 2982SOL    HW2 9517   0.757   5.793   2.193 -1.3905 -2.2956 -2.9893
 2983SOL     OW 9518   1.910   4.189   6.365  0.5744 -0.2782  0.8573
 2983SOL    HW1 9519   1.922   4.104   6.322 -0.8823 -0.0210 -0.1192
 2983SOL    HW2 9520   1.841   4.172   6.430 -1.8435  0.7402 -1.2931
 2984SOL     OW 9521   6.942   3.648   3.953 -0.1860 -0.2159  0.9972
 2984SOL    HW1 9522   6.981   3.686   3.874  0.0965 -0.6577  0.9199
 2984SOL    HW2 9523   6.913   3.561   3.926  0.3697 -0.5690  1.4999
 2985SOL     OW 9524   1.978   5.565   1.981 -0.0236 -0.0472  0.2237
 2985SOL    HW1 9525   1.978   5.597   1.891  0.1575 -0.5198  0.0520
 2985SOL    HW2 9526   1.998   5.642   2.034 -0.1072  0.2280 -0.1437
 2986SOL     OW 9527   0.688   2.862   6.023  0.1335  0.5322  0.2171
 2986SOL    HW1 9528   0.619   2.802   5.993 -0.2755 -0.2057  2.4981
 2986SOL    HW2 9529   0.765   2.836   5.972 -0.2718 -1.3509  0.4755
 2987SOL     OW 9530   5.195   6.929   6.803 -0.2994  0.6121 -0.1478
 2987SOL    HW1 9531   5.225   7.007   6.849 -0.2237  0.8232 -0.5524
 2987SOL    HW2 9532   5.122   6.897   6.855  1.8507 -1.0869  2.0362
 2988SOL     OW 9533   0.680   1.020   1.740 -0.2931 -0.2249 -0.1120
 2988SOL    HW1 9534   0.629   1.094   1.707 -2.0837 -0.6178  1.5466
 2988SOL    HW2 9535   0.767   1.056   1.758 -0.7203  1.1235 -0.6254
 2989SOL     OW 9536   5.861   2.797   1.935 -0.0774 -0.5329 -0.5970
 2989SOL    HW1 9537   5.847   2.886   1.967  0.5971 -0.0564 -1.5699
 2989SOL    HW2 9538   5.775   2.768   1.905 -0.4857 -0.5742  0.5702
 2990SOL     OW 9539   0.225   1.321   6.984  0.1953 -0.1792 -0.1390
 2990SOL    HW1 9540   0.135   1.308   6.956  0.3612  1.6796 -1.7765
 2990SOL    HW2 9541   0.221   1.395   7.045  0.4293 -1.1773  1.1184
 2991SOL     OW 9542   4.216   0.104   2.798 -0.3322  0.2083 -0.4795
 2991SOL    HW1 9543   4.154   0.173   2.774  1.4415  2.6632  1.4576
 2991SOL    HW2 9544   4.208   0.096   2.893 -0.7770 -2.6561 -0.6946
 2992SOL     OW 9545   1.445   1.107   1.035  0.2424  0.6260  0.4544
 2992SOL    HW1 9546   1.504   1.108   1.110  1.0601 -0.4598 -0.1414
 2992SOL    HW2 9547   1.429   1.199   1.015  0.3513  0.9293  1.6881
 2993SOL     OW 9548   4.975   4.622   5.451  0.3468 -0.3530 -0.0560
 2993SOL    HW1 9549   4.997   4.624   5.358  1.0614 -1.8690  0.0387
 2993SOL    HW2 9550   5.053   4.586   5.493  0.3340  1.0822  1.2479
 2994SOL     OW 9551   7.428   4.678   2.447  0.1164 -0.0698  0.1990
 2994SOL    HW1 9552   7.400   4.712   2.362  0.1219 -0.6816 -0.0552
 2994SOL    HW2 9553   7.435   4.755   2.503 -0.0037  0.3255 -0.3238
 2995SOL     OW 9554   0.273   7.227   2.723 -0.2287  0.0722  0.2870
 2995SOL    HW1 9555   0.215   7.290   2.766 -0.1200  0.5059 -0.1855
 2995SOL    HW2 9556   0.323   7.188   2.795 -0.4102  0.4155  0.6046
 2996SOL     OW 9557   3.390   5.626   5.952 -0.0677  0.7969  0.3107
 2996SOL    HW1 9558   3.329   5.557   5.927  1.2355 -0.4402  0.3736
 2996SOL    HW2 9559   3.415   5.604   6.042  1.7032  0.2843 -0.2646
 2997SOL     OW 9560   2.728   3.525   2.734 -0.5541  0.6960  0.1120
 2997SOL    HW1 9561   2.746   3.592   2.800  1.8063 -1.3784  1.7683
 2997SOL    HW2 9562   2.651   3.479   2.768  1.7968 -1.6747  2.8190
 2998SOL     OW 9563   5.368   3.401   4.591  0.0194  0.9350 -0.1159
 2998SOL    HW1 9564   5.361   3.483   4.543  0.9490  1.4731  0.6437
 2998SOL    HW2 9565   5.439   3.415   4.654 -2.7014  1.2123  3.2479
 2999SOL     OW 9566   6.686   3.163   2.461  0.2057  0.4748 -0.8053
 2999SOL    HW1 9567   6.637   3.243   2.441  2.6004  2.3356  0.2761
 2999SOL    HW2 9568   6.671   3.149   2.554  1.2538  0.7673 -0.5822
 3000SOL     OW 9569   1.934   3.017   4.038 -0.1555  0.1230 -0.2598
 3000SOL    HW1 9570   1.943   3.045   4.129 -0.8684  0.1535 -0.1937
 3000SOL    HW2 9571   1.840   3.003   4.026 -0.0446 -0.1001 -0.9281
 3001SOL     OW 9572   3.906   3.606   6.534  0.5235 -0.1711 -0.1792
 3001SOL    HW1 9573   3.885   3.600   6.627 -1.7104 -1.4449 -0.6750
 3001SOL    HW2 9574   3.988   3.559   6.523  0.5255 -0.4665  1.0635
 3002SOL     OW 9575   4.185   6.706   3.552  0.4526 -0.1847 -0.0696
 3002SOL    HW1 9576   4.204   6.778   3.611 -2.8991  0.4341  0.4653
 3002SOL    HW2 9577   4.121   6.652   3.599 -0.1813 -1.2320 -2.0013
 3003SOL     OW 9578   2.010   6.103   0.478 -0.2234 -0.2739 -0.0227
 3003SOL    HW1 9579   1.978   6.020   0.515  0.1345 -0.9444 -1.1900
 3003SOL    HW2 9580   2.036   6.081   0.389  0.3734  0.9947 -0.1729
 3004SOL     OW 9581   6.754   7.333   4.229 -0.3944  0.2900  0.6473
 3004SOL    HW1 9582   6.824   7.364   4.171  0.7402 -1.7506  0.8189
 3004SOL    HW2 9583   6.701   7.411   4.247 -0.9814  1.0347 -3.3227
 3005SOL     OW 9584   2.781   7.354   7.194  0.5844 -0.8916 -0.4196
 3005SOL    HW1 9585   2.856   7.403   7.229  1.1889 -0.9799 -1.5573
 3005SOL    HW2 9586   2.770   7.280   7.254  0.7128 -0.2867  0.3653
 3006SOL     OW 9587   0.795   0.765   4.748  0.0423  0.0584 -0.2035
 3006SOL    HW1 9588   0.858   0.737   4.814  0.1325 -1.0729 -0.7489
 3006SOL    HW2 9589   0.817   0.713   4.671  0.2399  1.6996 -1.2848
 3007SOL     OW 9590   0.678   0.540   3.342  0.2540  0.8181 -0.4516
 3007SOL    HW1 9591   0.756   0.544   3.286  1.1217  2.1403  0.7628
 3007SOL    HW2 9592   0.605   0.558   3.283  0.5391 -2.4863 -2.0424
 3008SOL     OW 9593   1.806   1.983   5.455 -0.0973  0.2567  0.6112
 3008SOL    HW1 9594   1.803   2.068   5.498 -1.9985  0.7910 -0.4842
 3008SOL    HW2 9595   1.744   1.990   5.382  0.1335 -1.8665  0.1398
 3009SOL     OW 9596   2.063   3.464   2.178  0.1948 -0.2915 -0.1008
 3009SOL    HW1 9597   1.984   3.411   2.189  0.4368 -0.3293  1.6512
 3009SOL    HW2 9598   2.127   3.423   2.235  0.9383  0.8170 -0.1202
 3010SOL     OW 9599   6.632   3.595   2.060  0.6172 -0.0582 -0.5529
 3010SOL    HW1 9600   6.598   3.508   2.081  1.8848 -1.0520 -2.2971
 3010SOL    HW2 9601   6.557   3.641   2.022 -0.0950 -0.3461  0.4727
 3011SOL     OW 9602   3.244   7.319   1.195  0.0742  0.3805  0.0796
 3011SOL    HW1 9603   3.300   7.387   1.234 -0.9365  1.7361 -0.7433
 3011SOL    HW2 9604   3.197   7.282   1.269  1.5618 -0.3478  0.7048
 3012SOL     OW 9605   3.907   7.402   6.440 -0.1085 -0.0753 -0.3510
 3012SOL    HW1 9606   3.839   7.467   6.454 -0.2057 -0.1154 -0.6371
 3012SOL    HW2 9607   3.951   7.396   6.524 -1.5166 -1.2673  0.3431
 3013SOL     OW 9608   0.159   3.927   3.254  0.1067  0.2039  0.1201
 3013SOL    HW1 9609   0.153   3.988   3.328 -0.2352 -0.0295  0.2883
 3013SOL    HW2 9610   0.245   3.886   3.264  1.7822  2.9447 -1.8190
 3014SOL     OW 9611   5.376   3.845   0.241 -0.0004 -0.1043  0.5296
 3014SOL    HW1 9612   5.389   3.792   0.319  0.4264 -2.3840 -0.9772
 3014SOL    HW2 9613   5.465   3.866   0.212 -0.1296 -0.0397  0.1759
 3015SOL     OW 9614   3.986   3.284   2.895 -0.4647 -0.9318 -0.5308
 3015SOL    HW1 9615   3.923   3.296   2.965 -0.6859  2.6255 -1.1813
 3015SOL    HW2 9616   4.058   3.235   2.936 -0.9195  0.3278  1.9875
 3016SOL     OW 9617   4.001   0.689   1.705  0.0860 -0.1003 -0.2687
 3016SOL    HW1 9618   3.951   0.645   1.774  0.8786  0.5323  0.7419
 3016SOL    HW2 9619   4.010   0.779   1.737  2.0932 -0.2691 -0.2865
 3017SOL     OW 9620   3.419   2.341   6.708  0.7216 -0.0588 -0.0536
 3017SOL    HW1 9621   3.438   2.386   6.626 -4.2958  0.9425 -1.0316
 3017SOL    HW2 9622   3.413   2.248   6.684 -0.9240  0.2481 -0.9821
 3018SOL     OW 9623   4.864   2.153   3.541 -0.5897 -1.1475  0.9494
 3018SOL    HW1 9624   4.958   2.159   3.558  0.0761 -0.8183 -2.2199
 3018SOL    HW2 9625   4.830   2.240   3.562  0.3265 -0.4819 -0.1766
 3019SOL     OW 9626   3.540   4.887   5.392 -0.0749  0.8476  0.5054
 3019SOL    HW1 9627   3.550   4.888   5.487 -0.7451  0.8036  0.5851
 3019SOL    HW2 9628   3.529   4.794   5.370 -0.2484  0.8835  0.4312
 3020SOL     OW 9629   3.824   4.088   4.506  0.4168  0.5111 -0.0339
 3020SOL    HW1 9630   3.775   4.142   4.568 -0.4493  1.4783 -1.5062
 3020SOL    HW2 9631   3.825   4.139   4.425  6.1275  1.8292  0.4429
 3021SOL     OW 9632   0.950   4.216   3.870  0.2375  0.2608  0.2542
 3021SOL    HW1 9633   0.971   4.237   3.779  1.0787 -0.4013  0.2767
 3021SOL    HW2 9634   0.880   4.276   3.893 -1.1170 -0.6111 -1.3165
 3022SOL     OW 9635   3.235   1.688   3.500 -0.2492  0.2422  0.1289
 3022SOL    HW1 9636   3.291   1.739   3.442  0.2531  0.7199  1.0242
 3022SOL    HW2 9637   3.290   1.668   3.576 -1.2730  0.7282  1.0280
 3023SOL     OW 9638   3.091   6.435   2.999 -0.1066  0.0567  0.8653
 3023SOL    HW1 9639   3.011   6.420   2.947 -0.2206  1.4267  0.6120
 3023SOL    HW2 9640   3.097   6.530   3.006  2.8586  0.1737 -1.2900
 3024SOL     OW 9641   2.225   3.010   5.801  0.0704 -0.1841 -0.1905
 3024SOL    HW1 9642   2.177   3.089   5.826 -1.0491 -0.5352 -1.1631
 3024SOL    HW2 9643   2.250   2.970   5.884 -0.4387  0.5426  0.3224
 3025SOL     OW 9644   1.944   2.946   5.732 -0.1027 -0.4604 -0.3695
 3025SOL    HW1 9645   2.030   2.988   5.743 -0.3272 -0.0414 -0.1862
 3025SOL    HW2 9646   1.914   2.975   5.647 -0.4498  0.1097 -0.0591
 3026SOL     OW 9647   4.566   1.853   0.847 -0.1793  1.0330  0.0790
 3026SOL    HW1 9648   4.547   1.769   0.804  1.2878 -0.4786  2.2003
 3026SOL    HW2 9649   4.651   1.879   0.811 -0.3265  1.2923 -0.0860
 3027SOL     OW 9650   0.083   3.486   4.929  0.1295 -0.4198  0.4339
 3027SOL    HW1 9651   0.076   3.474   4.835  0.1130  1.1340  0.2107
 3027SOL    HW2 9652   0.008   3.542   4.952  1.8442  1.8583  0.8196
 3028SOL     OW 9653   4.983   2.579   6.034 -0.4553 -0.9263 -0.0144
 3028SOL    HW1 9654   4.941   2.664   6.026 -0.0924 -0.7331  0.0903
 3028SOL    HW2 9655   5.045   2.576   5.961  0.4208 -0.5775  0.6906
 3029SOL     OW 9656   0.507   2.722   1.566  0.4324  0.3110  0.0709
 3029SOL    HW1 9657   0.501   2.789   1.497 -1.4248  0.6102  0.4659
 3029SOL    HW2 9658   0.592   2.682   1.553  1.1566  2.0320 -0.8647
 3030SOL     OW 9659   2.324   3.619   2.592 -0.0609 -0.0357 -0.0479
 3030SOL    HW1 9660   2.401   3.671   2.568 -0.9565  0.1380 -2.9621
 3030SOL    HW2 9661   2.259   3.685   2.618  0.0126 -0.0052  0.0610
 3031SOL     OW 9662   5.647   2.340   0.208  0.2811 -0.0930  0.4353
 3031SOL    HW1 9663   5.671   2.432   0.198  1.1190 -0.4587 -1.2779
 3031SOL    HW2 9664   5.663   2.301   0.122 -1.4286 -1.5486  0.7058
 3032SOL     OW 9665   2.151   5.495   5.467 -0.2185  0.0758  0.0679
 3032SOL    HW1 9666   2.240   5.471   5.494 -0.8688 -3.5119 -0.5629
 3032SOL    HW2 9667   2.114   5.539   5.544  1.2491 -0.7705  1.3279
 3033SOL     OW 9668   6.232   5.266   2.809 -0.8870  0.1029 -0.0839
 3033SOL    HW1 9669   6.267   5.177   2.810 -1.3331 -0.0661  1.1361
 3033SOL    HW2 9670   6.195   5.275   2.721  0.7675 -0.2618 -0.8688
 3034SOL     OW 9671   4.323   0.515   3.723  0.2213 -0.5776 -0.4566
 3034SOL    HW1 9672   4.371   0.598   3.716  0.0794 -0.1566  2.1847
 3034SOL    HW2 9673   4.277   0.506   3.640  1.2382  1.3528 -1.2955
 3035SOL     OW 9674   3.465   4.333   1.283  0.4751  0.7334 -0.3378
 3035SOL    HW1 9675   3.485   4.242   1.302  2.8658  1.4212  0.7971
 3035SOL    HW2 9676   3.370   4.338   1.285  0.3173 -1.0311  3.2719
 3036SOL     OW 9677   0.676   4.506   2.696 -0.2970  0.5362  0.1203
 3036SOL    HW1 9678   0.592   4.462   2.702  0.1824 -0.5219 -0.6096
 3036SOL    HW2 9679   0.677   4.567   2.770 -1.4423  0.1257  0.4866
 3037SOL     OW 9680   3.428   0.877   2.476 -0.1502  0.3663 -0.4750
 3037SOL    HW1 9681   3.475   0.814   2.421 -0.1643  0.1606 -0.2500
 3037SOL    HW2 9682   3.374   0.823   2.534  1.3470  0.4828  1.1216
 3038SOL     OW 9683   5.079   7.350   1.158 -0.1420 -0.0474  0.3609
 3038SOL    HW1 9684   5.026   7.387   1.087  0.0350 -0.0054  0.2481
 3038SOL    HW2 9685   5.023   7.353   1.235 -0.9776 -1.6980 -0.1347
 3039SOL     OW 9686   4.543   2.830   4.553 -0.4272 -0.4739  0.1629
 3039SOL    HW1 9687   4.595   2.775   4.494  0.5462 -0.4024  0.9210
 3039SOL    HW2 9688   4.454   2.827   4.517  0.4832  1.2904 -2.5982
 3040SOL     OW 9689   6.813   3.813   1.738  0.3471 -0.0155  0.3089
 3040SOL    HW1 9690   6.818   3.906   1.717 -0.8485  0.0841  0.4125
 3040SOL    HW2 9691   6.868   3.771   1.672 -1.2713  0.5306 -1.4911
 3041SOL     OW 9692   3.565   6.570   2.747  0.6413  0.8192  0.1924
 3041SOL    HW1 9693   3.497   6.610   2.693  0.5356  0.9242  0.4032
 3041SOL    HW2 9694   3.548   6.602   2.836  0.0034 -0.4083  0.5329
 3042SOL     OW 9695   2.115   2.649   7.266  0.0104  0.9243  0.1398
 3042SOL    HW1 9696   2.162   2.708   7.324  0.2106  0.9618 -0.0561
 3042SOL    HW2 9697   2.182   2.618   7.205  0.0345  0.0297  0.6054
 3043SOL     OW 9698   7.197   5.830   7.259 -0.6397 -0.5231  0.3567
 3043SOL    HW1 9699   7.144   5.910   7.268  0.3672  0.1848  0.1156
 3043SOL    HW2 9700   7.149   5.764   7.309 -1.2706  0.3329  0.9159
 3044SOL     OW 9701   5.082   1.425   5.480 -0.7384 -0.2854 -0.0470
 3044SOL    HW1 9702   5.080   1.494   5.546 -1.4372 -1.0495  0.7628
 3044SOL    HW2 9703   5.082   1.471   5.397 -0.6305  0.6891  0.4778
 3045SOL     OW 9704   0.132   4.718   1.902 -0.3911 -0.1499  0.2162
 3045SOL    HW1 9705   0.052   4.674   1.871 -0.7531 -1.5593  2.8886
 3045SOL    HW2 9706   0.105   4.808   1.918 -1.0804 -0.2725 -0.2027
 3046SOL     OW 9707   1.812   4.933   2.794 -0.4660  0.0772 -0.6862
 3046SOL    HW1 9708   1.763   4.949   2.714 -1.9098 -0.0451  0.1333
 3046SOL    HW2 9709   1.813   4.838   2.804 -0.3957  0.0955 -0.4966
 3047SOL     OW 9710   2.547   0.563   2.283  0.2255 -0.9871  0.0431
 3047SOL    HW1 9711   2.477   0.502   2.259 -0.0812 -0.6479  0.0711
 3047SOL    HW2 9712   2.589   0.522   2.359 -1.1218 -0.3056  1.1841
 3048SOL     OW 9713   5.021   0.408   2.031 -0.4150 -0.0090 -0.1791
 3048SOL    HW1 9714   4.993   0.342   2.093  0.5618 -1.6038 -1.3445
 3048SOL    HW2 9715   4.949   0.414   1.968  0.0188 -0.9473 -0.7875
 3049SOL     OW 9716   3.473   7.410   5.119  0.1715  0.9865  0.0486
 3049SOL    HW1 9717   3.422   7.393   5.040  1.0234 -0.8019 -0.1755
 3049SOL    HW2 9718   3.412   7.395   5.191 -0.6166  2.6493 -0.2315
 3050SOL     OW 9719   5.499   5.034   7.098  0.4295 -0.1873  0.0481
 3050SOL    HW1 9720   5.519   4.942   7.115 -0.2909 -0.4153 -0.2907
 3050SOL    HW2 9721   5.463   5.066   7.180  2.0935  0.2228  0.6596
 3051SOL     OW 9722   0.917   1.285   2.734 -0.1610  0.1704  0.5451
 3051SOL    HW1 9723   0.958   1.246   2.812  0.5165  1.0663  0.6477
 3051SOL    HW2 9724   0.906   1.377   2.756 -0.2779  0.3658 -0.2994
 3052SOL     OW 9725   4.951   6.504   3.866 -0.0311  1.0023 -0.3718
 3052SOL    HW1 9726   4.910   6.588   3.845 -0.2480  0.7049 -1.1891
 3052SOL    HW2 9727   4.919   6.482   3.953 -0.4961  1.4555 -0.4225
 3053SOL     OW 9728   5.836   1.922   2.198 -0.3898  0.0286  0.0371
 3053SOL    HW1 9729   5.780   1.919   2.120  0.3152  0.7510 -0.5149
 3053SOL    HW2 9730   5.915   1.875   2.173  0.5546  1.7147 -0.3161
 3054SOL     OW 9731   1.123   5.796   3.662 -0.0295 -0.1201  0.3780
 3054SOL    HW1 9732   1.049   5.784   3.721  0.4005 -1.2527  0.6973
 3054SOL    HW2 9733   1.197   5.752   3.705  0.9686  1.3665  0.2946
 3055SOL     OW 9734   4.934   0.727   1.920 -0.1673 -0.1374  0.0534
 3055SOL    HW1 9735   4.872   0.693   1.984  0.3425  0.0980  0.6817
 3055SOL    HW2 9736   4.982   0.649   1.890  0.2574 -0.1238  0.6841
 3056SOL     OW 9737   4.785   4.161   1.654 -0.4850 -0.5871  0.3273
 3056SOL    HW1 9738   4.697   4.187   1.627 -0.3293  1.4249  1.5494
 3056SOL    HW2 9739   4.843   4.201   1.588 -0.3401  0.9653  1.3394
 3057SOL     OW 9740   4.442   3.228   5.593 -0.7852 -0.3140  0.8085
 3057SOL    HW1 9741   4.368   3.252   5.538 -0.4276 -1.0848 -0.0362
 3057SOL    HW2 9742   4.439   3.290   5.666 -1.4637  0.5166  0.0969
 3058SOL     OW 9743   5.381   1.068   2.618  0.5425 -0.6285 -0.6138
 3058SOL    HW1 9744   5.428   1.119   2.684  1.3564  0.0687 -1.6950
 3058SOL    HW2 9745   5.448   1.042   2.556 -0.4728  0.4909 -2.2740
 3059SOL     OW 9746   1.506   7.166   6.530  0.0990  0.4916  0.3144
 3059SOL    HW1 9747   1.598   7.169   6.559 -0.1708  1.1528  1.1519
 3059SOL    HW2 9748   1.472   7.086   6.570  0.3705  0.1049 -0.2126
 3060SOL     OW 9749   3.245   6.878   4.544 -0.0958 -0.0048 -0.3899
 3060SOL    HW1 9750   3.165   6.901   4.592 -0.5873 -0.2938 -1.0492
 3060SOL    HW2 9751   3.223   6.896   4.452  0.6151 -0.0474 -0.5708
 3061SOL     OW 9752   1.811   1.189   4.566  0.3978 -0.0304  0.4116
 3061SOL    HW1 9753   1.738   1.137   4.600  0.0401 -0.9961 -1.6552
 3061SOL    HW2 9754   1.786   1.280   4.580 -1.2767 -0.3480 -0.3649
 3062SOL     OW 9755   1.943   3.260   7.384 -0.5023 -0.2856 -0.5257
 3062SOL    HW1 9756   2.008   3.263   7.314  1.2610  0.3434  1.0483
 3062SOL    HW2 9757   1.943   3.168   7.413 -1.0696 -0.4968 -1.1714
 3063SOL     OW 9758   2.700   0.655   3.901  0.4055 -0.0715 -0.2654
 3063SOL    HW1 9759   2.739   0.733   3.862 -1.5149  0.7420 -0.7084
 3063SOL    HW2 9760   2.708   0.669   3.995 -0.6955  1.1400 -0.3146
 3064SOL     OW 9761   2.631   2.701   5.449 -0.0439  0.3714 -0.0347
 3064SOL    HW1 9762   2.615   2.608   5.435  2.1075 -0.1563  0.5891
 3064SOL    HW2 9763   2.680   2.706   5.531  1.3609  1.8445 -0.8752
 3065SOL     OW 9764   4.742   0.556   6.490  0.8748 -0.1333  0.0119
 3065SOL    HW1 9765   4.787   0.554   6.575  1.4062 -0.9481 -0.2736
 3065SOL    HW2 9766   4.669   0.495   6.501 -2.0155  3.2442  1.4102
 3066SOL     OW 9767   2.479   2.455   4.086  0.2138 -0.1885  0.1027
 3066SOL    HW1 9768   2.389   2.459   4.116  0.0273  3.1536 -0.4765
 3066SOL    HW2 9769   2.530   2.438   4.165 -0.7434  1.5483  1.1626
 3067SOL     OW 9770   1.581   1.398   2.879  0.1461  0.3121 -0.6199
 3067SOL    HW1 9771   1.660   1.402   2.933 -0.7402 -0.7641  0.8514
 3067SOL    HW2 9772   1.512   1.432   2.936 -0.9306 -1.4398 -0.8007
 3068SOL     OW 9773   0.014   5.909   7.095 -0.2857  0.2232 -0.3820
 3068SOL    HW1 9774   0.048   5.987   7.052 -0.7161  1.4656  1.4274
 3068SOL    HW2 9775   0.092   5.860   7.122  0.0251  1.1177  0.3636
 3069SOL     OW 9776   0.127   3.157   4.199 -0.2200  0.5287  0.3489
 3069SOL    HW1 9777   0.086   3.212   4.266 -0.1402  0.3737  0.5250
 3069SOL    HW2 9778   0.192   3.105   4.246 -0.1697  0.4109  0.1538
 3070SOL     OW 9779   6.298   1.604   0.644  0.2014  0.5337 -0.5102
 3070SOL    HW1 9780   6.309   1.664   0.569  0.3897 -0.5145 -1.3440
 3070SOL    HW2 9781   6.240   1.535   0.612 -1.0954  0.9298  0.8617
 3071SOL     OW 9782   5.682   4.785   0.475  0.1206  0.1271  0.2334
 3071SOL    HW1 9783   5.729   4.865   0.497  1.7374 -0.4389 -0.9115
 3071SOL    HW2 9784   5.745   4.715   0.493 -0.3883 -0.6915 -0.9905
 3072SOL     OW 9785   4.294   4.955   0.084  0.4151  0.0534 -0.1082
 3072SOL    HW1 9786   4.373   4.902   0.091  0.5593 -0.4910 -3.8242
 3072SOL    HW2 9787   4.314   5.019   0.015 -1.7171  1.2223  0.2532
 3073SOL     OW 9788   4.326   3.099   4.956  0.4873 -0.3281  0.1901
 3073SOL    HW1 9789   4.345   3.062   5.042 -0.9173  0.1931  0.7460
 3073SOL    HW2 9790   4.397   3.162   4.941  0.3972  0.0368  1.2446
 3074SOL     OW 9791   1.655   6.850   1.228  0.1232 -0.0453  0.1544
 3074SOL    HW1 9792   1.743   6.867   1.262  0.4576  0.8100 -1.0490
 3074SOL    HW2 9793   1.670   6.804   1.145 -0.4393  1.7021 -0.9804
 3075SOL     OW 9794   1.929   0.228   6.256 -0.1401 -0.5785  0.0447
 3075SOL    HW1 9795   1.884   0.192   6.179  0.3421  1.4669 -1.2631
 3075SOL    HW2 9796   2.008   0.267   6.221 -0.9427  2.3443  1.2011
 3076SOL     OW 9797   4.237   5.025   6.409  0.0080  0.1882  0.0465
 3076SOL    HW1 9798   4.320   4.998   6.449  0.9214  2.1958 -0.3830
 3076SOL    HW2 9799   4.260   5.043   6.318 -1.4144 -1.3871 -0.6804
 3077SOL     OW 9800   2.253   3.226   1.221 -0.8831 -0.6474 -0.1314
 3077SOL    HW1 9801   2.252   3.228   1.317 -1.7330  0.9114 -0.1443
 3077SOL    HW2 9802   2.174   3.177   1.198 -0.9252 -0.6313 -0.0257
 3078SOL     OW 9803   1.788   2.597   1.833  0.1557 -0.3944 -0.4461
 3078SOL    HW1 9804   1.698   2.625   1.820  0.9912  1.6818 -2.6164
 3078SOL    HW2 9805   1.804   2.532   1.764  0.6948  0.3111 -1.0018
 3079SOL     OW 9806   1.619   4.513   7.058 -0.5667  0.3058 -0.1915
 3079SOL    HW1 9807   1.566   4.554   7.127  2.1738  2.1346  1.0616
 3079SOL    HW2 9808   1.709   4.518   7.092  0.6466 -0.9156 -2.9178
 3080SOL     OW 9809   2.575   6.633   0.860 -0.3652 -0.6898 -0.0187
 3080SOL    HW1 9810   2.600   6.542   0.876  0.5951 -0.4105  0.1246
 3080SOL    HW2 9811   2.489   6.641   0.901  0.3494 -1.0392  1.6149
 3081SOL     OW 9812   4.432   0.776   3.719  0.0274 -0.0736 -0.4042
 3081SOL    HW1 9813   4.418   0.818   3.804 -0.6133 -1.8714  0.4388
 3081SOL    HW2 9814   4.365   0.814   3.662  0.1294  0.7714  0.0280
 3082SOL     OW 9815   0.966   4.157   2.218 -0.1126 -0.2672  0.0543
 3082SOL    HW1 9816   0.998   4.231   2.270 -1.1904  2.0577 -2.3170
 3082SOL    HW2 9817   0.895   4.120   2.270  0.2617  0.5496  1.1973
 3083SOL     OW 9818   7.171   7.250   4.590 -0.1113  0.4680 -0.0365
 3083SOL    HW1 9819   7.192   7.156   4.595 -2.1977 -0.2528 -2.5809
 3083SOL    HW2 9820   7.222   7.281   4.515  1.5444  1.7561  1.5383
 3084SOL     OW 9821   2.433   1.394   3.593 -0.0140  0.2020 -0.3243
 3084SOL    HW1 9822   2.448   1.312   3.640 -0.0014  0.9105  0.9555
 3084SOL    HW2 9823   2.353   1.429   3.632  0.2721  1.0539 -0.4821
 3085SOL     OW 9824   6.888   3.526   7.132 -0.0327 -0.0316  0.0911
 3085SOL    HW1 9825   6.900   3.600   7.192 -0.6374  0.6868 -0.6583
 3085SOL    HW2 9826   6.845   3.459   7.185  0.1731  0.2889  0.6756
 3086SOL     OW 9827   0.731   0.486   2.901  0.7194  0.2890  0.7251
 3086SOL    HW1 9828   0.719   0.537   2.981 -0.4978  2.7264 -0.8962
 3086SOL    HW2 9829   0.820   0.450   2.909  1.7592  2.8784  1.8719
 3087SOL     OW 9830   2.178   0.114   6.835  0.1132 -0.2422 -0.4115
 3087SOL    HW1 9831   2.245   0.096   6.769  1.1088 -0.8523  0.7300
 3087SOL    HW2 9832   2.208   0.068   6.914 -1.3465 -0.0335  0.3073
 3088SOL     OW 9833   5.303   6.550   5.060  0.2979  0.0896 -0.6008
 3088SOL    HW1 9834   5.331   6.461   5.083  2.1583  0.5538 -0.9280
 3088SOL    HW2 9835   5.273   6.542   4.970  1.7931  0.0268 -1.1196
 3089SOL     OW 9836   2.031   3.344   0.301 -0.0029  0.0662  0.1036
 3089SOL    HW1 9837   2.115   3.349   0.348 -0.2008  0.4560  0.4159
 3089SOL    HW2 9838   2.004   3.252   0.311 -0.7758  0.4663  2.0443
 3090SOL     OW 9839   7.144   3.009   6.520 -0.3328 -0.2829  0.2545
 3090SOL    HW1 9840   7.239   3.004   6.531 -0.3544 -0.1407  0.5330
 3090SOL    HW2 9841   7.129   3.089   6.470 -0.2903 -0.4451 -0.0192
 3091SOL     OW 9842   5.398   1.712   1.046  0.2479  0.0180  0.4420
 3091SOL    HW1 9843   5.471   1.748   0.996  2.0940 -0.4216  2.6867
 3091SOL    HW2 9844   5.364   1.642   0.991  1.8782 -0.1407 -0.4103
 3092SOL     OW 9845   2.880   2.419   2.130  0.1811  0.3709  0.8247
 3092SOL    HW1 9846   2.906   2.511   2.139 -0.4014  0.4323  2.3036
 3092SOL    HW2 9847   2.789   2.422   2.102 -0.5883  0.3406  3.1138
 3093SOL     OW 9848   0.945   4.195   2.545  0.0500  0.3950  0.2358
 3093SOL    HW1 9849   0.958   4.100   2.550  0.0639  0.2098 -2.1856
 3093SOL    HW2 9850   0.964   4.226   2.634 -1.6113 -2.0218  1.5581
 3094SOL     OW 9851   6.374   2.154   7.235 -0.5483 -0.4170  0.3020
 3094SOL    HW1 9852   6.333   2.230   7.194 -2.0208 -1.2982  0.0875
 3094SOL    HW2 9853   6.467   2.176   7.238 -0.7543  0.7961 -1.0694
 3095SOL     OW 9854   0.229   5.576   3.533  0.2610 -0.4378 -0.4883
 3095SOL    HW1 9855   0.209   5.576   3.627 -0.1641 -1.7150 -0.5614
 3095SOL    HW2 9856   0.154   5.532   3.493  0.3139  0.3431 -1.4665
 3096SOL     OW 9857   0.485   3.887   5.466 -0.2504 -0.2879 -0.4397
 3096SOL    HW1 9858   0.577   3.872   5.445 -0.5274  0.2520 -2.2134
 3096SOL    HW2 9859   0.437   3.848   5.393 -1.3604  0.6412 -0.2321
 3097SOL     OW 9860   4.740   2.566   0.462 -0.3530 -0.7930 -0.3382
 3097SOL    HW1 9861   4.756   2.613   0.544 -1.5384 -1.0835  0.0758
 3097SOL    HW2 9862   4.826   2.564   0.419  0.0473  0.3790  0.3512
 3098SOL     OW 9863   4.853   1.801   5.701  0.0767  0.0620  0.1384
 3098SOL    HW1 9864   4.858   1.734   5.770  0.0677 -0.7689 -0.6548
 3098SOL    HW2 9865   4.897   1.762   5.626 -1.3428  0.2916 -0.8496
 3099SOL     OW 9866   7.105   0.877   5.696  0.4278 -0.5806 -0.0384
 3099SOL    HW1 9867   7.098   0.806   5.632  0.8341 -1.9811  1.4175
 3099SOL    HW2 9868   7.196   0.873   5.726 -0.1236 -0.9634  1.7068
 3100SOL     OW 9869   1.074   4.452   6.066  0.8840  0.3542  0.0582
 3100SOL    HW1 9870   0.989   4.409   6.076  1.8100 -1.3630  1.1929
 3100SOL    HW2 9871   1.096   4.483   6.154  2.7475 -2.0212  0.5495
 3101SOL     OW 9872   5.573   6.119   4.091 -0.0584  0.1854 -0.5868
 3101SOL    HW1 9873   5.589   6.059   4.164 -0.4187 -0.0378 -0.6932
 3101SOL    HW2 9874   5.544   6.200   4.133 -0.7486 -0.0991 -0.5033
 3102SOL     OW 9875   4.068   3.166   6.119 -0.7467  0.4907  0.2568
 3102SOL    HW1 9876   4.120   3.236   6.079 -1.7775  0.2598 -1.6310
 3102SOL    HW2 9877   4.018   3.209   6.188 -1.9215  1.8500 -1.3484
 3103SOL     OW 9878   1.090   6.663   1.474 -0.2250  0.2195 -0.4612
 3103SOL    HW1 9879   1.185   6.663   1.489  0.0077  0.8889 -1.8096
 3103SOL    HW2 9880   1.053   6.636   1.558  1.1877 -0.8457 -0.1363
 3104SOL     OW 9881   6.925   0.789   4.939 -0.1300 -0.8532  0.3110
 3104SOL    HW1 9882   7.020   0.791   4.946 -0.0771  2.7731  0.9583
 3104SOL    HW2 9883   6.894   0.797   5.030 -0.9209 -0.0278 -0.0067
 3105SOL     OW 9884   0.375   4.944   4.496  0.5965  0.4264  0.2391
 3105SOL    HW1 9885   0.416   4.877   4.551  0.0060 -0.0404  0.1169
 3105SOL    HW2 9886   0.349   4.897   4.417 -0.7152  0.5726  0.5555
 3106SOL     OW 9887   2.340   5.681   4.024  0.0149  0.3431 -0.7301
 3106SOL    HW1 9888   2.295   5.600   4.048  1.6065 -0.1060  0.9173
 3106SOL    HW2 9889   2.279   5.750   4.049  0.2217 -0.2456  1.6397
 3107SOL     OW 9890   0.623   2.910   5.537  0.7508  0.0004 -0.1005
 3107SOL    HW1 9891   0.552   2.860   5.498  0.8039 -0.6032  0.5606
 3107SOL    HW2 9892   0.586   2.997   5.553  0.4131 -0.0690 -0.5128
 3108SOL     OW 9893   7.215   2.960   2.094 -0.1141  0.1612 -0.7511
 3108SOL    HW1 9894   7.250   2.922   2.014  1.6304  0.7938 -0.3369
 3108SOL    HW2 9895   7.163   3.034   2.065 -0.6776 -0.4624 -1.3628
 3109SOL     OW 9896   0.664   7.374   2.070 -0.2026 -0.4108 -0.0618
 3109SOL    HW1 9897   0.731   7.398   2.006  0.5297  1.4389  1.3150
 3109SOL    HW2 9898   0.713   7.340   2.145 -0.8084  0.4969  0.7673
 3110SOL     OW 9899   6.547   5.776   0.680 -0.1426  0.3338 -0.0267
 3110SOL    HW1 9900   6.583   5.864   0.663  2.0789 -0.1753  1.5152
 3110SOL    HW2 9901   6.598   5.719   0.623  0.2936 -0.2135  0.8873
 3111SOL     OW 9902   7.108   2.693   6.479  0.5648  0.0754  0.3641
 3111SOL    HW1 9903   7.182   2.683   6.419 -0.5271  0.3867 -1.0806
 3111SOL    HW2 9904   7.031   2.678   6.425 -0.4899  1.0217  1.5496
 3112SOL     OW 9905   0.218   7.156   0.224  0.0444  0.2347  0.1033
 3112SOL    HW1 9906   0.177   7.128   0.306  0.2946 -3.2580 -0.8008
 3112SOL    HW2 9907   0.157   7.127   0.156  0.8182  1.1700 -1.0339
 3113SOL     OW 9908   1.800   6.274   3.008  0.6955 -0.3835  0.4718
 3113SOL    HW1 9909   1.716   6.234   3.031  0.3911 -0.8732 -1.3910
 3113SOL    HW2 9910   1.783   6.368   3.014  0.2769 -0.4837  0.9728
 3114SOL     OW 9911   2.435   0.366   3.790  0.3061  0.2104  0.0699
 3114SOL    HW1 9912   2.461   0.457   3.776  0.8798  0.0621  0.1489
 3114SOL    HW2 9913   2.505   0.329   3.844  0.5419 -0.5202 -0.7204
 3115SOL     OW 9914   4.699   3.232   1.848  0.0151  0.0700 -0.5064
 3115SOL    HW1 9915   4.710   3.291   1.922  0.8035 -0.5901 -0.0705
 3115SOL    HW2 9916   4.759   3.266   1.781 -0.4599  0.4792 -0.7305
 3116SOL     OW 9917   5.052   3.124   7.117 -0.6270  0.7293  0.3237
 3116SOL    HW1 9918   5.102   3.061   7.168 -1.3892 -0.6645 -0.5889
 3116SOL    HW2 9919   5.085   3.209   7.145  2.3870 -0.0829 -0.3572
 3117SOL     OW 9920   1.917   1.776   5.615  0.0706  0.2477  0.1394
 3117SOL    HW1 9921   1.998   1.739   5.578 -1.0711 -1.3038 -0.9866
 3117SOL    HW2 9922   1.893   1.846   5.554  0.1711  0.1971  0.0403
 3118SOL     OW 9923   2.271   4.663   5.809 -0.3875 -0.0755 -0.3150
 3118SOL    HW1 9924   2.324   4.616   5.873 -1.2107  0.5046  0.8138
 3118SOL    HW2 9925   2.187   4.618   5.810 -0.5959  0.3027 -0.5676
 3119SOL     OW 9926   4.971   3.777   0.061 -0.2694  0.2603  0.7140
 3119SOL    HW1 9927   4.933   3.742   0.141 -0.6370  1.0696  0.9030
 3119SOL    HW2 9928   4.899   3.824   0.018 -0.1271 -0.3057 -0.1856
 3120SOL     OW 9929   4.902   1.207   2.301  0.1576  0.3918  0.0212
 3120SOL    HW1 9930   4.979   1.238   2.253 -0.1086  0.9358 -0.0774
 3120SOL    HW2 9931   4.890   1.117   2.272  0.7494  0.3120  0.0289
 3121SOL     OW 9932   6.416   3.638   1.871  0.4785 -0.0874 -0.1723
 3121SOL    HW1 9933   6.456   3.557   1.838  0.2467 -0.2900  0.0405
 3121SOL    HW2 9934   6.326   3.636   1.837  0.4555  0.0531 -0.1196
 3122SOL     OW 9935   5.971   3.833   0.962 -0.0825 -0.4731 -0.3851
 3122SOL    HW1 9936   6.028   3.888   0.908 -1.1628  0.2859 -0.7981
 3122SOL    HW2 9937   6.004   3.843   1.051 -0.7684  1.5813 -0.3024
 3123SOL     OW 9938   5.495   1.200   1.729 -0.1000 -0.1072  0.4764
 3123SOL    HW1 9939   5.509   1.293   1.711  0.4746  0.1180  1.9538
 3123SOL    HW2 9940   5.544   1.155   1.661  3.1248  0.7088  2.0611
 3124SOL     OW 9941   4.891   0.585   0.071 -0.2981  0.2956 -0.0114
 3124SOL    HW1 9942   4.964   0.627   0.026 -0.0918 -0.7120 -0.6452
 3124SOL    HW2 9943   4.931   0.547   0.150 -0.1832 -0.0381 -0.2290
 3125SOL     OW 9944   5.230   0.683   5.641 -0.4507 -0.2789  0.4403
 3125SOL    HW1 9945   5.142   0.706   5.669  0.3476  0.4102  2.5270
 3125SOL    HW2 9946   5.275   0.658   5.721  1.5758  0.4632 -0.4032
 3126SOL     OW 9947   4.167   2.349   3.615 -0.8490  0.3211  0.6365
 3126SOL    HW1 9948   4.092   2.380   3.564 -0.9957  1.0013  1.2420
 3126SOL    HW2 9949   4.244   2.376   3.565 -0.9977 -0.5482 -0.0857
 3127SOL     OW 9950   5.305   7.410   4.927 -0.5760  0.0114 -0.1085
 3127SOL    HW1 9951   5.326   7.464   4.850 -2.7971  0.5333 -0.4313
 3127SOL    HW2 9952   5.390   7.386   4.964  0.5295  2.7098 -0.6760
 3128SOL     OW 9953   5.146   4.478   0.637  0.2636  0.0241 -0.7230
 3128SOL    HW1 9954   5.139   4.510   0.547  0.4539  0.1463 -0.6958
 3128SOL    HW2 9955   5.081   4.408   0.643  0.2900 -0.0228 -0.9718
 3129SOL     OW 9956   5.816   4.912   7.275 -0.0792 -0.1714 -0.2424
 3129SOL    HW1 9957   5.825   4.817   7.277  0.2362 -0.1595 -0.8281
 3129SOL    HW2 9958   5.731   4.929   7.317 -0.1042 -0.7016 -0.0690
 3130SOL     OW 9959   1.432   3.684   4.779 -0.2891 -0.2729  0.4232
 3130SOL    HW1 9960   1.470   3.771   4.789 -1.0157  0.4583 -2.3620
 3130SOL    HW2 9961   1.487   3.640   4.715 -1.3668 -0.9196 -0.0996
 3131SOL     OW 9962   3.326   0.729   3.299  0.5048 -0.3220  0.3103
 3131SOL    HW1 9963   3.310   0.639   3.327  0.6422 -0.2267  0.7025
 3131SOL    HW2 9964   3.406   0.754   3.344  0.6038 -0.0862  0.0067
 3132SOL     OW 9965   1.351   1.103   3.234 -0.3147  0.1904 -0.2079
 3132SOL    HW1 9966   1.406   1.030   3.262  0.9893  0.4846 -1.8902
 3132SOL    HW2 9967   1.383   1.178   3.286 -0.1649  0.0377 -0.0799
 3133SOL     OW 9968   7.441   0.303   6.544  0.1046 -0.5528  0.7422
 3133SOL    HW1 9969   7.525   0.342   6.568 -0.2486  0.6402  0.1182
 3133SOL    HW2 9970   7.460   0.245   6.471 -0.1005  2.5547 -1.9638
 3134SOL     OW 9971   6.821   7.120   6.807 -0.2393  0.0180 -0.0482
 3134SOL    HW1 9972   6.816   7.105   6.713  0.3878 -2.2808  0.2220
 3134SOL    HW2 9973   6.904   7.080   6.833 -0.5593  0.3183  1.5346
 3135SOL     OW 9974   4.551   4.864   2.912  0.1193 -0.1540  0.5433
 3135SOL    HW1 9975   4.483   4.834   2.971 -0.3960 -1.5150 -0.6720
 3135SOL    HW2 9976   4.506   4.920   2.849  0.2137 -0.6549  0.0265
 3136SOL     OW 9977   2.684   2.952   1.615  0.7053 -0.1673 -0.3342
 3136SOL    HW1 9978   2.762   2.914   1.574  1.4064  0.1397  0.6953
 3136SOL    HW2 9979   2.670   3.033   1.566  0.3300 -0.7748 -1.2771
 3137SOL     OW 9980   5.137   7.421   6.563 -0.0109 -0.0607  0.2595
 3137SOL    HW1 9981   5.227   7.421   6.529 -0.1575 -1.8679 -0.2763
 3137SOL    HW2 9982   5.091   7.485   6.509  0.9644  0.9952  0.6350
 3138SOL     OW 9983   7.434   0.251   7.096 -0.0073 -0.0765  0.1030
 3138SOL    HW1 9984   7.416   0.226   7.187 -0.0223  0.8080  0.3433
 3138SOL    HW2 9985   7.527   0.230   7.083 -0.0241 -0.2731  0.2911
 3139SOL     OW 9986   4.756   1.527   6.264 -0.5240 -0.1414 -0.0371
 3139SOL    HW1 9987   4.778   1.436   6.280  0.0181  0.0228  0.1674
 3139SOL    HW2 9988   4.704   1.525   6.183 -2.7373 -0.8996  1.3269
 3140SOL     OW 9989   4.045   6.360   2.785 -0.4479 -0.1959  0.1049
 3140SOL    HW1 9990   4.054   6.368   2.879 -2.0102 -0.2772  0.2886
 3140SOL    HW2 9991   3.955   6.331   2.772  0.2340 -1.9168 -1.3193
 3141SOL     OW 9992   0.934   6.538   0.693  0.2080 -0.8379 -0.7775
 3141SOL    HW1 9993   0.923   6.530   0.598  0.2284  0.6990 -0.9364
 3141SOL    HW2 9994   0.851   6.575   0.724  0.7641  0.1580 -0.4311
 3142SOL     OW 9995   4.040   2.969   5.317 -0.2279  0.1487 -0.3213
 3142SOL    HW1 9996   4.049   3.039   5.382 -0.4587  0.8499 -1.0338
 3142SOL    HW2 9997   4.130   2.953   5.287 -0.2259  0.4431 -0.4720
 3143SOL     OW 9998   1.475   3.987   7.104  0.0601  0.4507  0.3718
 3143SOL    HW1 9999   1.456   3.894   7.090  1.9624  0.0424  0.2259
 3143SOL    HW210000   1.423   4.010   7.181  0.6563 -1.1365  1.3032
 3144SOL     OW10001   0.486   1.347   6.998  0.4129 -0.8857 -0.1937
 3144SOL    HW110002   0.534   1.284   7.053  0.6474 -1.2346 -0.7921
 3144SOL    HW210003   0.397   1.314   6.997  0.0863 -0.1157  1.1029
 3145SOL     OW10004   6.758   0.656   0.539 -0.5380 -0.2704  0.9062
 3145SOL    HW110005   6.704   0.667   0.461  1.9606  5.0738 -0.5290
 3145SOL    HW210006   6.822   0.588   0.514 -1.5125 -0.7041 -0.5272
 3146SOL     OW10007   6.867   1.106   5.466  0.6532 -0.1236  0.2014
 3146SOL    HW110008   6.818   1.142   5.540  0.0607 -1.3765  0.4504
 3146SOL    HW210009   6.860   1.173   5.398 -0.4286  0.2245  0.6310
 3147SOL     OW10010   7.283   2.074   1.122  0.3198 -0.3859  0.3656
 3147SOL    HW110011   7.378   2.064   1.127  0.2965 -0.1602  1.4259
 3147SOL    HW210012   7.254   2.004   1.063  1.2543  0.2839 -0.9388
 3148SOL     OW10013   4.205   4.952   2.186  0.4074  0.2622  0.0748
 3148SOL    HW110014   4.294   4.931   2.216  0.7950  2.0235  0.2494
 3148SOL    HW210015   4.156   4.871   2.201  1.8079 -0.5360  0.6287
 3149SOL     OW10016   7.110   6.069   4.874  0.1281  0.0844  0.1216
 3149SOL    HW110017   7.043   6.013   4.836 -1.0718  1.7229 -0.2624
 3149SOL    HW210018   7.103   6.152   4.827  2.0397  0.5043  0.4746
 3150SOL     OW10019   3.858   5.296   1.524  0.2294  0.1921  0.3702
 3150SOL    HW110020   3.838   5.208   1.492 -2.0640  0.4287  0.9817
 3150SOL    HW210021   3.929   5.283   1.587 -0.4973 -1.3362  0.9281
 3151SOL     OW10022   2.785   4.212   3.136  0.1327  0.4930  0.4215
 3151SOL    HW110023   2.854   4.175   3.192  0.9522  0.3274 -0.6470
 3151SOL    HW210024   2.710   4.155   3.149  1.0919 -1.0464 -0.5053
 3152SOL     OW10025   4.957   4.542   3.209 -0.2537  0.0647  0.2565
 3152SOL    HW110026   4.902   4.578   3.278  0.4728  1.7499  0.0064
 3152SOL    HW210027   4.925   4.583   3.129  0.4060 -0.0717 -0.0866
 3153SOL     OW10028   7.234   2.994   1.816  0.9640  0.2404  0.2735
 3153SOL    HW110029   7.213   3.022   1.727 -0.6278 -1.0913  0.1828
 3153SOL    HW210030   7.329   3.007   1.823  1.2749 -0.4251 -1.9126
 3154SOL     OW10031   2.264   2.670   5.667 -0.6063 -0.1617 -0.0209
 3154SOL    HW110032   2.313   2.698   5.744  0.4845 -0.4948 -0.5742
 3154SOL    HW210033   2.297   2.726   5.596 -2.8882  1.4213  0.0633
 3155SOL     OW10034   1.526   4.762   1.343  0.0226  0.8149 -0.1972
 3155SOL    HW110035   1.606   4.806   1.316 -0.7602  2.4385  0.0285
 3155SOL    HW210036   1.548   4.669   1.342  2.3933  1.2848  1.4610
 3156SOL     OW10037   5.537   6.029   5.917 -0.2005  0.0692  0.0711
 3156SOL    HW110038   5.517   5.989   5.832 -0.4855  1.6406 -0.6323
 3156SOL    HW210039   5.629   6.055   5.910 -0.0122 -0.4518  0.5284
 3157SOL     OW10040   6.619   4.385   3.134  0.0802  0.0566  0.2182
 3157SOL    HW110041   6.707   4.404   3.101  0.3521 -0.3064  0.7274
 3157SOL    HW210042   6.622   4.292   3.156 -0.0843  0.2931  1.3028
 3158SOL     OW10043   4.995   5.951   1.279 -0.2830  0.6794  0.2714
 3158SOL    HW110044   5.035   5.995   1.204  2.8224  0.1501  1.4889
 3158SOL    HW210045   5.060   5.888   1.308 -3.0973 -2.2107  0.8682
 3159SOL     OW10046   1.627   5.619   0.580  0.0482 -0.1090 -0.1510
 3159SOL    HW110047   1.564   5.548   0.561  0.5663 -0.4336 -0.6882
 3159SOL    HW210048   1.575   5.684   0.626 -0.2401 -1.2381  1.2001
 3160SOL     OW10049   2.308   0.122   4.878  0.2047 -0.3485 -0.0197
 3160SOL    HW110050   2.371   0.078   4.821  0.0246 -0.8300  0.1552
 3160SOL    HW210051   2.254   0.174   4.819 -1.1551 -2.2327 -0.5021
 3161SOL     OW10052   1.818   2.727   6.411 -0.2234 -0.0563  0.1871
 3161SOL    HW110053   1.878   2.667   6.368 -1.0028  0.1410 -1.2229
 3161SOL    HW210054   1.734   2.714   6.366 -0.8447  0.8233  1.0374
 3162SOL     OW10055   4.320   2.949   5.351  0.4090 -0.6054  0.4928
 3162SOL    HW110056   4.314   2.898   5.432  1.8534  0.5923  1.4048
 3162SOL    HW210057   4.377   3.022   5.373 -0.3354  0.5555 -1.2217
 3163SOL     OW10058   4.738   0.551   1.129 -0.3664 -0.2124 -0.0536
 3163SOL    HW110059   4.653   0.594   1.119 -0.3688 -0.2003  0.0204
 3163SOL    HW210060   4.729   0.468   1.083 -0.8891 -0.8610  1.1545
 3164SOL     OW10061   0.739   3.436   5.891  0.4896 -0.3486  0.3042
 3164SOL    HW110062   0.795   3.360   5.905 -0.7713 -1.5823 -0.9066
 3164SOL    HW210063   0.748   3.489   5.971  0.3656 -2.4802  1.8177
 3165SOL     OW10064   4.308   7.221   6.152 -0.3030  0.3090 -0.3028
 3165SOL    HW110065   4.357   7.303   6.142  3.4321 -1.3197  2.4275
 3165SOL    HW210066   4.248   7.238   6.224 -1.0785  1.1917 -1.1236
 3166SOL     OW10067   0.602   7.107   3.267 -0.2062 -0.0732  0.7068
 3166SOL    HW110068   0.625   7.077   3.355 -1.3495 -0.9928  0.7174
 3166SOL    HW210069   0.546   7.183   3.281 -1.3896 -0.9341  0.8437
 3167SOL     OW10070   5.032   6.591   2.778  0.3193 -0.7474  0.2532
 3167SOL    HW110071   5.122   6.560   2.788  0.1016 -1.4269  0.1391
 3167SOL    HW210072   5.002   6.607   2.867  0.9735  0.7487  0.2439
 3168SOL     OW10073   2.749   2.119   5.168 -0.2959 -0.0484 -0.1636
 3168SOL    HW110074   2.674   2.060   5.162 -1.2903  0.9215  1.9900
 3168SOL    HW210075   2.801   2.084   5.240  1.0543 -0.3385 -1.2181
 3169SOL     OW10076   1.335   5.494   2.134 -0.7002  0.1785  0.3199
 3169SOL    HW110077   1.271   5.429   2.105 -1.3878  0.7355  0.5506
 3169SOL    HW210078   1.282   5.563   2.173  0.1402 -0.1268  2.0940
 3170SOL     OW10079   2.824   5.737   5.504 -0.3251  0.1688  0.6157
 3170SOL    HW110080   2.781   5.822   5.516  0.3528  0.5280  0.5380
 3170SOL    HW210081   2.887   5.752   5.434 -3.1365 -1.4643 -2.6014
 3171SOL     OW10082   0.187   0.314   0.008  0.1320  0.7685  0.4078
 3171SOL    HW110083   0.219   0.403   0.025  1.6216  0.2509  0.3742
 3171SOL    HW210084   0.182   0.273   0.094 -1.2454  1.0742  0.5074
 3172SOL     OW10085   4.792   6.535   2.642  0.6696 -0.1486 -0.0817
 3172SOL    HW110086   4.833   6.470   2.585  0.6379 -1.7100  1.5907
 3172SOL    HW210087   4.865   6.571   2.694  0.3738 -0.5597  0.6267
 3173SOL     OW10088   5.466   5.579   2.728  0.2102 -0.3456  0.2470
 3173SOL    HW110089   5.374   5.607   2.726 -0.1596 -1.3947 -2.7566
 3173SOL    HW210090   5.463   5.490   2.765 -0.3695 -1.3010 -1.9684
 3174SOL     OW10091   5.922   0.799   6.997 -0.3103  0.0495  0.5478
 3174SOL    HW110092   5.885   0.784   7.084 -0.1751  0.3701  0.6595
 3174SOL    HW210093   5.997   0.856   7.012  0.0900 -0.4043  0.2939
 3175SOL     OW10094   0.412   0.331   3.046 -0.3326  0.1061 -0.3317
 3175SOL    HW110095   0.462   0.257   3.009 -1.6667 -1.6859  1.2564
 3175SOL    HW210096   0.349   0.353   2.978 -0.6252 -0.9646 -0.4255
 3176SOL     OW10097   1.533   3.157   3.368  0.1963 -0.4260  0.3443
 3176SOL    HW110098   1.511   3.065   3.376  0.4857 -0.3408  2.9742
 3176SOL    HW210099   1.499   3.197   3.448 -1.0614  2.0394 -1.2758
 3177SOL     OW10100   1.190   3.750   4.877 -0.7546  0.1312  0.0943
 3177SOL    HW110101   1.174   3.662   4.911  1.0399  0.0458  0.8283
 3177SOL    HW210102   1.274   3.744   4.833 -0.4771  1.5247  0.3852
 3178SOL     OW10103   2.778   4.423   3.760 -0.1411 -0.2235 -0.0624
 3178SOL    HW110104   2.852   4.372   3.793  0.0596 -0.1259 -0.3550
 3178SOL    HW210105   2.701   4.381   3.798  0.1370  0.7210  1.6781
 3179SOL     OW10106   4.389   4.709   3.500 -0.3449  0.2376  0.0519
 3179SOL    HW110107   4.430   4.661   3.427 -1.4435 -1.0101  0.2279
 3179SOL    HW210108   4.462   4.757   3.539  0.4353  0.2782 -1.3445
 3180SOL     OW10109   6.312   5.963   0.695  0.7618 -0.0059  0.2923
 3180SOL    HW110110   6.334   6.032   0.632 -0.9200  0.1764 -0.1434
 3180SOL    HW210111   6.370   5.891   0.672  1.1579  0.5677 -0.5532
 3181SOL     OW10112   2.098   3.114   4.518  0.4578  0.4363  0.0997
 3181SOL    HW110113   2.157   3.058   4.568  1.7564  1.4298 -0.2492
 3181SOL    HW210114   2.083   3.190   4.575 -4.3058 -1.6558  2.2406
 3182SOL     OW10115   1.295   7.327   1.276  0.1472  0.4464  0.0397
 3182SOL    HW110116   1.351   7.249   1.282 -0.8343 -0.5320 -2.3953
 3182SOL    HW210117   1.229   7.314   1.344 -0.7408 -1.5210 -1.1338
 3183SOL     OW10118   0.511   1.113   4.492 -0.0908  1.1162 -0.4897
 3183SOL    HW110119   0.584   1.166   4.460  0.6921 -0.2489 -1.0575
 3183SOL    HW210120   0.547   1.068   4.569  0.1109 -0.5066 -1.4755
 3184SOL     OW10121   0.957   0.765   4.056 -0.0375 -0.3845  0.0405
 3184SOL    HW110122   0.913   0.831   4.109  1.3839  1.3172 -0.8212
 3184SOL    HW210123   0.901   0.755   3.979 -1.4351 -1.9235  1.1895
 3185SOL     OW10124   2.760   0.260   0.200 -0.2623 -0.5514  0.5293
 3185SOL    HW110125   2.788   0.347   0.169 -1.0499  0.1083  1.6014
 3185SOL    HW210126   2.769   0.204   0.123  0.4773  0.4205 -0.1337
 3186SOL     OW10127   1.565   3.704   7.131 -0.3998  0.7283  0.2706
 3186SOL    HW110128   1.587   3.628   7.077 -2.2845  0.8800 -0.7784
 3186SOL    HW210129   1.532   3.667   7.213 -1.3144  0.3973 -0.2370
 3187SOL     OW10130   0.538   4.171   2.503  0.1752  0.3566 -0.3580
 3187SOL    HW110131   0.603   4.157   2.573  0.8386 -0.5636 -1.1441
 3187SOL    HW210132   0.461   4.204   2.549  1.4357  2.2787  0.5275
 3188SOL     OW10133   2.523   3.946   4.214  0.0646 -0.1881  0.7013
 3188SOL    HW110134   2.579   3.967   4.140 -0.2494  0.0123  0.5161
 3188SOL    HW210135   2.489   4.031   4.243  0.1736 -0.2649  1.0670
 3189SOL     OW10136   3.650   3.760   4.889 -0.3849 -0.1274 -0.1743
 3189SOL    HW110137   3.597   3.836   4.915  0.4840  0.4118  0.0803
 3189SOL    HW210138   3.673   3.778   4.798  0.0312  0.0453 -0.0370
 3190SOL     OW10139   0.097   0.254   3.002  0.5271 -0.1815  0.4147
 3190SOL    HW110140   0.151   0.301   2.939  0.8104  0.7464  1.3192
 3190SOL    HW210141   0.008   0.265   2.969  0.5730  1.0945  0.6461
 3191SOL     OW10142   2.157   2.222   0.603  0.2563 -0.5649 -0.9038
 3191SOL    HW110143   2.104   2.162   0.552 -1.3475  1.0826 -1.2792
 3191SOL    HW210144   2.149   2.192   0.693  0.7212 -1.7567 -1.2353
 3192SOL     OW10145   4.368   3.130   3.884  0.3890  0.6622 -0.1669
 3192SOL    HW110146   4.353   3.221   3.857 -1.2275  0.5372  0.1598
 3192SOL    HW210147   4.357   3.079   3.804  0.6623  0.7061 -0.2316
 3193SOL     OW10148   5.595   2.213   6.366 -0.3173 -0.2248 -0.4151
 3193SOL    HW110149   5.600   2.285   6.302  0.6835  1.8434  1.8269
 3193SOL    HW210150   5.676   2.163   6.352  2.1464  2.7159  1.7862
 3194SOL     OW10151   3.894   2.047   0.434  0.2458 -0.4911  0.1126
 3194SOL    HW110152   3.902   2.080   0.524 -1.1347  0.3798 -0.0462
 3194SOL    HW210153   3.954   2.101   0.383 -1.4378  1.3856 -0.0189
 3195SOL     OW10154   0.325   3.569   1.200  0.6790 -0.4692 -0.1497
 3195SOL    HW110155   0.328   3.660   1.171 -0.4568 -0.4931 -0.3707
 3195SOL    HW210156   0.320   3.574   1.296 -0.3642 -0.2727 -0.2118
 3196SOL     OW10157   6.317   6.000   5.909 -0.2386 -0.1050  0.4168
 3196SOL    HW110158   6.255   6.065   5.939  0.1810  0.3141  0.3889
 3196SOL    HW210159   6.355   5.964   5.989  0.1937  0.3379  0.4121
 3197SOL     OW10160   3.351   6.051   3.288  0.1925  0.6066  0.2985
 3197SOL    HW110161   3.405   6.093   3.355 -0.0742  1.3020  0.0861
 3197SOL    HW210162   3.381   6.088   3.205  1.4151 -1.2060 -0.1281
 3198SOL     OW10163   2.451   6.526   6.917  0.7139 -0.6146  1.0439
 3198SOL    HW110164   2.407   6.515   6.833 -0.8075  1.6960  1.4312
 3198SOL    HW210165   2.544   6.533   6.895  0.6410 -2.5362 -0.1276
 3199SOL     OW10166   3.682   0.081   0.321 -0.1538 -0.0092  0.0065
 3199SOL    HW110167   3.653   0.066   0.231  1.1657  1.2116 -0.6666
 3199SOL    HW210168   3.774   0.055   0.321 -0.0101  0.4608  0.8888
 3200SOL     OW10169   5.465   6.375   4.099  0.6013  0.4264 -0.4400
 3200SOL    HW110170   5.398   6.373   4.031 -1.3560  0.6439  1.3704
 3200SOL    HW210171   5.419   6.409   4.176  2.4831 -0.6022  1.2152
 3201SOL     OW10172   1.363   1.813   3.437  0.0282 -0.6786 -0.2186
 3201SOL    HW110173   1.294   1.814   3.503 -1.0359 -3.0308 -1.1947
 3201SOL    HW210174   1.326   1.862   3.363 -0.8798 -2.3724 -0.9366
 3202SOL     OW10175   0.952   2.328   6.113  1.1746 -0.4545  0.1578
 3202SOL    HW110176   0.869   2.299   6.076  0.8273 -1.9010  1.9523
 3202SOL    HW210177   0.968   2.413   6.071 -0.5266 -0.7396 -1.1939
 3203SOL     OW10178   2.674   3.706   2.385  0.2359 -0.6456  0.0854
 3203SOL    HW110179   2.634   3.620   2.380 -0.5587 -0.1943 -2.9312
 3203SOL    HW210180   2.601   3.766   2.400  0.8392 -0.4482  2.7314
 3204SOL     OW10181   2.244   5.498   1.599 -0.2095  0.0010  0.0903
 3204SOL    HW110182   2.235   5.587   1.565 -0.7175 -0.0812  0.0090
 3204SOL    HW210183   2.338   5.489   1.618  0.1787 -0.0838 -1.6859
 3205SOL     OW10184   0.531   3.989   0.032  0.0350 -0.1285 -0.3501
 3205SOL    HW110185   0.541   3.897   0.055 -0.5012  0.0501  0.6444
 3205SOL    HW210186   0.491   3.987  -0.055  2.8893 -0.8066 -1.7597
 3206SOL     OW10187   4.982   4.350   1.498  0.1927 -0.1590  0.6681
 3206SOL    HW110188   5.018   4.350   1.587 -0.0789 -1.2219  0.8038
 3206SOL    HW210189   5.059   4.342   1.441  0.2976 -0.8733  0.8867
 3207SOL     OW10190   4.448   5.992   2.752 -0.3761 -0.0737  0.0459
 3207SOL    HW110191   4.370   6.030   2.790 -0.1466 -0.4085  0.8689
 3207SOL    HW210192   4.416   5.921   2.697 -0.7252  0.5736 -0.6056
 3208SOL     OW10193   3.454   2.781   5.207  0.2355 -0.5394  0.1458
 3208SOL    HW110194   3.545   2.809   5.216 -0.1776  1.0232 -0.0988
 3208SOL    HW210195   3.414   2.849   5.152 -1.6410  0.2603  2.3130
 3209SOL     OW10196   3.207   3.713   1.944  0.2087  0.1220  0.1531
 3209SOL    HW110197   3.199   3.687   2.036  1.4320  2.0434  0.8659
 3209SOL    HW210198   3.211   3.809   1.947  1.5628  0.1773 -1.7891
 3210SOL     OW10199   7.150   1.606   6.650  0.4409 -0.2138  0.0435
 3210SOL    HW110200   7.090   1.625   6.578  1.3653 -2.2186 -1.3367
 3210SOL    HW210201   7.099   1.552   6.710 -1.2104  3.5677  2.4471
 3211SOL     OW10202   6.670   3.590   5.382 -0.0032 -0.0877  0.5124
 3211SOL    HW110203   6.752   3.590   5.432 -0.4156  0.4582  1.2039
 3211SOL    HW210204   6.633   3.676   5.396 -0.3921 -0.1077 -0.3315
 3212SOL     OW10205   0.298   7.373   5.685  0.2912 -0.3395 -0.1820
 3212SOL    HW110206   0.245   7.412   5.615  0.4415  0.1366 -0.0270
 3212SOL    HW210207   0.343   7.446   5.726  0.6241 -0.6801  0.0680
 3213SOL     OW10208   1.844   3.555   3.016 -0.0977  0.4548 -0.6816
 3213SOL    HW110209   1.814   3.605   3.091 -0.4027 -0.1763 -0.3694
 3213SOL    HW210210   1.781   3.575   2.947 -0.8038 -0.2369 -0.2665
 3214SOL     OW10211   6.944   4.672   1.940  0.4765 -0.4632 -0.0456
 3214SOL    HW110212   6.859   4.704   1.911  0.1582 -0.2579  1.0871
 3214SOL    HW210213   6.943   4.579   1.916 -0.5710 -0.7599  1.0049
 3215SOL     OW10214   3.510   2.416   7.159 -0.1095 -0.2252 -0.0196
 3215SOL    HW110215   3.479   2.333   7.195  0.2846 -0.7663 -0.9062
 3215SOL    HW210216   3.568   2.392   7.088 -0.5403  0.8153 -0.7552
 3216SOL     OW10217   1.922   0.674   3.958 -0.3810 -0.6821 -0.0995
 3216SOL    HW110218   1.865   0.742   3.923  0.8268  0.4478  0.0654
 3216SOL    HW210219   1.863   0.604   3.984 -1.5728 -0.1434 -1.2590
 3217SOL     OW10220   4.148   4.289   3.821 -0.2119  0.5766 -0.3335
 3217SOL    HW110221   4.069   4.318   3.775 -1.0459 -1.0193  0.0158
 3217SOL    HW210222   4.123   4.206   3.861  2.0848 -0.7796 -1.4711
 3218SOL     OW10223   6.085   1.430   0.609 -0.1427  0.0118  0.1875
 3218SOL    HW110224   6.009   1.402   0.558  0.4607 -0.0395 -0.7256
 3218SOL    HW210225   6.065   1.406   0.699 -0.6865 -1.1427 -0.2156
 3219SOL     OW10226   1.710   1.849   4.685  0.1127  0.4687 -0.5738
 3219SOL    HW110227   1.733   1.786   4.617  0.9215  2.5722 -2.3578
 3219SOL    HW210228   1.792   1.892   4.708 -0.1907  0.0721  1.5533
 3220SOL     OW10229   7.247   2.633   5.059  0.5803 -0.3966 -0.2233
 3220SOL    HW110230   7.245   2.594   5.147  0.7766 -1.6358 -0.7521
 3220SOL    HW210231   7.329   2.602   5.021 -0.1095 -0.9404 -1.3093
 3221SOL     OW10232   3.391   1.596   1.881 -0.3263 -0.2482 -0.2495
 3221SOL    HW110233   3.429   1.614   1.967  1.1463 -1.3144 -0.6333
 3221SOL    HW210234   3.330   1.668   1.866  2.1766  2.1133  0.0623
 3222SOL     OW10235   4.327   1.802   5.297  0.5217  0.5224 -0.3676
 3222SOL    HW110236   4.401   1.839   5.345  2.0795 -1.4215 -1.1371
 3222SOL    HW210237   4.290   1.877   5.250 -1.0402  2.5018  3.5922
 3223SOL     OW10238   3.305   4.494   0.012  0.1141 -0.2827 -0.5216
 3223SOL    HW110239   3.303   4.400  -0.003 -0.8160 -0.2986 -0.3639
 3223SOL    HW210240   3.392   4.522  -0.017  0.0477 -1.0392 -1.4641
 3224SOL     OW10241   3.817   1.560   4.540 -0.9792 -0.2644 -0.3858
 3224SOL    HW110242   3.741   1.612   4.513 -1.2020 -0.8334 -0.8732
 3224SOL    HW210243   3.788   1.469   4.534 -1.4275 -0.4418  2.9488
 3225SOL     OW10244   4.933   1.171   7.351  0.1127 -0.1359 -0.4169
 3225SOL    HW110245   5.017   1.124   7.343 -1.3500 -3.1383  0.4228
 3225SOL    HW210246   4.939   1.216   7.435  0.9634 -0.1077 -0.4822
 3226SOL     OW10247   0.709   7.272   4.180 -0.3743 -0.3607  0.4354
 3226SOL    HW110248   0.750   7.214   4.244 -1.0929 -0.5793  0.6991
 3226SOL    HW210249   0.676   7.346   4.232 -0.0681 -0.0431  0.1863
 3227SOL     OW10250   2.258   3.440   0.047 -0.0134  0.3628  0.3969
 3227SOL    HW110251   2.238   3.523   0.091 -0.6173  0.0783  0.6661
 3227SOL    HW210252   2.202   3.441  -0.031 -2.0353 -0.9516  1.7363
 3228SOL     OW10253   5.713   5.506   4.842  0.4114 -0.3807  0.1888
 3228SOL    HW110254   5.779   5.550   4.896  0.8082  1.4182 -1.6016
 3228SOL    HW210255   5.761   5.477   4.765 -0.4717 -1.1340 -0.0928
 3229SOL     OW10256   6.887   0.356   3.874  0.6036 -0.6415 -0.0482
 3229SOL    HW110257   6.948   0.425   3.847  0.2150 -0.2472  0.0735
 3229SOL    HW210258   6.882   0.298   3.799  0.0780  0.0661 -0.5778
 3230SOL     OW10259   4.821   0.635   5.884 -0.2932 -0.3532 -0.4706
 3230SOL    HW110260   4.885   0.568   5.863 -0.4766 -0.9465  0.7663
 3230SOL    HW210261   4.856   0.678   5.962 -1.6913 -1.1387  0.6447
 3231SOL     OW10262   4.434   2.034   1.648  0.4403  0.4022 -0.0701
 3231SOL    HW110263   4.349   1.990   1.660  1.5717 -2.3399 -1.2115
 3231SOL    HW210264   4.463   2.006   1.561  3.3191 -0.3005  1.0083
 3232SOL     OW10265   4.861   3.922   4.123 -0.2117 -0.1831 -0.9280
 3232SOL    HW110266   4.849   3.958   4.035 -0.7998  0.0616 -0.7591
 3232SOL    HW210267   4.778   3.941   4.168  0.3527  0.3832 -0.0841
 3233SOL     OW10268   3.698   7.006   2.683  0.1466  0.3527  0.0561
 3233SOL    HW110269   3.649   7.088   2.693  0.1673  0.5266 -1.0395
 3233SOL    HW210270   3.708   6.972   2.771 -1.7917  0.4051  0.3370
 3234SOL     OW10271   6.822   5.572   5.071 -0.1483 -0.0658  0.7582
 3234SOL    HW110272   6.827   5.603   4.980 -0.6037 -1.7470  0.1208
 3234SOL    HW210273   6.903   5.604   5.111 -0.2672  1.3065 -0.0239
 3235SOL     OW10274   1.063   3.528   4.983 -0.3026 -0.0729 -0.1406
 3235SOL    HW110275   0.997   3.523   5.052 -0.1766  2.0520  0.1783
 3235SOL    HW210276   1.099   3.439   4.979 -2.2645 -0.9717  0.5432
 3236SOL     OW10277   5.998   2.218   3.636 -0.0949 -0.2684  0.5528
 3236SOL    HW110278   5.918   2.173   3.607  0.6243 -0.4475 -1.2444
 3236SOL    HW210279   6.002   2.200   3.730 -2.1335 -0.2954  0.6813
 3237SOL     OW10280   1.690   6.277   6.202 -0.0502 -0.3320 -0.5031
 3237SOL    HW110281   1.770   6.321   6.172 -0.0788 -0.7445 -1.2082
 3237SOL    HW210282   1.625   6.347   6.208 -0.2238 -0.3216 -2.0854
 3238SOL     OW10283   6.477   6.683   4.938 -0.1250  0.9105 -0.2592
 3238SOL    HW110284   6.414   6.692   5.009  0.0829 -0.3924  0.1114
 3238SOL    HW210285   6.453   6.601   4.895 -0.7887  2.0643 -2.2566
 3239SOL     OW10286   0.705   5.253   4.205 -0.0659  0.5127 -0.0571
 3239SOL    HW110287   0.691   5.323   4.268  1.1421 -0.3388  1.2403
 3239SOL    HW210288   0.790   5.273   4.164  0.2295 -0.1001  0.2310
 3240SOL     OW10289   4.591   5.132   3.292 -0.2112  0.0139  0.1579
 3240SOL    HW110290   4.508   5.133   3.341 -0.2550 -0.8105  0.1043
 3240SOL    HW210291   4.659   5.130   3.360 -0.1228  2.7103  0.2839
 3241SOL     OW10292   6.840   6.006   4.081  0.0841 -0.3145  0.4286
 3241SOL    HW110293   6.813   6.029   3.992  1.2718  0.2133  0.1872
 3241SOL    HW210294   6.789   5.928   4.102  1.3526 -1.7837 -1.5568
 3242SOL     OW10295   6.862   0.409   2.939  0.4665  0.0161  0.0166
 3242SOL    HW110296   6.899   0.465   3.007 -1.0498  1.7195 -0.4630
 3242SOL    HW210297   6.825   0.470   2.875  1.3734 -1.5320 -2.0950
 3243SOL     OW10298   4.524   2.856   6.673  0.0905  0.7967  0.1226
 3243SOL    HW110299   4.519   2.761   6.684  2.9988  0.7150  1.5935
 3243SOL    HW210300   4.437   2.887   6.697 -1.1692 -1.4924 -1.0701
 3244SOL     OW10301   2.978   4.787   3.246  0.3879 -0.6999  0.4067
 3244SOL    HW110302   3.020   4.701   3.250  0.7653 -0.5032  0.6339
 3244SOL    HW210303   3.004   4.831   3.327 -2.1248 -1.4281  1.7344
 3245SOL     OW10304   2.930   4.824   4.841 -0.1083  0.2057  0.4732
 3245SOL    HW110305   2.959   4.800   4.928  0.2715  0.7070  0.4897
 3245SOL    HW210306   2.946   4.919   4.835 -1.8256  0.5432  0.5258
 3246SOL     OW10307   2.850   0.664   0.086 -0.6526 -0.3317  0.3194
 3246SOL    HW110308   2.787   0.634   0.020 -0.8122  0.6103  0.0191
 3246SOL    HW210309   2.935   0.637   0.052 -0.8449 -1.0600  0.4132
 3247SOL     OW10310   7.326   6.253   4.512  0.2380  1.0184 -0.2344
 3247SOL    HW110311   7.362   6.248   4.601 -2.5327  0.4573  0.9539
 3247SOL    HW210312   7.366   6.332   4.475  0.9145  1.6936  1.7864
 3248SOL     OW10313   1.104   6.036   1.876  0.7414  0.2044 -0.0756
 3248SOL    HW110314   1.126   6.096   1.804  0.7869  0.5036  0.1868
 3248SOL    HW210315   1.128   5.949   1.842  1.4832  0.4240 -0.1431
 3249SOL     OW10316   5.073   0.281   5.561  0.5823  0.5320  0.7293
 3249SOL    HW110317   4.990   0.276   5.610  1.1857  1.5566  1.9014
 3249SOL    HW210318   5.138   0.245   5.621  0.9391 -0.7500 -0.3853
 3250SOL     OW10319   3.943   4.450   1.994  0.3581 -0.2446 -0.1232
 3250SOL    HW110320   3.854   4.455   2.029  0.9210 -0.7192  1.4515
 3250SOL    HW210321   3.966   4.541   1.974 -0.3059 -0.0707 -0.1065
 3251SOL     OW10322   1.174   1.928   4.853  0.1424 -0.6611  0.2737
 3251SOL    HW110323   1.107   1.944   4.920  0.0726  1.0024 -0.1612
 3251SOL    HW210324   1.127   1.884   4.783  0.3901 -3.2336  1.6054
 3252SOL     OW10325   5.242   5.394   0.983 -0.0048 -0.0316  0.0936
 3252SOL    HW110326   5.254   5.473   1.036  3.4246 -0.7099  0.5542
 3252SOL    HW210327   5.221   5.325   1.046 -2.4569  0.3230 -0.2518
 3253SOL     OW10328   5.745   1.535   0.456 -0.3723  0.2638  0.2402
 3253SOL    HW110329   5.773   1.600   0.392  0.9767 -0.9120 -0.4128
 3253SOL    HW210330   5.724   1.586   0.534 -0.0089  1.5333 -0.4633
 3254SOL     OW10331   5.295   7.361   0.658  0.4792 -0.4389  1.1294
 3254SOL    HW110332   5.362   7.294   0.642  0.8669  0.1557  0.0659
 3254SOL    HW210333   5.212   7.315   0.652  0.7177 -0.7321 -0.2641
 3255SOL     OW10334   3.596   1.617   5.057  0.2366  0.2490  0.3703
 3255SOL    HW110335   3.622   1.574   5.138  0.2982  1.1575  0.8501
 3255SOL    HW210336   3.545   1.551   5.009 -0.2504 -0.1321  1.3847
 3256SOL     OW10337   1.689   4.729   3.927  0.3117 -0.0707  0.5002
 3256SOL    HW110338   1.681   4.694   3.838 -0.9856 -0.1657  0.6265
 3256SOL    HW210339   1.711   4.653   3.981  0.3913 -0.1477  0.3593
 3257SOL     OW10340   6.093   6.801   4.185 -0.1868 -0.1399  0.5408
 3257SOL    HW110341   6.068   6.708   4.187 -0.3471 -0.2375 -2.3608
 3257SOL    HW210342   6.009   6.848   4.186 -0.1020  0.0671  2.4047
 3258SOL     OW10343   6.407   1.410   0.261 -0.1471 -0.4137  0.0678
 3258SOL    HW110344   6.378   1.338   0.205 -1.5659  0.2351 -0.0697
 3258SOL    HW210345   6.388   1.380   0.350  0.7796 -0.8650  0.1169
 3259SOL     OW10346   6.091   5.165   3.406 -0.2089 -0.2436 -0.6808
 3259SOL    HW110347   6.076   5.158   3.311  0.7775  0.0705 -0.8664
 3259SOL    HW210348   6.135   5.083   3.429  0.5622  0.1589 -0.7019
 3260SOL     OW10349   6.983   4.876   5.768 -0.0220 -0.2022  0.6475
 3260SOL    HW110350   7.074   4.899   5.787 -0.2489  0.4319  1.0195
 3260SOL    HW210351   6.948   4.848   5.852 -0.2603 -0.1230  0.5743
 3261SOL     OW10352   1.916   0.190   4.388  0.0476  0.0636  0.5810
 3261SOL    HW110353   1.826   0.189   4.355  0.0305 -0.2545  0.6360
 3261SOL    HW210354   1.926   0.106   4.432  0.6353 -0.2429 -0.1181
 3262SOL     OW10355   2.942   1.787   3.740 -0.4458  0.4549  0.1022
 3262SOL    HW110356   2.962   1.869   3.695  0.6067  0.3251  0.3069
 3262SOL    HW210357   2.982   1.796   3.826  1.8832 -1.1838 -0.6824
 3263SOL     OW10358   5.900   3.234   2.662 -0.1887 -0.3685  0.1928
 3263SOL    HW110359   5.902   3.315   2.713 -1.0810 -0.7511  0.8629
 3263SOL    HW210360   5.808   3.220   2.642 -0.0299 -1.1456 -0.0382
 3264SOL     OW10361   7.341   1.317   6.250 -0.3419  0.6127  0.2765
 3264SOL    HW110362   7.361   1.381   6.318  0.2346  0.2052  0.4987
 3264SOL    HW210363   7.330   1.234   6.298  0.2623  0.2851 -0.1374
 3265SOL     OW10364   0.255   3.470   4.326 -0.2364 -0.1740  0.0880
 3265SOL    HW110365   0.229   3.511   4.243 -1.4940 -1.7563 -0.3656
 3265SOL    HW210366   0.350   3.480   4.329 -0.0172 -0.9844 -2.0948
 3266SOL     OW10367   3.787   1.382   0.585 -0.2196 -0.2715 -0.2067
 3266SOL    HW110368   3.828   1.355   0.667  0.8236  2.3144  0.2018
 3266SOL    HW210369   3.718   1.443   0.611 -0.6122 -0.2555 -1.2267
 3267SOL     OW10370   1.726   1.735   5.857 -0.2808 -0.1896 -0.1511
 3267SOL    HW110371   1.791   1.745   5.787 -0.5815 -0.8091 -0.5172
 3267SOL    HW210372   1.657   1.797   5.834 -0.0816  0.0794 -0.0460
 3268SOL     OW10373   5.311   6.855   7.225  0.6416  0.2451 -0.2499
 3268SOL    HW110374   5.268   6.769   7.225  1.6384 -0.2797 -1.1345
 3268SOL    HW210375   5.256   6.909   7.169  0.2125  0.0819  0.0085
 3269SOL     OW10376   2.300   6.316   6.375  0.6367  0.3028 -0.0270
 3269SOL    HW110377   2.362   6.251   6.407  0.1066 -0.4700 -0.5506
 3269SOL    HW210378   2.275   6.366   6.453 -2.0862 -2.7229  1.2773
 3270SOL     OW10379   5.287   4.315   5.394  0.3795  0.3262  0.3976
 3270SOL    HW110380   5.231   4.363   5.456  0.6282  0.4592  0.5180
 3270SOL    HW210381   5.325   4.383   5.338 -0.5970  0.1404 -0.5375
 3271SOL     OW10382   0.203   5.374   3.251 -0.2655 -0.5933 -0.9190
 3271SOL    HW110383   0.194   5.321   3.330 -1.0447 -1.2381 -1.4163
 3271SOL    HW210384   0.119   5.363   3.206 -0.4761  1.1110 -1.0229
 3272SOL     OW10385   2.020   2.008   0.553 -0.1086 -0.3048  0.4370
 3272SOL    HW110386   2.104   1.964   0.548  0.1419  0.1689  0.4216
 3272SOL    HW210387   1.976   1.968   0.629 -0.7665 -2.0642 -0.8003
 3273SOL     OW10388   4.379   2.223   1.879 -0.0699  0.5805 -0.0824
 3273SOL    HW110389   4.330   2.147   1.847  0.3236  0.6198 -0.7905
 3273SOL    HW210390   4.454   2.186   1.925 -0.0135  0.5317 -0.2114
 3274SOL     OW10391   2.997   4.497   7.104 -0.1439  0.1310 -0.1065
 3274SOL    HW110392   3.071   4.557   7.089  0.8813 -1.5217 -2.1169
 3274SOL    HW210393   3.006   4.472   7.196  1.8051  0.0109 -0.2794
 3275SOL     OW10394   0.778   4.050   0.076  0.5638 -0.7706 -0.5372
 3275SOL    HW110395   0.770   4.137   0.037  0.7577  0.1336  1.3223
 3275SOL    HW210396   0.690   4.013   0.071  0.5538 -0.6171 -1.6410
 3276SOL     OW10397   4.771   0.451   1.909 -0.0857 -0.7722 -0.0042
 3276SOL    HW110398   4.760   0.372   1.856  2.9993 -0.0552 -1.9749
 3276SOL    HW210399   4.734   0.521   1.856  0.1777 -0.4750  0.1975
 3277SOL     OW10400   0.810   5.669   6.960 -0.5112  0.0768  0.0102
 3277SOL    HW110401   0.796   5.642   7.050  0.6951 -0.3552  0.0920
 3277SOL    HW210402   0.805   5.588   6.909  0.5734  0.0354 -0.0649
 3278SOL     OW10403   0.415   2.051   1.158  0.5891 -0.4354  0.2505
 3278SOL    HW110404   0.501   2.093   1.165  1.0563 -1.2583 -0.3546
 3278SOL    HW210405   0.418   1.981   1.223 -0.0146  0.1613  0.9364
 3279SOL     OW10406   2.599   2.317   3.027  0.4539  0.2530  0.1737
 3279SOL    HW110407   2.666   2.384   3.014  0.0689  0.6466  0.2047
 3279SOL    HW210408   2.518   2.358   2.998 -0.0142  0.2915  1.4513
 3280SOL     OW10409   2.846   0.996   3.083 -0.5978 -0.0586  0.3190
 3280SOL    HW110410   2.831   0.907   3.116  0.9284 -1.0828 -1.4856
 3280SOL    HW210411   2.904   1.036   3.147 -1.2103 -0.3950  1.0989
 3281SOL     OW10412   3.025   4.542   6.750 -0.3127 -0.7934 -0.3024
 3281SOL    HW110413   3.042   4.622   6.799  0.7837 -0.4982 -1.1303
 3281SOL    HW210414   3.090   4.542   6.680 -0.2790 -2.4115 -0.3149
 3282SOL     OW10415   2.050   6.792   0.291 -0.7824  0.0537 -0.6642
 3282SOL    HW110416   2.012   6.768   0.376  1.7995  1.4531  1.0298
 3282SOL    HW210417   2.019   6.881   0.275  1.1798  0.9741  0.4299
 3283SOL     OW10418   7.150   2.418   3.215  0.2786 -0.3516  0.0123
 3283SOL    HW110419   7.144   2.510   3.242  0.1847 -0.2214 -0.4409
 3283SOL    HW210420   7.066   2.399   3.175 -0.5244 -1.2775  2.0188
 3284SOL     OW10421   5.904   1.707   1.859  0.2079  0.4630 -0.1303
 3284SOL    HW110422   5.982   1.728   1.911  0.2344 -0.2757  0.1419
 3284SOL    HW210423   5.844   1.667   1.922 -0.0323  0.1927 -0.5308
 3285SOL     OW10424   3.532   6.882   0.812 -0.3737  0.3008 -0.3178
 3285SOL    HW110425   3.495   6.882   0.724  1.1796  2.5425 -1.0682
 3285SOL    HW210426   3.486   6.952   0.858  2.0380  2.4800 -0.9749
 3286SOL     OW10427   1.268   0.530   4.744 -0.6026 -0.5493 -0.2265
 3286SOL    HW110428   1.255   0.589   4.818 -0.3806  0.6908 -1.1515
 3286SOL    HW210429   1.362   0.508   4.747 -0.1043  1.2523 -1.3828
 3287SOL     OW10430   1.149   7.247   4.632  0.1752 -0.1421  0.4062
 3287SOL    HW110431   1.147   7.225   4.726 -0.0239  0.8100  0.6369
 3287SOL    HW210432   1.156   7.163   4.588 -1.6053 -0.7466  1.1980
 3288SOL     OW10433   6.880   3.661   5.527 -0.1080 -0.3798 -0.6015
 3288SOL    HW110434   6.969   3.625   5.532 -0.2568 -0.9890 -1.7950
 3288SOL    HW210435   6.864   3.697   5.614  0.8605 -1.3398  0.0134
 3289SOL     OW10436   4.173   0.194   2.149  0.0543  0.1406  0.3610
 3289SOL    HW110437   4.111   0.161   2.084 -0.7172 -2.1948  2.1273
 3289SOL    HW210438   4.216   0.115   2.182 -0.3561  1.0772  3.4012
 3290SOL     OW10439   1.292   3.685   1.641 -0.4237  0.1021 -0.0513
 3290SOL    HW110440   1.343   3.638   1.575 -0.6875 -0.1406 -0.0846
 3290SOL    HW210441   1.331   3.773   1.643 -1.0039  0.4189 -1.2131
 3291SOL     OW10442   6.788   2.610   4.134  0.1266  0.3123 -0.0580
 3291SOL    HW110443   6.712   2.660   4.164 -0.7477 -1.5078  0.9268
 3291SOL    HW210444   6.757   2.519   4.129  1.6572 -0.1835 -1.7158
 3292SOL     OW10445   3.158   4.939   0.665  0.4418 -0.2078 -0.2407
 3292SOL    HW110446   3.231   4.892   0.706  0.0947  0.4260  1.1367
 3292SOL    HW210447   3.119   4.874   0.606  0.8255 -1.2271  0.5820
 3293SOL     OW10448   2.386   2.556   1.964  0.0084  0.4002  0.5146
 3293SOL    HW110449   2.375   2.589   2.053  0.2728 -1.1721  1.1756
 3293SOL    HW210450   2.386   2.634   1.909  0.5559  1.4608  1.9503
 3294SOL     OW10451   2.244   3.852   3.015 -0.3797  0.1515 -0.4373
 3294SOL    HW110452   2.313   3.841   2.949  0.3362  0.6387  0.2140
 3294SOL    HW210453   2.231   3.765   3.051 -1.5101 -0.3341 -1.9176
 3295SOL     OW10454   3.294   1.678   1.109  0.2078  0.1713 -0.3296
 3295SOL    HW110455   3.242   1.609   1.150 -0.8268  1.6380  0.9054
 3295SOL    HW210456   3.381   1.670   1.149  0.5488 -1.3091 -1.2807
 3296SOL     OW10457   2.983   4.405   1.439  0.5461 -0.2868  0.0864
 3296SOL    HW110458   2.961   4.496   1.460  0.2149  0.0401 -1.5321
 3296SOL    HW210459   2.899   4.358   1.445  0.6972 -0.4809  0.8089
 3297SOL     OW10460   5.177   2.448   2.217 -0.4363 -0.7925 -0.5323
 3297SOL    HW110461   5.215   2.387   2.153 -0.8252 -2.2978  0.6126
 3297SOL    HW210462   5.188   2.404   2.301 -1.3326  0.4438  0.2568
 3298SOL     OW10463   0.238   1.943   1.530 -0.5227 -0.5883  0.3912
 3298SOL    HW110464   0.163   1.885   1.538 -0.6758 -0.6295 -1.0883
 3298SOL    HW210465   0.201   2.031   1.519 -0.4508 -0.8174 -2.1061
 3299SOL     OW10466   4.551   4.862   4.801 -0.2338  0.7338 -0.1043
 3299SOL    HW110467   4.609   4.914   4.857 -0.4415  2.5077 -1.4677
 3299SOL    HW210468   4.462   4.890   4.826 -0.3938  0.2861 -0.1606
 3300SOL     OW10469   1.854   6.525   5.269  0.6351 -0.0707 -0.8958
 3300SOL    HW110470   1.903   6.458   5.221  0.2218 -1.2459  0.2784
 3300SOL    HW210471   1.762   6.504   5.253  0.4985  0.3544 -0.6904
 3301SOL     OW10472   1.678   4.690   5.026 -0.4251  0.0560 -0.5662
 3301SOL    HW110473   1.616   4.743   4.976 -0.7135 -1.7762 -2.3263
 3301SOL    HW210474   1.657   4.600   5.002  0.6185 -0.8367  1.5815
 3302SOL     OW10475   5.685   0.273   0.158  0.2323 -0.0855  0.0523
 3302SOL    HW110476   5.773   0.255   0.126  0.9568  2.7348  0.1937
 3302SOL    HW210477   5.697   0.296   0.250 -0.5383  0.8340 -0.0529
 3303SOL     OW10478   4.551   1.466   1.643 -0.1039  0.1874 -0.7496
 3303SOL    HW110479   4.472   1.496   1.689 -0.4638 -0.9080 -0.6275
 3303SOL    HW210480   4.604   1.545   1.633 -1.6199  1.1296 -1.6648
 3304SOL     OW10481   6.662   6.239   4.263  0.2782 -0.1982  0.0064
 3304SOL    HW110482   6.721   6.166   4.282 -0.6137 -0.3320  2.6747
 3304SOL    HW210483   6.710   6.317   4.292 -0.9418 -0.3612  2.7521
 3305SOL     OW10484   0.814   6.101   0.820  0.2146 -0.1777  0.0189
 3305SOL    HW110485   0.898   6.106   0.774 -0.5051 -0.6207 -1.4133
 3305SOL    HW210486   0.750   6.124   0.753 -0.6786  2.6836  1.6958
 3306SOL     OW10487   3.742   6.329   1.634 -0.4817 -0.9706 -0.2164
 3306SOL    HW110488   3.814   6.275   1.667  0.6363  1.0000  0.7445
 3306SOL    HW210489   3.710   6.282   1.557  1.6427 -2.0664 -0.5025
 3307SOL     OW10490   7.091   5.667   5.035 -0.7858 -0.3687  0.1764
 3307SOL    HW110491   7.176   5.625   5.041 -1.4138 -1.5249  1.6059
 3307SOL    HW210492   7.071   5.669   4.941  1.5191  1.5016 -0.3618
 3308SOL     OW10493   0.376   2.902   4.120  0.3832 -0.1764  0.3104
 3308SOL    HW110494   0.327   2.820   4.122 -0.9103  0.5735  0.7597
 3308SOL    HW210495   0.358   2.939   4.034  1.3847 -0.5923 -0.0897
 3309SOL     OW10496   2.602   0.734   1.882 -0.3740  0.6117  0.5102
 3309SOL    HW110497   2.542   0.683   1.827 -1.0023  0.1708  1.5659
 3309SOL    HW210498   2.667   0.670   1.911  0.0650  0.8843  0.1445
 3310SOL     OW10499   5.019   5.002   1.673 -0.7840 -0.3379  0.2709
 3310SOL    HW110500   4.967   5.073   1.636  0.2832  0.6182  0.5641
 3310SOL    HW210501   4.984   4.990   1.762  0.1092  0.9981  0.8426
 3311SOL     OW10502   2.891   7.119   6.995  0.0060 -0.1872 -0.3761
 3311SOL    HW110503   2.908   7.213   7.004  1.5760 -0.5661  1.0951
 3311SOL    HW210504   2.839   7.112   6.915  0.1011  1.8988 -0.6791
 3312SOL     OW10505   3.738   3.486   0.740 -0.0126 -0.3241  0.3539
 3312SOL    HW110506   3.709   3.546   0.672 -0.9540 -1.3632 -0.2003
 3312SOL    HW210507   3.833   3.500   0.747 -0.0479  0.4144 -0.5383
 3313SOL     OW10508   4.147   5.740   7.304 -0.5796  0.3421  0.3908
 3313SOL    HW110509   4.227   5.724   7.355 -0.7770  1.9434  1.2868
 3313SOL    HW210510   4.102   5.656   7.304  1.0824 -0.6019 -0.1368
 3314SOL     OW10511   1.646   7.194   4.709 -0.3280  0.0786 -0.0520
 3314SOL    HW110512   1.683   7.121   4.758 -2.6799 -0.5966  0.8476
 3314SOL    HW210513   1.676   7.180   4.619  0.0044 -1.4917  0.2706
 3315SOL     OW10514   6.907   0.459   5.054  0.6510  0.0302  0.4199
 3315SOL    HW110515   6.884   0.549   5.031  0.0577 -0.2077  0.0692
 3315SOL    HW210516   6.826   0.409   5.040  0.7327 -0.4110  1.4449
 3316SOL     OW10517   0.960   6.616   3.848 -0.2357  0.1155  0.3616
 3316SOL    HW110518   0.988   6.705   3.873 -1.8246  1.3245 -1.8115
 3316SOL    HW210519   0.999   6.602   3.762 -0.5640 -1.0202  0.3857
 3317SOL     OW10520   4.529   5.944   7.178  0.2358  0.7226 -0.0105
 3317SOL    HW110521   4.558   5.858   7.148  1.0795  0.9299  0.1837
 3317SOL    HW210522   4.437   5.932   7.203  1.0148 -0.7628  2.4899
 3318SOL     OW10523   3.077   4.394   5.705 -0.6293 -0.1090 -0.2792
 3318SOL    HW110524   3.099   4.302   5.695 -1.1474 -0.2505 -0.0968
 3318SOL    HW210525   3.049   4.422   5.618 -1.3525 -0.3556 -0.1293
 3319SOL     OW10526   1.712   1.418   0.046 -0.3052  0.6410  0.0980
 3319SOL    HW110527   1.756   1.394   0.128 -1.1216  0.1721  0.4116
 3319SOL    HW210528   1.624   1.445   0.073 -0.4724  0.8149 -0.5960
 3320SOL     OW10529   4.700   4.954   4.445  0.4279  0.5397 -0.2947
 3320SOL    HW110530   4.781   4.925   4.488 -0.2286 -0.1740  0.5016
 3320SOL    HW210531   4.670   5.028   4.499  0.0539  0.1924 -0.0193
 3321SOL     OW10532   0.090   3.694   4.534 -0.4540  0.3082  0.5986
 3321SOL    HW110533   0.127   3.705   4.447 -0.5412  1.6480  0.7045
 3321SOL    HW210534   0.073   3.783   4.564  1.4298  0.0330  2.7757
 3322SOL     OW10535   5.901   5.655   1.647  0.1499  0.4333  0.3026
 3322SOL    HW110536   5.819   5.637   1.602  0.2362  1.3250 -0.2465
 3322SOL    HW210537   5.968   5.648   1.579  0.3825  0.9438  0.4706
 3323SOL     OW10538   5.050   1.551   3.373 -0.0696 -0.1243  0.1202
 3323SOL    HW110539   4.962   1.582   3.350  0.0888 -0.8016 -1.5223
 3323SOL    HW210540   5.062   1.579   3.464 -0.8084  2.6201 -0.5433
 3324SOL     OW10541   6.376   0.957   5.400 -0.4301  0.3348  0.2704
 3324SOL    HW110542   6.395   0.886   5.461 -1.4424  1.0641  1.5040
 3324SOL    HW210543   6.313   1.012   5.447  1.1813  2.6884 -0.1416
 3325SOL     OW10544   4.892   3.190   2.831 -0.1023  0.0412 -0.3116
 3325SOL    HW110545   4.927   3.123   2.889 -1.1829  0.6229  1.0741
 3325SOL    HW210546   4.968   3.243   2.806  0.4376 -0.4610  0.2422
 3326SOL     OW10547   2.263   2.035   2.143 -0.2778  0.6817  1.1354
 3326SOL    HW110548   2.169   2.027   2.162 -0.5567  0.5515 -0.2058
 3326SOL    HW210549   2.298   1.947   2.159 -0.7233  0.2738 -0.0560
 3327SOL     OW10550   6.926   3.747   6.741  0.5834  0.1919  0.2228
 3327SOL    HW110551   6.963   3.829   6.774  2.0991 -0.5733  0.5146
 3327SOL    HW210552   6.970   3.732   6.658  0.4362 -0.4174  0.2503
 3328SOL     OW10553   5.950   5.463   0.840 -0.2562 -0.6002 -0.3356
 3328SOL    HW110554   5.899   5.437   0.916  0.2781 -0.8507 -0.0630
 3328SOL    HW210555   5.890   5.451   0.766 -1.7699  2.3090  0.2703
 3329SOL     OW10556   0.008   5.400   0.639  0.2872  0.3003  0.1793
 3329SOL    HW110557  -0.049   5.402   0.716  1.4574  0.4038  1.0744
 3329SOL    HW210558  -0.013   5.480   0.591 -1.5785 -0.5347 -0.4781
 3330SOL     OW10559   5.729   6.177   4.835 -0.6734 -0.1192 -0.0344
 3330SOL    HW110560   5.759   6.111   4.897  0.6218 -0.4965 -1.0301
 3330SOL    HW210561   5.785   6.166   4.758 -1.5508  1.0207 -0.8825
 3331SOL     OW10562   4.300   3.576   5.286  0.1389 -0.4015  0.3330
 3331SOL    HW110563   4.268   3.645   5.344 -0.6033 -0.4492 -0.0175
 3331SOL    HW210564   4.279   3.607   5.198 -0.2500 -1.0960  0.1784
 3332SOL     OW10565   4.558   1.368   7.422 -0.4021 -0.1810 -0.4354
 3332SOL    HW110566   4.479   1.318   7.441  0.4598 -1.5642 -0.3431
 3332SOL    HW210567   4.604   1.315   7.357  0.5220  0.5274 -0.3732
 3333SOL     OW10568   0.557   1.252   1.713 -0.0018  0.1065 -0.4648
 3333SOL    HW110569   0.467   1.285   1.713 -0.2198 -0.4750 -0.7791
 3333SOL    HW210570   0.587   1.266   1.803  0.2901  2.1264 -0.8351
 3334SOL     OW10571   5.556   4.580   3.939  0.4574 -0.3750 -0.2239
 3334SOL    HW110572   5.617   4.509   3.921 -0.3421 -1.0022 -0.5403
 3334SOL    HW210573   5.477   4.536   3.972  0.0094  0.3792 -0.2551
 3335SOL     OW10574   4.035   2.189   0.223  0.4724 -0.5286 -0.2232
 3335SOL    HW110575   3.985   2.260   0.183  0.7086 -1.9888 -3.4642
 3335SOL    HW210576   4.122   2.225   0.236  0.0074  0.4290  0.3209
 3336SOL     OW10577   7.394   6.991   4.343 -0.1760 -0.4263 -0.3354
 3336SOL    HW110578   7.332   6.939   4.393  0.6681 -0.2589  0.9372
 3336SOL    HW210579   7.464   7.012   4.405  0.6528  0.2465 -1.4456
 3337SOL     OW10580   4.780   6.763   0.878  0.2841  0.3231 -0.2182
 3337SOL    HW110581   4.685   6.775   0.886  0.2250  0.9341 -1.6383
 3337SOL    HW210582   4.813   6.784   0.966 -0.8526  0.4992  0.1958
 3338SOL     OW10583   2.775   5.354   5.576 -0.2634  0.4805 -0.2635
 3338SOL    HW110584   2.793   5.370   5.483 -1.5456  2.0501 -0.2902
 3338SOL    HW210585   2.763   5.441   5.613 -0.7900 -0.1729  1.1631
 3339SOL     OW10586   3.464   4.949   1.786 -0.1966 -0.1567 -0.0676
 3339SOL    HW110587   3.460   4.940   1.691  0.0339  0.7733 -0.1699
 3339SOL    HW210588   3.456   4.859   1.819  1.0362 -0.6361 -1.0032
 3340SOL     OW10589   4.162   2.850   3.064  0.3097  0.3144  0.0224
 3340SOL    HW110590   4.214   2.780   3.025 -0.7419 -0.3861 -0.1607
 3340SOL    HW210591   4.099   2.805   3.120 -0.8495  1.0520 -0.6365
 3341SOL     OW10592   7.291   5.446   5.085 -0.0467  0.2582  0.4831
 3341SOL    HW110593   7.289   5.451   5.180  0.9725 -2.3926  0.7237
 3341SOL    HW210594   7.377   5.408   5.064  0.1586  1.6554 -1.5859
 3342SOL     OW10595   6.644   0.459   5.650  0.0877 -0.3437  0.8185
 3342SOL    HW110596   6.587   0.455   5.727  0.0925  3.1923  1.1662
 3342SOL    HW210597   6.731   0.439   5.683 -0.0383  0.3651  1.6281
 3343SOL     OW10598   2.508   1.381   1.571  0.2841 -0.1110 -0.2779
 3343SOL    HW110599   2.459   1.300   1.581  0.1029 -0.1067 -1.0431
 3343SOL    HW210600   2.460   1.446   1.623  0.9741 -0.6956  1.1519
 3344SOL     OW10601   4.038   4.207   1.705 -0.0236 -0.1685  0.2151
 3344SOL    HW110602   3.975   4.136   1.697  2.8801 -2.8520 -0.9198
 3344SOL    HW210603   4.014   4.251   1.787 -4.4928  0.3700 -1.1225
 3345SOL     OW10604   6.659   4.779   5.002  0.6160  0.1504 -0.4249
 3345SOL    HW110605   6.714   4.838   4.950  0.5185  0.0386 -0.6562
 3345SOL    HW210606   6.658   4.818   5.089  1.3207 -0.0143 -0.3359
 3346SOL     OW10607   7.055   5.051   1.372  0.0497  0.7485  0.3474
 3346SOL    HW110608   7.012   5.043   1.457 -1.3252 -1.0395 -0.4548
 3346SOL    HW210609   6.984   5.050   1.309  1.1663 -0.4283 -0.9448
 3347SOL     OW10610   4.755   3.515   1.271  0.2184 -0.6620 -0.2129
 3347SOL    HW110611   4.713   3.436   1.306 -0.4867  0.0929  0.7137
 3347SOL    HW210612   4.729   3.517   1.179 -0.3914 -1.1266 -0.0612
 3348SOL     OW10613   6.548   4.998   0.096  0.2741 -0.3663  0.2883
 3348SOL    HW110614   6.460   4.977   0.064  0.6900 -1.1994 -0.3652
 3348SOL    HW210615   6.576   5.073   0.043 -0.7488  1.1541  1.7952
 3349SOL     OW10616   5.801   5.584   4.106  0.4219 -0.1048  0.3791
 3349SOL    HW110617   5.736   5.638   4.061  0.5212  1.0282  1.5467
 3349SOL    HW210618   5.875   5.643   4.120  2.4596 -1.7735 -2.3566
 3350SOL     OW10619   6.216   1.699   1.771  0.7341  0.1013 -0.3440
 3350SOL    HW110620   6.185   1.617   1.809 -0.0846  1.2556  1.6029
 3350SOL    HW210621   6.308   1.683   1.751  1.0121 -0.8032  1.4917
 3351SOL     OW10622   3.231   2.253   1.626  0.8168 -0.0229 -0.2270
 3351SOL    HW110623   3.170   2.327   1.626  0.1555 -0.5521 -0.0328
 3351SOL    HW210624   3.316   2.291   1.645  0.5625  0.7506 -0.6295
 3352SOL     OW10625   1.545   5.091   2.219 -0.2707  0.6158 -0.0558
 3352SOL    HW110626   1.574   5.013   2.267 -1.2226 -1.4941 -2.6337
 3352SOL    HW210627   1.451   5.078   2.206 -0.2402  1.5999 -1.5174
 3353SOL     OW10628   6.450   3.421   3.343  0.1880  0.3792  0.3887
 3353SOL    HW110629   6.397   3.497   3.318 -0.4592  0.4647  1.9149
 3353SOL    HW210630   6.508   3.455   3.411  1.0286 -0.1266 -0.0599
 3354SOL     OW10631   1.384   3.977   6.830 -0.6598 -0.2176  0.0076
 3354SOL    HW110632   1.393   3.919   6.755 -1.9898 -1.1460  0.5175
 3354SOL    HW210633   1.422   3.928   6.903 -3.4247 -1.3593  0.8267
 3355SOL     OW10634   1.843   6.966   5.442  0.4567  0.1010  0.2982
 3355SOL    HW110635   1.888   7.046   5.470 -0.7153  1.4571 -1.4679
 3355SOL    HW210636   1.763   6.963   5.494  0.0678  0.5898 -0.2614
 3356SOL     OW10637   1.141   5.423   6.048  0.0986 -0.0808  0.3974
 3356SOL    HW110638   1.048   5.430   6.070  0.2203 -0.2043  0.9614
 3356SOL    HW210639   1.143   5.386   5.960 -0.4413  1.7368 -0.4278
 3357SOL     OW10640   1.098   0.412   0.620 -0.2455  0.6277 -0.1822
 3357SOL    HW110641   1.076   0.338   0.677  1.2105  0.0489 -0.3061
 3357SOL    HW210642   1.194   0.417   0.625 -0.0104  0.2643 -2.8598
 3358SOL     OW10643   5.546   2.795   4.546  0.4674 -0.1545 -0.2775
 3358SOL    HW110644   5.629   2.837   4.522  0.3247 -0.0530 -0.5982
 3358SOL    HW210645   5.564   2.753   4.629  1.0722 -0.8193 -0.7359
 3359SOL     OW10646   3.807   1.178   3.086 -0.0382 -0.9642  0.0048
 3359SOL    HW110647   3.775   1.189   3.176 -0.2925 -1.9460  0.0504
 3359SOL    HW210648   3.899   1.204   3.090  0.0320 -1.2813  0.6200
 3360SOL     OW10649   4.755   1.375   6.800  0.0434  0.9722  0.0637
 3360SOL    HW110650   4.683   1.316   6.821  0.4430  0.5724  0.3308
 3360SOL    HW210651   4.718   1.463   6.809  0.0748  0.8397  2.1039
 3361SOL     OW10652   5.782   1.143   5.879 -0.2801 -0.2194 -0.1572
 3361SOL    HW110653   5.733   1.106   5.805  1.0247 -1.8275 -0.2759
 3361SOL    HW210654   5.810   1.067   5.929  0.1243  0.7885  1.1935
 3362SOL     OW10655   5.882   6.391   2.860 -0.1098  0.1104  0.2634
 3362SOL    HW110656   5.900   6.485   2.865  0.0034  0.2620 -1.8039
 3362SOL    HW210657   5.799   6.385   2.813  1.3472 -0.8045 -2.4461
 3363SOL     OW10658   1.171   3.275   1.614  0.0949  0.2751  0.6336
 3363SOL    HW110659   1.078   3.282   1.634 -0.0923 -1.0036  0.3014
 3363SOL    HW210660   1.185   3.182   1.593  1.1151  0.7210 -0.9224
 3364SOL     OW10661   2.915   1.561   4.260 -0.3034  0.2926  0.3728
 3364SOL    HW110662   2.992   1.521   4.300  1.8100  1.6522 -2.0713
 3364SOL    HW210663   2.877   1.491   4.206 -0.1950 -0.1032  0.8036
 3365SOL     OW10664   6.905   2.909   3.356  0.0263  0.4228  0.1625
 3365SOL    HW110665   6.853   2.842   3.401  0.5142 -0.1947 -0.1787
 3365SOL    HW210666   6.917   2.875   3.268  1.6802  0.1608  0.4564
 3366SOL     OW10667   0.625   0.032   5.253  0.0484 -0.4554 -0.2718
 3366SOL    HW110668   0.707   0.019   5.205 -0.6049 -2.6075 -0.9184
 3366SOL    HW210669   0.623  -0.039   5.318 -0.5928  0.4902  0.7724
 3367SOL     OW10670   6.154   3.383   3.745  0.4400  0.3585  0.1095
 3367SOL    HW110671   6.185   3.449   3.808 -1.7857  1.4904  0.1371
 3367SOL    HW210672   6.116   3.314   3.799  0.7686  0.1205  0.0392
 3368SOL     OW10673   0.708   5.868   6.798  0.0550 -0.3613 -0.1817
 3368SOL    HW110674   0.728   5.792   6.853  4.8944 -0.6773 -1.9310
 3368SOL    HW210675   0.739   5.943   6.849  0.6633 -0.2053 -0.7794
 3369SOL     OW10676   2.113   5.924   6.897 -0.1610  0.8156  0.1607
 3369SOL    HW110677   2.103   5.907   6.991 -2.3144  1.2616  0.0706
 3369SOL    HW210678   2.063   6.004   6.881  0.0123  0.6562 -1.4037
 3370SOL     OW10679   4.721   5.247   3.536  0.1683  0.1209 -0.5092
 3370SOL    HW110680   4.658   5.240   3.608 -0.2040  2.8900 -0.4647
 3370SOL    HW210681   4.806   5.241   3.579 -0.0543 -0.0194 -0.0791
 3371SOL     OW10682   2.735   6.264   2.534  0.1171 -0.2979  0.2258
 3371SOL    HW110683   2.675   6.331   2.568  0.5880  0.3487 -0.1843
 3371SOL    HW210684   2.681   6.211   2.475  0.3963  1.7463 -2.0647
 3372SOL     OW10685   5.876   2.456   4.948 -0.1951  0.4542 -0.0154
 3372SOL    HW110686   5.899   2.373   4.905 -2.4557  0.0310 -0.5263
 3372SOL    HW210687   5.960   2.492   4.977  1.1403 -0.6765 -2.2070
 3373SOL     OW10688   6.679   0.804   6.180 -0.0967  0.7582 -0.3754
 3373SOL    HW110689   6.689   0.894   6.213 -0.3153  0.6886 -0.1186
 3373SOL    HW210690   6.743   0.753   6.230 -0.4219  0.6543 -0.0629
 3374SOL     OW10691   5.670   4.351   3.844  0.2945 -0.7246 -0.0873
 3374SOL    HW110692   5.714   4.285   3.898 -0.9997 -0.9556  0.7412
 3374SOL    HW210693   5.610   4.301   3.789  0.6906 -0.3781 -0.8522
 3375SOL     OW10694   4.803   2.076   3.818 -0.2359  0.1573  0.4906
 3375SOL    HW110695   4.857   2.117   3.751 -1.6005 -0.2552 -0.9037
 3375SOL    HW210696   4.817   1.982   3.806 -0.0053  0.0897  1.2187
 3376SOL     OW10697   6.145   7.349   5.668  0.6771 -0.0890 -0.0315
 3376SOL    HW110698   6.167   7.339   5.760  1.9715  1.7684 -0.0742
 3376SOL    HW210699   6.223   7.318   5.622  0.7338  0.6315 -0.4321
 3377SOL     OW10700   3.689   4.436   5.618 -0.3840 -0.4645 -0.0287
 3377SOL    HW110701   3.623   4.462   5.683 -1.7293 -0.0317 -1.5110
 3377SOL    HW210702   3.768   4.420   5.670 -1.8215 -1.7867  1.9277
 3378SOL     OW10703   5.543   3.185   0.575  0.0047 -0.4168 -0.3467
 3378SOL    HW110704   5.489   3.228   0.508 -0.1902  0.3789  0.3138
 3378SOL    HW210705   5.559   3.252   0.641  1.4515 -0.7577 -0.3052
 3379SOL     OW10706   6.528   1.980   4.382 -0.8102  0.8749  0.5387
 3379SOL    HW110707   6.513   1.902   4.327  0.4650  0.7303  0.3742
 3379SOL    HW210708   6.524   1.947   4.472 -3.1140  1.1471  0.5912
 3380SOL     OW10709   1.037   4.098   0.869 -0.5490  0.0408 -0.0296
 3380SOL    HW110710   1.042   4.194   0.872  2.0747 -0.0612  2.5533
 3380SOL    HW210711   1.125   4.068   0.889 -1.4538 -2.9738 -0.0255
 3381SOL     OW10712   1.422   6.405   4.170 -0.3199 -0.4054 -0.0759
 3381SOL    HW110713   1.496   6.374   4.224  0.1093 -1.8155 -1.4093
 3381SOL    HW210714   1.431   6.358   4.088 -1.1099  1.5058 -1.3298
 3382SOL     OW10715   3.171   6.558   0.551 -0.1533 -0.1752  0.1086
 3382SOL    HW110716   3.126   6.626   0.500 -0.5128  1.2431  2.1689
 3382SOL    HW210717   3.107   6.487   0.558 -1.0702  0.6839  0.7132
 3383SOL     OW10718   2.229   0.356   7.198 -0.3471 -0.0042  0.3497
 3383SOL    HW110719   2.187   0.404   7.269 -0.8484  1.0610 -0.6295
 3383SOL    HW210720   2.156   0.320   7.147  0.0128 -1.5721  0.8737
 3384SOL     OW10721   6.057   6.142   4.139  0.5304 -0.6610  0.1979
 3384SOL    HW110722   6.048   6.047   4.130 -1.6173 -0.4762 -0.1567
 3384SOL    HW210723   5.990   6.178   4.081  0.4509  1.0374  1.2653
 3385SOL     OW10724   4.622   3.169   0.370  0.2021 -0.1226 -0.1903
 3385SOL    HW110725   4.630   3.141   0.461  2.0929  0.9690  0.0458
 3385SOL    HW210726   4.630   3.088   0.319  1.1614 -0.5372  0.5811
 3386SOL     OW10727   0.309   6.730   7.394  0.3143 -0.4614 -0.0959
 3386SOL    HW110728   0.363   6.658   7.425 -0.4762 -1.0145  0.0374
 3386SOL    HW210729   0.229   6.687   7.361 -1.4108  0.4794  2.5283
 3387SOL     OW10730   0.266   2.416   2.629  0.8561 -0.4962 -0.1513
 3387SOL    HW110731   0.351   2.456   2.611  1.2732 -1.7414 -1.0575
 3387SOL    HW210732   0.269   2.332   2.583 -0.1705 -1.3649  1.3132
 3388SOL     OW10733   7.277   0.176   6.739  0.6104 -0.1153 -0.2441
 3388SOL    HW110734   7.250   0.234   6.810  0.9610 -1.4956  1.0595
 3388SOL    HW210735   7.325   0.233   6.678  2.1091  0.7233  1.6446
 3389SOL     OW10736   2.400   0.393   0.957 -0.4385 -0.0179 -0.0222
 3389SOL    HW110737   2.432   0.401   1.046 -2.3442 -0.7336  0.7856
 3389SOL    HW210738   2.431   0.308   0.928  3.4542  1.6745 -1.5679
 3390SOL     OW10739   6.988   7.314   2.995  0.1821  0.1232 -0.4695
 3390SOL    HW110740   6.914   7.260   3.024 -1.3836  2.5162  0.2975
 3390SOL    HW210741   6.983   7.311   2.899  0.1502 -1.0864 -0.4413
 3391SOL     OW10742   2.067   4.377   2.735 -0.2948  0.0530 -0.0067
 3391SOL    HW110743   2.132   4.391   2.666  1.1594  0.2815  1.3585
 3391SOL    HW210744   2.054   4.283   2.738  0.5325 -0.0640  0.1764
 3392SOL     OW10745   7.197   6.966   4.601  0.0627 -0.1155  0.3375
 3392SOL    HW110746   7.180   6.909   4.527  1.4979 -1.3228  0.9083
 3392SOL    HW210747   7.188   6.910   4.678  2.8097  0.0138  0.8571
 3393SOL     OW10748   5.292   6.914   3.604 -0.6459  0.2203 -0.2579
 3393SOL    HW110749   5.205   6.875   3.595 -2.1223  3.6005 -3.0077
 3393SOL    HW210750   5.343   6.874   3.533 -1.0563  0.6706 -0.8186
 3394SOL     OW10751   2.547   0.446   0.561  0.2709  0.5503  0.3604
 3394SOL    HW110752   2.534   0.501   0.483  1.7522  1.1370  0.4841
 3394SOL    HW210753   2.567   0.359   0.526  1.3540  0.9084  0.0614
 3395SOL     OW10754   4.593   7.251   5.910 -0.2097  0.3685  0.3483
 3395SOL    HW110755   4.632   7.192   5.974 -0.9407 -0.0340  0.4261
 3395SOL    HW210756   4.616   7.339   5.941  0.6135  0.1399  0.4002
 3396SOL     OW10757   2.230   2.680   5.014 -0.4663 -0.4468 -0.1866
 3396SOL    HW110758   2.181   2.762   5.008 -0.7528 -0.4320  1.7048
 3396SOL    HW210759   2.163   2.612   5.011 -0.4890 -0.4867  0.9022
 3397SOL     OW10760   3.256   3.620   3.727 -0.1443 -0.4658  0.3777
 3397SOL    HW110761   3.193   3.615   3.655 -0.6116  0.4911  0.7025
 3397SOL    HW210762   3.257   3.532   3.765 -1.2021 -0.5269  0.2860
 3398SOL     OW10763   0.706   6.787   4.539 -0.4183  0.2411 -0.3419
 3398SOL    HW110764   0.770   6.850   4.505 -0.0933  0.1093  0.0156
 3398SOL    HW210765   0.686   6.731   4.464  0.2449 -0.0072 -0.3439
 3399SOL     OW10766   1.041   1.704   2.533 -0.2709 -0.3113 -0.0834
 3399SOL    HW110767   1.007   1.780   2.579 -0.4403 -0.2665 -0.2798
 3399SOL    HW210768   1.009   1.714   2.443  1.2754  0.3707 -0.5888
 3400SOL     OW10769   2.248   5.218   7.412  0.0211 -0.3461  0.0232
 3400SOL    HW110770   2.337   5.231   7.377  0.4798 -1.1515  0.8533
 3400SOL    HW210771   2.248   5.129   7.445 -0.5745  0.1977  1.5468
 3401SOL     OW10772   3.646   4.024   0.572  0.4453 -0.4324 -0.1776
 3401SOL    HW110773   3.558   4.055   0.547  0.4296 -0.4383 -0.1286
 3401SOL    HW210774   3.684   4.098   0.620 -0.1898 -1.0495  1.3580
 3402SOL     OW10775   2.161   0.526   3.296  0.1891 -0.4852  0.3363
 3402SOL    HW110776   2.098   0.588   3.259  1.1050  2.6811  3.5053
 3402SOL    HW210777   2.118   0.490   3.373  0.7743 -1.5493  0.1864
 3403SOL     OW10778   3.672   4.521   4.364  0.0036 -0.2947 -0.3009
 3403SOL    HW110779   3.754   4.473   4.364  1.1876  1.5529  0.9789
 3403SOL    HW210780   3.661   4.552   4.274  1.1476  0.0663 -0.3340
 3404SOL     OW10781   5.284   4.522   2.342  0.1497  0.1061  0.3489
 3404SOL    HW110782   5.327   4.481   2.267  0.6904  1.9318 -0.4117
 3404SOL    HW210783   5.313   4.472   2.418  0.8731 -0.8086 -0.5148
 3405SOL     OW10784   1.094   1.812   1.754 -0.0503 -0.3938  0.0401
 3405SOL    HW110785   1.086   1.903   1.724  1.4920 -0.4782 -0.6797
 3405SOL    HW210786   1.143   1.768   1.685 -0.4903 -1.7130  0.5441
 3406SOL     OW10787   1.755   4.248   7.028  0.6311 -0.2166 -0.6473
 3406SOL    HW110788   1.779   4.171   7.079 -0.7118  0.5199  1.1990
 3406SOL    HW210789   1.809   4.319   7.063 -0.4327  0.3374 -0.0790
 3407SOL     OW10790   4.615   3.302   0.956 -0.3170 -0.3137 -0.2489
 3407SOL    HW110791   4.525   3.331   0.971 -0.6559  0.9221 -3.6995
 3407SOL    HW210792   4.669   3.370   0.995 -0.8878 -0.2810  0.5164
 3408SOL     OW10793   2.189   7.052   5.510  0.1401 -0.2240  0.6486
 3408SOL    HW110794   2.240   7.133   5.507  0.3900 -0.4127 -1.3998
 3408SOL    HW210795   2.098   7.082   5.520  0.2712  0.2873  0.3614
 3409SOL     OW10796   1.582   4.661   5.815 -0.5101  0.1835 -0.2554
 3409SOL    HW110797   1.588   4.600   5.888 -0.4869 -0.5972 -0.8978
 3409SOL    HW210798   1.540   4.611   5.744  0.8440  0.4319 -1.2795
 3410SOL     OW10799   1.498   5.930   5.647  0.7574 -0.4335  0.6595
 3410SOL    HW110800   1.425   5.964   5.595  0.1970 -0.5283  1.3656
 3410SOL    HW210801   1.571   5.924   5.585  0.0663 -0.6955 -0.1503
 3411SOL     OW10802   3.790   4.779   1.667 -0.1215  0.1591  0.0333
 3411SOL    HW110803   3.824   4.792   1.578 -1.1704  0.5978 -0.3245
 3411SOL    HW210804   3.699   4.751   1.653 -0.7375  1.6025  0.9771
 3412SOL     OW10805   0.293   3.536   0.895 -0.1075 -0.1964  0.4070
 3412SOL    HW110806   0.209   3.582   0.899 -0.9061 -1.5558  0.2875
 3412SOL    HW210807   0.288   3.485   0.814  1.5057  0.8702 -0.4229
 3413SOL     OW10808   0.061   2.699   2.764  0.3100  0.3921 -0.3720
 3413SOL    HW110809   0.147   2.669   2.791  0.7996 -0.5799 -2.7844
 3413SOL    HW210810   0.065   2.795   2.773  2.2535  0.5254 -1.8996
 3414SOL     OW10811   0.796   1.616   2.655 -0.0764  0.5021 -0.0850
 3414SOL    HW110812   0.802   1.612   2.559  0.5149  0.6436 -0.0605
 3414SOL    HW210813   0.746   1.696   2.672 -3.4747 -1.4147 -0.3372
 3415SOL     OW10814   2.330   6.569   7.307  0.9938  0.0956 -0.5958
 3415SOL    HW110815   2.303   6.487   7.349  2.7415 -0.9324 -1.3599
 3415SOL    HW210816   2.402   6.601   7.362  1.1940  0.4076 -1.0365
 3416SOL     OW10817   1.026   5.248   6.453  0.3149 -0.2505 -0.0154
 3416SOL    HW110818   1.081   5.226   6.378 -0.0425  0.2268 -0.4201
 3416SOL    HW210819   0.966   5.314   6.421  0.2806  0.1050  0.7458
 3417SOL     OW10820   2.899   4.014   4.602 -0.9791 -0.9634 -0.4536
 3417SOL    HW110821   2.971   3.969   4.559 -0.6937 -0.4475 -0.5216
 3417SOL    HW210822   2.897   3.977   4.690  2.1173  1.8724  1.0502
 3418SOL     OW10823   3.382   3.343   4.338 -0.1862 -0.1106  0.1872
 3418SOL    HW110824   3.413   3.391   4.260  1.7719 -0.9259  0.3980
 3418SOL    HW210825   3.359   3.257   4.305  2.0571 -0.9615  0.6402
 3419SOL     OW10826   4.442   1.916   6.171  0.1461  0.0509  0.6600
 3419SOL    HW110827   4.350   1.898   6.152 -0.2286  1.1848  1.2966
 3419SOL    HW210828   4.456   1.882   6.259  0.5862 -0.9086  0.2302
 3420SOL     OW10829   0.106   2.781   3.731  0.1369  0.0502 -0.1730
 3420SOL    HW110830   0.110   2.817   3.642  0.1472  0.3270 -0.0641
 3420SOL    HW210831   0.149   2.696   3.725  0.9692  0.4710 -0.2380
 3421SOL     OW10832   0.984   6.515   5.215  0.5142  0.3583 -0.2649
 3421SOL    HW110833   0.994   6.513   5.119  0.9470  3.2849 -0.3842
 3421SOL    HW210834   1.025   6.597   5.241  0.4111 -0.3723  2.4748
 3422SOL     OW10835   0.927   3.206   5.866 -0.0314  0.1890 -0.1888
 3422SOL    HW110836   0.923   3.131   5.806  0.1338  0.4803 -0.5702
 3422SOL    HW210837   1.011   3.197   5.910 -0.3914 -0.3357  0.4208
 3423SOL     OW10838   2.851   5.699   0.817 -0.5611 -0.0797  0.4534
 3423SOL    HW110839   2.809   5.662   0.895  1.9793 -1.4058  1.3095
 3423SOL    HW210840   2.928   5.644   0.803 -0.6249  0.4693 -2.7136
 3424SOL     OW10841   5.147   3.407   5.054  0.1476 -0.1920  0.2811
 3424SOL    HW110842   5.227   3.427   5.102  0.1991 -3.1040  1.6087
 3424SOL    HW210843   5.078   3.455   5.100  0.8628  1.0207  0.1275
 3425SOL     OW10844   0.512   0.040   0.496  0.1282 -0.0870 -0.2828
 3425SOL    HW110845   0.532  -0.054   0.501  3.4763  0.3411 -2.1602
 3425SOL    HW210846   0.500   0.067   0.586  1.9331 -1.8754  0.5755
 3426SOL     OW10847   1.318   5.585   1.623  0.0378 -0.6200 -0.4344
 3426SOL    HW110848   1.334   5.646   1.551 -0.3337  1.0240  0.8290
 3426SOL    HW210849   1.314   5.499   1.580  0.3774  0.2320 -2.2927
 3427SOL     OW10850   3.111   0.129   0.711  0.8521 -0.4059  0.0339
 3427SOL    HW110851   3.031   0.128   0.763  1.2502  0.8722  0.7107
 3427SOL    HW210852   3.100   0.058   0.648 -0.9660 -0.0369 -0.1039
 3428SOL     OW10853   0.279   6.164   4.774 -0.0197 -0.1654 -0.0150
 3428SOL    HW110854   0.243   6.151   4.862  1.0253 -1.5865  0.2397
 3428SOL    HW210855   0.339   6.237   4.783 -0.1834 -0.0774  0.3657
 3429SOL     OW10856   3.403   5.387   4.619 -0.0157  0.3417  0.1131
 3429SOL    HW110857   3.494   5.413   4.605  0.0782 -0.0380  0.0173
 3429SOL    HW210858   3.394   5.379   4.714  0.5129 -1.2379  0.0645
 3430SOL     OW10859   3.021   4.162   0.962  0.4281  0.0307  0.2202
 3430SOL    HW110860   2.962   4.182   1.035  0.5108 -0.4979  0.4402
 3430SOL    HW210861   2.979   4.088   0.918 -0.2086  1.0447 -0.9618
 3431SOL     OW10862   2.673   1.689   3.436 -0.2285 -0.5904  0.3671
 3431SOL    HW110863   2.681   1.685   3.531 -0.5787 -0.0605  0.4194
 3431SOL    HW210864   2.583   1.718   3.420  0.1307  0.3329 -0.0970
 3432SOL     OW10865   0.835   2.572   7.253  0.0249 -0.5913 -0.0376
 3432SOL    HW110866   0.742   2.569   7.227  0.1408 -1.8565 -0.3906
 3432SOL    HW210867   0.881   2.534   7.178  0.9541  1.0160 -0.3158
 3433SOL     OW10868   3.791   6.158   4.406 -0.1855 -0.1801  0.4282
 3433SOL    HW110869   3.880   6.125   4.413  0.1993  0.7443  0.0739
 3433SOL    HW210870   3.783   6.222   4.476  0.3134  1.6187 -1.0695
 3434SOL     OW10871   5.236   2.938   2.390 -0.5365 -0.8875  0.6352
 3434SOL    HW110872   5.259   3.017   2.440  1.2101 -0.2016 -1.0677
 3434SOL    HW210873   5.270   2.866   2.443  0.0620 -0.2934  1.0938
 3435SOL     OW10874   4.689   0.812   2.689 -0.2526  0.0706  0.6910
 3435SOL    HW110875   4.626   0.881   2.671 -0.9603 -0.1230  2.2907
 3435SOL    HW210876   4.774   0.851   2.667 -0.9325 -0.2937 -3.3379
 3436SOL     OW10877   5.303   2.791   1.986  0.1336 -0.2088  0.1076
 3436SOL    HW110878   5.334   2.881   1.972  0.7876 -0.4168  0.1943
 3436SOL    HW210879   5.307   2.779   2.081  0.7193 -0.5659  0.0392
 3437SOL     OW10880   7.158   0.988   4.137  0.2141  0.3153  0.0252
 3437SOL    HW110881   7.211   0.916   4.104  1.2967  0.5879  1.1010
 3437SOL    HW210882   7.069   0.967   4.109  0.7183 -0.6948 -0.9074
 3438SOL     OW10883   5.574   4.963   3.104  0.1266 -0.1595 -0.4718
 3438SOL    HW110884   5.497   5.015   3.125  0.7763 -0.0932  2.0115
 3438SOL    HW210885   5.618   5.012   3.035 -0.6511  1.2047 -0.0303
 3439SOL     OW10886   4.191   4.036   1.526 -0.6718  0.3697 -0.0043
 3439SOL    HW110887   4.274   4.009   1.566  0.1396  1.8881 -0.5729
 3439SOL    HW210888   4.150   4.092   1.591 -0.6983  0.5679 -0.1912
 3440SOL     OW10889   2.651   0.093   3.218  0.0849 -0.4262  0.1132
 3440SOL    HW110890   2.623   0.168   3.271  2.2306 -1.0872  2.3963
 3440SOL    HW210891   2.718   0.128   3.160 -2.0672  0.2386 -2.1419
 3441SOL     OW10892   7.002   7.341   0.721  0.4331  0.4012 -0.1864
 3441SOL    HW110893   7.033   7.261   0.763  2.7740  1.0419 -0.5344
 3441SOL    HW210894   7.066   7.357   0.651 -1.7960  0.8497 -2.2287
 3442SOL     OW10895   1.393   1.074   0.368 -0.0769  0.2429  0.8109
 3442SOL    HW110896   1.329   1.110   0.429 -1.5479 -1.7560  0.5250
 3442SOL    HW210897   1.381   1.125   0.288 -0.0285  1.0804  1.3302
 3443SOL     OW10898   3.429   4.093   1.551 -0.0580 -0.1474 -0.0674
 3443SOL    HW110899   3.459   4.077   1.640 -0.8859  1.8939  0.6196
 3443SOL    HW210900   3.509   4.105   1.500  0.4113 -1.1628  0.4096
 3444SOL     OW10901   4.427   0.242   3.087  0.3411 -0.0316 -0.2840
 3444SOL    HW110902   4.356   0.182   3.112 -0.1031  1.1756  1.5369
 3444SOL    HW210903   4.502   0.185   3.072 -0.1585 -1.0969  1.0387
 3445SOL     OW10904   6.622   5.356   2.729  0.8555 -0.2388  0.8034
 3445SOL    HW110905   6.701   5.410   2.726  0.6895  0.1023  2.1336
 3445SOL    HW210906   6.642   5.282   2.671  1.0869  1.2017 -1.0430
 3446SOL     OW10907   6.413   6.118   4.672 -0.3848  0.1231  0.2777
 3446SOL    HW110908   6.365   6.081   4.746  0.7617 -0.4861  0.7544
 3446SOL    HW210909   6.492   6.156   4.711  0.6129 -0.8694 -0.6702
 3447SOL     OW10910   6.138   2.254   0.767 -0.6026  0.1904 -0.2927
 3447SOL    HW110911   6.143   2.347   0.786  0.4834 -0.0946  1.0195
 3447SOL    HW210912   6.222   2.233   0.726  0.4044 -0.6932  2.0410
 3448SOL     OW10913   5.399   6.566   0.129  0.3908 -0.3703  0.2778
 3448SOL    HW110914   5.446   6.648   0.117  1.7006 -1.0729  0.4863
 3448SOL    HW210915   5.371   6.568   0.220  3.5964 -1.7012  1.4345
 3449SOL     OW10916   0.335   7.241   3.647 -0.1977  0.0768  0.1873
 3449SOL    HW110917   0.356   7.157   3.607 -0.1126 -0.1879  0.7701
 3449SOL    HW210918   0.247   7.229   3.683  0.3316 -0.2177  1.4369
 3450SOL     OW10919   4.363   3.961   6.182  0.5250  0.0646 -0.0133
 3450SOL    HW110920   4.392   3.993   6.268 -1.5539  0.9581  0.4171
 3450SOL    HW210921   4.428   3.995   6.121  1.3547  0.4836  1.0548
 3451SOL     OW10922   6.655   5.260   7.432  0.0397 -0.0474 -0.0688
 3451SOL    HW110923   6.736   5.219   7.461 -0.6740 -1.6710 -0.2518
 3451SOL    HW210924   6.680   5.315   7.358  0.9880 -0.3877 -0.0048
 3452SOL     OW10925   0.940   5.705   6.375 -0.1170  0.0017 -0.1038
 3452SOL    HW110926   0.869   5.755   6.335  0.2038 -0.8950 -1.8715
 3452SOL    HW210927   1.019   5.733   6.330  0.3397 -0.6504  0.2649
 3453SOL     OW10928   2.134   7.433   5.047  0.1757 -0.2140  0.3524
 3453SOL    HW110929   2.182   7.498   4.995  1.0263 -0.6255  0.6110
 3453SOL    HW210930   2.046   7.470   5.056 -0.1447 -0.3381 -1.7495
 3454SOL     OW10931   7.057   2.849   3.883  0.0785  0.3645  0.1053
 3454SOL    HW110932   7.113   2.774   3.897  0.4678  0.1064 -2.4391
 3454SOL    HW210933   7.082   2.911   3.952 -0.5209 -1.8846  2.4980
 3455SOL     OW10934   4.698   0.454   5.382  0.0339  0.1593  0.6881
 3455SOL    HW110935   4.606   0.480   5.392 -0.4285 -0.9198 -0.4633
 3455SOL    HW210936   4.696   0.358   5.382  1.0519  0.1216 -0.1456
 3456SOL     OW10937   6.713   4.082   1.725 -0.2353 -0.3839  0.2755
 3456SOL    HW110938   6.656   4.060   1.652  0.7994 -0.1637 -0.6361
 3456SOL    HW210939   6.731   4.175   1.714 -0.1164 -0.3408  0.8370
 3457SOL     OW10940   1.160   0.431   6.968 -0.2350  0.3347 -0.0658
 3457SOL    HW110941   1.206   0.514   6.963  0.6346 -0.1770 -0.8397
 3457SOL    HW210942   1.072   0.454   6.997 -0.4379  1.6728 -1.6112
 3458SOL     OW10943   5.684   1.048   5.170 -0.3408 -0.7500 -0.4321
 3458SOL    HW110944   5.595   1.075   5.193 -0.9052 -3.0563  0.3755
 3458SOL    HW210945   5.692   1.067   5.076 -1.6073 -0.3226 -0.4654
 3459SOL     OW10946   6.723   0.630   5.459  0.1052 -0.3679 -0.5137
 3459SOL    HW110947   6.772   0.695   5.509  0.8108 -1.7003  0.5920
 3459SOL    HW210948   6.693   0.567   5.525  0.0971 -1.5819 -1.6445
 3460SOL     OW10949   2.989   5.039   5.120  0.2967 -0.1018  0.3231
 3460SOL    HW110950   2.927   4.966   5.118  1.7747 -1.4213  0.1639
 3460SOL    HW210951   2.983   5.078   5.032 -3.4294  2.6900  1.5642
 3461SOL     OW10952   1.035   0.996   2.186  0.1473 -0.7070 -0.6184
 3461SOL    HW110953   1.061   0.924   2.128 -0.6324 -2.6830  1.3244
 3461SOL    HW210954   0.943   1.012   2.164  0.3716 -0.1245 -1.1789
 3462SOL     OW10955   7.163   1.597   5.456  0.5162 -0.0217 -0.2353
 3462SOL    HW110956   7.093   1.587   5.521  1.3308 -0.9544  0.5306
 3462SOL    HW210957   7.121   1.573   5.373  0.0221 -1.0416  0.2806
 3463SOL     OW10958   6.608   4.448   3.577  0.0104 -0.1663  0.5303
 3463SOL    HW110959   6.702   4.454   3.594 -0.0218 -2.5311  2.0207
 3463SOL    HW210960   6.593   4.509   3.505  2.8381 -0.3675 -0.3731
 3464SOL     OW10961   6.107   4.871   0.402  0.8266  0.0399 -0.4996
 3464SOL    HW110962   6.160   4.950   0.414  0.6648 -0.1218  1.7742
 3464SOL    HW210963   6.024   4.891   0.445  0.5833 -1.1733 -0.3655
 3465SOL     OW10964   0.833   5.440   6.037  0.4893  0.5625 -0.2774
 3465SOL    HW110965   0.768   5.405   6.097 -0.2727  2.2056 -0.1075
 3465SOL    HW210966   0.818   5.393   5.955 -0.1677  0.1384  0.0836
 3466SOL     OW10967   5.616   5.364   1.249 -0.1666  0.2328 -0.1413
 3466SOL    HW110968   5.564   5.322   1.318 -0.7391 -0.8838 -1.2062
 3466SOL    HW210969   5.559   5.434   1.216 -0.2038  0.2705  0.0008
 3467SOL     OW10970   1.593   3.722   6.005  0.2526 -0.6934  0.1969
 3467SOL    HW110971   1.637   3.707   5.921 -0.3535 -1.0556 -0.0590
 3467SOL    HW210972   1.508   3.759   5.982  0.4514  0.0921  0.6963
 3468SOL     OW10973   3.430   3.179   1.819 -0.3642  0.4522  0.3075
 3468SOL    HW110974   3.442   3.107   1.881  1.5514  1.2807  0.9838
 3468SOL    HW210975   3.372   3.240   1.865 -0.9653 -0.0776  0.2556
 3469SOL     OW10976   0.607   1.060   6.853  0.2298 -0.1358  0.1827
 3469SOL    HW110977   0.530   1.043   6.907  0.9036  1.7910  1.8489
 3469SOL    HW210978   0.578   1.125   6.790 -0.2602 -1.6034 -1.1807
 3470SOL     OW10979   0.224   5.248   0.782  0.4109 -0.3245  0.1917
 3470SOL    HW110980   0.316   5.268   0.763  0.3630 -0.7567 -0.5481
 3470SOL    HW210981   0.176   5.285   0.708 -0.1780  1.2310  1.3177
 3471SOL     OW10982   6.574   6.505   6.631  0.5775  0.5450  0.2287
 3471SOL    HW110983   6.599   6.531   6.720 -1.8839  0.9568  0.8826
 3471SOL    HW210984   6.618   6.569   6.575  1.2543  0.9982  1.2315
 3472SOL     OW10985   1.237   2.883   2.828  0.4405  0.3979 -0.3235
 3472SOL    HW110986   1.234   2.839   2.743 -0.0166 -1.4118  0.5799
 3472SOL    HW210987   1.300   2.832   2.879 -1.8040 -0.7251  1.5173
 3473SOL     OW10988   6.800   4.296   5.316  0.8695  0.1238 -0.8267
 3473SOL    HW110989   6.819   4.231   5.383 -0.5525  1.0143  0.4982
 3473SOL    HW210990   6.876   4.354   5.316  0.9221  0.0616 -0.0393
 3474SOL     OW10991   7.067   6.249   4.426 -0.2794 -0.9544 -0.0352
 3474SOL    HW110992   7.095   6.295   4.506 -1.1189  4.4003 -2.3391
 3474SOL    HW210993   7.148   6.222   4.384  0.5350  0.4692  0.5304
 3475SOL     OW10994   5.901   7.198   0.955 -0.4449 -0.1129  0.1618
 3475SOL    HW110995   5.977   7.157   0.996 -0.7534 -2.0034 -1.0386
 3475SOL    HW210996   5.840   7.126   0.941 -2.2686  1.2707  0.6232
 3476SOL     OW10997   3.916   4.178   0.257  0.1109  0.0855  0.2574
 3476SOL    HW110998   3.839   4.209   0.305 -0.9572 -0.1636 -1.2187
 3476SOL    HW210999   3.881   4.149   0.172  1.8124 -0.2398 -0.3675
 3477SOL     OW11000   3.194   0.390   1.690 -0.4947  0.1902 -0.3276
 3477SOL    HW111001   3.199   0.329   1.763  0.5667 -1.8708 -2.0033
 3477SOL    HW211002   3.284   0.419   1.676 -0.0455 -1.9267 -2.6670
 3478SOL     OW11003   4.108   4.718   1.224 -0.5599  0.2861 -0.4475
 3478SOL    HW111004   4.133   4.800   1.267 -0.9630  0.3061 -0.2437
 3478SOL    HW211005   4.138   4.650   1.283  0.2812  0.2646 -0.8870
 3479SOL     OW11006   2.041   7.210   5.831  0.4736 -0.0674 -0.1129
 3479SOL    HW111007   2.107   7.162   5.881  2.3744  0.3183 -2.0740
 3479SOL    HW211008   2.048   7.300   5.862  0.2309 -0.1844  0.2913
 3480SOL     OW11009   4.825   3.631   5.485 -0.2488  0.0308 -0.2578
 3480SOL    HW111010   4.783   3.545   5.482  1.0283 -0.5972 -1.0130
 3480SOL    HW211011   4.900   3.618   5.544 -1.0740  1.1320  1.0900
 3481SOL     OW11012   3.830   0.536   7.388  0.6199 -0.1950 -0.0443
 3481SOL    HW111013   3.762   0.482   7.428  1.0881  0.4180  1.6893
 3481SOL    HW211014   3.785   0.616   7.361  0.8892  1.1149  2.9865
 3482SOL     OW11015   0.752   3.314   0.594  0.2804 -0.4526  0.4247
 3482SOL    HW111016   0.730   3.405   0.572  1.0825 -0.4137 -0.2752
 3482SOL    HW211017   0.678   3.263   0.561  0.3427 -0.1513 -0.2014
 3483SOL     OW11018   1.519   5.816   2.719  0.0942 -0.2978 -0.4401
 3483SOL    HW111019   1.507   5.723   2.702  0.2509 -0.1659 -1.2993
 3483SOL    HW211020   1.438   5.858   2.691 -0.8764 -0.3872  1.9681
 3484SOL     OW11021   4.519   1.584   5.322  0.4054 -0.1340 -0.1055
 3484SOL    HW111022   4.458   1.636   5.270 -1.2346 -1.0266  0.8255
 3484SOL    HW211023   4.507   1.614   5.412  1.3612 -0.3306  0.1019
 3485SOL     OW11024   0.975   3.779   2.246 -0.2328 -0.3157  0.1958
 3485SOL    HW111025   0.993   3.823   2.162 -0.1180 -1.5861 -0.4752
 3485SOL    HW211026   1.015   3.693   2.236 -2.4106 -1.4328  0.5649
 3486SOL     OW11027   2.268   5.762   2.112 -0.2239  0.2318 -0.2875
 3486SOL    HW111028   2.194   5.710   2.145  0.9170 -1.9693 -0.9548
 3486SOL    HW211029   2.314   5.789   2.191 -0.7440  0.0799  0.0779
 3487SOL     OW11030   0.938   6.533   2.836  0.2936  0.2230  0.1523
 3487SOL    HW111031   0.953   6.615   2.883 -0.1420  0.0518  0.6006
 3487SOL    HW211032   0.916   6.470   2.904 -3.0984  0.5894 -0.4139
 3488SOL     OW11033   0.663   0.360   4.624 -0.5418  0.4909 -0.5414
 3488SOL    HW111034   0.751   0.371   4.587  0.0102  2.3045  1.1260
 3488SOL    HW211035   0.670   0.284   4.682 -0.6139 -0.5195 -1.8179
 3489SOL     OW11036   2.801   4.274   7.122  0.0844  0.0608  0.0414
 3489SOL    HW111037   2.719   4.308   7.157 -0.4559 -0.3156 -0.8309
 3489SOL    HW211038   2.831   4.342   7.062 -0.0444 -0.1826 -0.3017
 3490SOL     OW11039   7.276   2.577   4.174 -0.4600 -0.4673  0.0238
 3490SOL    HW111040   7.271   2.637   4.099  1.0194 -2.3296 -1.6966
 3490SOL    HW211041   7.222   2.503   4.149 -0.8263 -0.6671  1.3293
 3491SOL     OW11042   3.220   6.549   4.075 -0.3916 -0.3470  0.1111
 3491SOL    HW111043   3.125   6.545   4.073 -0.4364  0.6174 -1.8584
 3491SOL    HW211044   3.247   6.459   4.096 -1.6849 -0.3414  2.1672
 3492SOL     OW11045   6.204   0.050   4.601 -0.4739  0.3281 -0.4930
 3492SOL    HW111046   6.216   0.072   4.509  1.9802  0.5132 -0.1789
 3492SOL    HW211047   6.214  -0.045   4.605 -0.3477  0.3458 -0.3804
 3493SOL     OW11048   2.142   1.925   6.718  0.3291 -0.2009 -0.0900
 3493SOL    HW111049   2.055   1.965   6.716  0.2930 -0.2898 -0.3200
 3493SOL    HW211050   2.190   1.975   6.784 -0.4321 -1.2487  1.2980
 3494SOL     OW11051   0.014   0.762   5.265 -0.0873  0.0609 -0.0815
 3494SOL    HW111052  -0.032   0.679   5.264  0.2528 -0.2009  1.7730
 3494SOL    HW211053  -0.053   0.827   5.285 -0.2632  0.1839 -1.0262
 3495SOL     OW11054   5.235   0.208   5.097 -0.0173  0.0862 -0.0675
 3495SOL    HW111055   5.308   0.257   5.061  1.2849 -0.9055  1.1435
 3495SOL    HW211056   5.221   0.136   5.034  0.8685 -0.4262  0.3045
 3496SOL     OW11057   6.660   3.635   5.928 -0.1984  0.2896  0.0975
 3496SOL    HW111058   6.704   3.646   6.013 -0.4966 -1.9719  0.6058
 3496SOL    HW211059   6.724   3.587   5.875 -1.3345 -1.5327  0.2910
 3497SOL     OW11060   2.544   4.380   1.260  0.1619 -0.4899  0.2441
 3497SOL    HW111061   2.634   4.402   1.238  0.8613 -1.9774  1.3981
 3497SOL    HW211062   2.516   4.451   1.318  0.0107  0.8048 -1.3563
 3498SOL     OW11063   3.325   4.365   7.109 -0.5139 -0.4923 -0.2172
 3498SOL    HW111064   3.338   4.459   7.101  0.9415 -0.6315  0.2558
 3498SOL    HW211065   3.305   4.351   7.202 -1.2717 -0.6031 -0.3904
 3499SOL     OW11066   1.700   1.845   2.678  0.3179 -0.1534 -0.3130
 3499SOL    HW111067   1.637   1.780   2.649  0.4464  0.0499 -1.0834
 3499SOL    HW211068   1.718   1.824   2.769 -0.3136 -0.6500 -0.3042
 3500SOL     OW11069   6.745   0.622   7.059 -0.0147 -0.2076 -0.0426
 3500SOL    HW111070   6.757   0.552   7.123  1.4428 -0.7987 -0.9240
 3500SOL    HW211071   6.770   0.702   7.105 -1.3707 -0.2683  0.8641
 3501SOL     OW11072   1.930   0.974   3.036  0.2553 -0.7258 -0.0034
 3501SOL    HW111073   1.906   1.030   2.961 -0.5618 -1.3222 -0.2052
 3501SOL    HW211074   1.978   1.032   3.095 -1.3135  0.4470  0.1991
 3502SOL     OW11075   0.572   4.585   0.654 -0.2651 -0.0717  0.4173
 3502SOL    HW111076   0.580   4.502   0.607 -1.4096  0.1142 -0.1510
 3502SOL    HW211077   0.579   4.562   0.746  1.5433 -0.5086  0.2011
 3503SOL     OW11078   4.875   3.510   4.320  0.6175  0.0507  0.3230
 3503SOL    HW111079   4.915   3.532   4.404 -0.5482  1.2027  0.6167
 3503SOL    HW211080   4.918   3.569   4.257  0.0767  0.6249  0.4784
 3504SOL     OW11081   6.000   6.896   4.454 -0.4439 -0.1252 -0.2017
 3504SOL    HW111082   6.016   6.932   4.541  0.3430 -0.7488 -0.0840
 3504SOL    HW211083   6.003   6.971   4.396 -0.8938  0.2854  0.2887
 3505SOL     OW11084   5.416   6.041   1.217  0.5634  0.4121 -0.1775
 3505SOL    HW111085   5.402   5.994   1.135 -0.2489  0.3755 -0.0218
 3505SOL    HW211086   5.403   5.975   1.286  2.4348  0.1490 -0.0354
 3506SOL     OW11087   3.802   6.873   4.392 -0.5500  0.1038 -0.0398
 3506SOL    HW111088   3.839   6.834   4.312 -1.5785  2.5799 -1.8499
 3506SOL    HW211089   3.709   6.853   4.387 -0.6464  0.4250  0.4520
 3507SOL     OW11090   7.152   4.701   5.017  0.1163 -0.3857  0.1185
 3507SOL    HW111091   7.216   4.630   5.007 -0.2449 -0.4032 -3.0397
 3507SOL    HW211092   7.201   4.781   5.001 -0.4812 -0.3782 -1.9902
 3508SOL     OW11093   4.445   4.243   0.743 -0.4210 -0.0732 -0.0898
 3508SOL    HW111094   4.503   4.287   0.806  1.8200 -0.9217 -1.4522
 3508SOL    HW211095   4.367   4.298   0.740 -0.8706 -0.2355  3.7307
 3509SOL     OW11096   4.341   4.295   5.250  0.4102 -0.2572 -0.2569
 3509SOL    HW111097   4.405   4.306   5.181 -0.4455  1.4989 -0.8127
 3509SOL    HW211098   4.262   4.263   5.205  0.0361  0.3189 -0.0268
 3510SOL     OW11099   4.207   3.406   2.600  0.4042 -0.3472 -0.0012
 3510SOL    HW111100   4.136   3.424   2.662  1.2757  1.6888  0.5086
 3510SOL    HW211101   4.255   3.333   2.639 -1.2885 -1.6588 -0.2858
 3511SOL     OW11102   1.626   2.267   5.864 -0.0289  0.1144 -0.5351
 3511SOL    HW111103   1.539   2.226   5.864 -0.2653  0.5983 -1.2010
 3511SOL    HW211104   1.656   2.260   5.955  0.3186 -2.3203 -0.7614
 3512SOL     OW11105   2.585   1.065   3.977 -0.0301  0.5919  0.2042
 3512SOL    HW111106   2.628   0.990   4.017 -0.1320  0.1268 -0.5343
 3512SOL    HW211107   2.655   1.110   3.930 -0.4349 -0.6001 -1.6512
 3513SOL     OW11108   7.221   6.833   3.869 -0.1527 -0.3520 -0.0946
 3513SOL    HW111109   7.139   6.784   3.881 -1.0879  1.3763  1.2283
 3513SOL    HW211110   7.199   6.899   3.804 -0.9694  2.2325  2.5778
 3514SOL     OW11111   3.809   6.606   3.204 -0.3961  0.0962 -0.4167
 3514SOL    HW111112   3.851   6.662   3.269 -2.7198 -0.0275  1.3668
 3514SOL    HW211113   3.849   6.520   3.217 -1.2711 -0.1009  1.4754
 3515SOL     OW11114   3.472   5.237   2.145 -0.4580  0.3467  0.3316
 3515SOL    HW111115   3.447   5.264   2.233 -0.3026 -0.8827  0.7705
 3515SOL    HW211116   3.563   5.266   2.136 -0.0587 -0.6189  1.0657
 3516SOL     OW11117   1.697   5.459   6.298 -0.1538  0.1231  0.0429
 3516SOL    HW111118   1.602   5.453   6.310 -0.1929 -2.1630 -0.9416
 3516SOL    HW211119   1.712   5.431   6.208  1.5448 -0.7535  0.5616
 3517SOL     OW11120   1.188   4.857   2.362  0.2025  1.1366  0.8099
 3517SOL    HW111121   1.176   4.803   2.440 -1.0033  2.8153  1.8478
 3517SOL    HW211122   1.206   4.794   2.292 -1.8300 -0.6834  1.8058
 3518SOL     OW11123   4.595   0.522   5.846  0.3966  0.4629 -0.1211
 3518SOL    HW111124   4.616   0.483   5.931  2.2874  0.0530 -0.7219
 3518SOL    HW211125   4.662   0.589   5.833 -0.3393  1.0609 -0.9434
 3519SOL     OW11126   1.849   6.821   4.207  0.2475  0.4638 -0.1699
 3519SOL    HW111127   1.846   6.860   4.295 -1.8796 -0.2048  0.0914
 3519SOL    HW211128   1.758   6.819   4.178  0.8162 -0.1817 -2.0310
 3520SOL     OW11129   6.105   2.013   6.434  0.5335 -0.2064 -0.2630
 3520SOL    HW111130   6.186   1.982   6.474  1.0239 -0.1755 -1.2138
 3520SOL    HW211131   6.132   2.053   6.351 -0.5739 -1.4389 -1.2735
 3521SOL     OW11132   6.597   1.473   0.520  0.1299 -0.1993 -0.3746
 3521SOL    HW111133   6.637   1.452   0.604  1.6037  1.0408 -0.7187
 3521SOL    HW211134   6.653   1.429   0.455 -1.7167 -2.2260 -0.7290
 3522SOL     OW11135   5.221   5.765   1.369  0.6336  0.1397 -0.0255
 3522SOL    HW111136   5.180   5.814   1.440  1.5011  0.1897  0.4465
 3522SOL    HW211137   5.213   5.673   1.396 -0.2417  0.0583 -0.5150
 3523SOL     OW11138   1.063   1.903   5.205 -0.1411  0.2764  0.3130
 3523SOL    HW111139   1.157   1.909   5.220 -0.0597 -1.2135  0.5443
 3523SOL    HW211140   1.049   1.949   5.123  1.3053 -2.1475 -1.4353
 3524SOL     OW11141   5.940   4.934   4.257 -0.4211 -0.1425 -0.4803
 3524SOL    HW111142   5.905   4.861   4.207 -1.3030  0.5852 -0.9440
 3524SOL    HW211143   5.991   4.985   4.194 -0.5605  0.1367 -0.3688
 3525SOL     OW11144   3.465   1.879   7.261  0.3083  0.4798 -0.1952
 3525SOL    HW111145   3.536   1.913   7.315 -1.0594  0.9443  1.3926
 3525SOL    HW211146   3.398   1.947   7.263 -0.7471 -0.5192 -0.4983
 3526SOL     OW11147   2.123   1.718   7.078  0.5729  0.3955  0.0185
 3526SOL    HW111148   2.051   1.692   7.021 -0.5261  0.0448  1.4999
 3526SOL    HW211149   2.081   1.744   7.160  2.2109 -2.4988  1.9943
 3527SOL     OW11150   5.556   3.071   3.149  0.5601 -0.1020  0.7198
 3527SOL    HW111151   5.555   3.047   3.056  0.5744 -1.4455  1.0401
 3527SOL    HW211152   5.515   3.158   3.152 -1.2516 -0.8600 -0.3316
 3528SOL     OW11153   6.264   2.391   4.374 -0.0376 -0.3936 -0.4410
 3528SOL    HW111154   6.257   2.466   4.315  2.8371 -0.6287 -1.2459
 3528SOL    HW211155   6.348   2.351   4.351 -0.5456 -2.6768  1.3517
 3529SOL     OW11156   7.333   1.645   2.662 -0.1986 -0.7082 -0.4987
 3529SOL    HW111157   7.316   1.568   2.608  0.6082 -1.1189 -0.1965
 3529SOL    HW211158   7.293   1.718   2.615 -1.3850 -1.3774 -0.5604
 3530SOL     OW11159   2.241   4.134   2.984  0.3250  0.6210 -0.0815
 3530SOL    HW111160   2.302   4.159   2.915 -0.0021  1.2338 -0.1559
 3530SOL    HW211161   2.249   4.039   2.991  2.3843  0.8050  0.9139
 3531SOL     OW11162   3.541   6.546   4.112  0.1939 -0.3733  0.1164
 3531SOL    HW111163   3.534   6.531   4.018 -2.0228 -0.6010  0.2591
 3531SOL    HW211164   3.538   6.458   4.151 -1.1730 -0.1894  0.4678
 3532SOL     OW11165   4.951   0.934   3.826 -0.8231 -0.0261 -0.4287
 3532SOL    HW111166   4.961   1.002   3.759  0.0274 -0.5748 -0.8753
 3532SOL    HW211167   5.036   0.932   3.871 -1.0167 -0.4356 -0.0734
 3533SOL     OW11168   2.799   0.838   1.642  0.1687 -0.3103  0.5942
 3533SOL    HW111169   2.785   0.924   1.682 -1.1310  0.1382 -0.7398
 3533SOL    HW211170   2.890   0.841   1.611  0.0136  0.7748  0.1743
 3534SOL     OW11171   5.801   5.364   1.053  0.0091 -0.2328  0.3868
 3534SOL    HW111172   5.761   5.296   0.999 -0.6729  0.9813 -0.6833
 3534SOL    HW211173   5.762   5.353   1.139  0.0738 -1.3314  0.2818
 3535SOL     OW11174   0.807   2.173   5.729 -0.0047  0.5237  0.3970
 3535SOL    HW111175   0.730   2.225   5.753 -0.3465 -0.5834  1.8965
 3535SOL    HW211176   0.778   2.082   5.738  1.5458  0.0816  1.2954
 3536SOL     OW11177   6.265   6.630   7.102  0.3462  0.0964  0.6396
 3536SOL    HW111178   6.174   6.653   7.081  0.1916 -0.0103  1.1907
 3536SOL    HW211179   6.317   6.689   7.047 -0.0532  0.5392  0.7245
 3537SOL     OW11180   0.628   7.363   1.635  0.1995  0.2790 -0.4374
 3537SOL    HW111181   0.592   7.308   1.704 -0.1438 -0.2453 -1.0360
 3537SOL    HW211182   0.579   7.445   1.642  0.9958  0.6968  0.7248
 3538SOL     OW11183   7.067   2.400   5.040 -0.0787 -0.0458  0.2940
 3538SOL    HW111184   7.104   2.486   5.062 -3.1248  2.0355 -1.9098
 3538SOL    HW211185   7.070   2.397   4.944  2.4967 -3.8028  0.2576
 3539SOL     OW11186   2.279   7.036   7.430  0.3527  0.6551 -0.0975
 3539SOL    HW111187   2.372   7.045   7.408  0.3279  0.9706 -0.0838
 3539SOL    HW211188   2.236   7.028   7.345  0.5492 -1.2282 -0.0635
 3540SOL     OW11189   2.869   3.634   1.262 -0.5209 -0.0734 -0.3098
 3540SOL    HW111190   2.941   3.696   1.247 -0.2913 -0.2368  0.1163
 3540SOL    HW211191   2.791   3.690   1.268 -0.2477  0.2324  0.5868
 3541SOL     OW11192   1.003   0.688   2.278 -0.8191 -0.7965  0.2524
 3541SOL    HW111193   1.088   0.676   2.320 -0.4535 -0.7721 -0.4713
 3541SOL    HW211194   1.024   0.721   2.190 -1.5487 -1.4793 -0.1860
 3542SOL     OW11195   3.359   0.597   3.557 -0.4059 -0.5904 -0.0780
 3542SOL    HW111196   3.319   0.677   3.592  0.9995 -0.6324  1.7819
 3542SOL    HW211197   3.288   0.532   3.558 -0.8922 -0.0690  0.9736
 3543SOL     OW11198   3.102   4.575   4.358 -0.4315 -0.1157  0.2688
 3543SOL    HW111199   3.178   4.619   4.319 -0.9753 -2.0718 -3.4882
 3543SOL    HW211200   3.131   4.484   4.370 -2.6597 -1.5868 -3.7111
 3544SOL     OW11201   0.754   0.167   1.359 -0.1382  0.4666 -0.0568
 3544SOL    HW111202   0.665   0.173   1.395 -0.1658 -0.2096 -0.0098
 3544SOL    HW211203   0.789   0.256   1.367 -0.7212  0.6792  0.1580
 3545SOL     OW11204   0.392   0.506   1.133  0.0108 -0.8388  0.6184
 3545SOL    HW111205   0.478   0.530   1.098 -1.2087  1.5527 -1.0431
 3545SOL    HW211206   0.403   0.508   1.228  1.8170 -0.7155  0.4283
 3546SOL     OW11207   2.107   6.193   3.917 -0.0198  0.3430  0.2044
 3546SOL    HW111208   2.123   6.140   3.839  0.7692 -0.1054  0.6632
 3546SOL    HW211209   2.126   6.135   3.990 -2.4530  0.1775  0.8157
 3547SOL     OW11210   6.058   3.633   5.225  0.2534  0.7764  0.4030
 3547SOL    HW111211   6.070   3.595   5.138 -1.8134  1.6577 -0.3509
 3547SOL    HW211212   6.063   3.559   5.285 -0.5934 -0.2431 -0.7245
 3548SOL     OW11213   4.711   0.740   7.249 -0.4037 -0.3760 -0.2703
 3548SOL    HW111214   4.620   0.730   7.278 -1.4579  0.7801 -2.8324
 3548SOL    HW211215   4.756   0.664   7.286 -2.4440 -1.0909  0.9285
 3549SOL     OW11216   2.487   6.128   6.438  0.1134 -0.2130  0.1239
 3549SOL    HW111217   2.544   6.202   6.423  0.4948 -0.3940  0.6325
 3549SOL    HW211218   2.543   6.063   6.481 -0.8711  0.2951  2.3224
 3550SOL     OW11219   3.818   0.906   6.673  0.2134  0.0381 -0.3345
 3550SOL    HW111220   3.856   0.983   6.714  2.9134 -0.0621 -2.3863
 3550SOL    HW211221   3.782   0.937   6.591  0.8522 -0.7691 -0.9404
 3551SOL     OW11222   1.263   6.702   4.895  0.0526 -0.3541  0.0668
 3551SOL    HW111223   1.292   6.731   4.981 -0.5270 -0.8371  0.4325
 3551SOL    HW211224   1.334   6.729   4.836  0.2071  0.4660  0.6029
 3552SOL     OW11225   7.104   7.025   3.232 -0.1150  0.4185 -0.0465
 3552SOL    HW111226   7.088   6.936   3.266  0.1357  0.2043 -0.4760
 3552SOL    HW211227   7.019   7.053   3.197 -0.1009  0.1892 -0.2683
 3553SOL     OW11228   6.736   1.350   0.333 -0.6842 -0.3159 -0.2868
 3553SOL    HW111229   6.714   1.415   0.266 -0.0585 -0.6184 -0.7956
 3553SOL    HW211230   6.721   1.266   0.290  0.3797 -0.5178 -0.2736
 3554SOL     OW11231   5.336   5.972   4.739  0.4126  0.1860  0.4018
 3554SOL    HW111232   5.425   5.946   4.716 -0.1792 -1.2154 -0.4846
 3554SOL    HW211233   5.318   5.928   4.822  0.0241 -0.8760 -0.2186
 3555SOL     OW11234   1.363   3.016   4.813  0.1591  0.4447  0.2567
 3555SOL    HW111235   1.348   3.088   4.752  0.4675  0.7486  0.5316
 3555SOL    HW211236   1.458   3.000   4.808 -0.2062 -1.4641 -1.4928
 3556SOL     OW11237   2.545   4.545   6.507  0.2792 -0.2893  0.1158
 3556SOL    HW111238   2.543   4.573   6.598  2.4434 -1.4494  0.5979
 3556SOL    HW211239   2.606   4.604   6.464 -1.9823  1.3345 -1.0803
 3557SOL     OW11240   0.432   5.421   4.117  0.4890 -0.2020 -0.8640
 3557SOL    HW111241   0.403   5.504   4.154  1.0527  0.3677 -1.6750
 3557SOL    HW211242   0.351   5.373   4.100  0.0506  0.8668 -1.9530
 3558SOL     OW11243   5.964   0.796   3.398 -0.0015 -0.5582  0.2067
 3558SOL    HW111244   5.998   0.720   3.444  1.1665 -0.0501  0.2152
 3558SOL    HW211245   5.978   0.869   3.459 -0.1856 -0.1771 -0.2019
 3559SOL     OW11246   7.081   5.247   0.519 -0.2570  0.7648 -0.0806
 3559SOL    HW111247   7.016   5.197   0.470 -0.1698  1.5445 -1.0224
 3559SOL    HW211248   7.137   5.286   0.452 -0.8446  2.8295  0.5512
 3560SOL     OW11249   2.851   2.678   2.125 -0.3091 -0.1224  0.0174
 3560SOL    HW111250   2.837   2.717   2.039  0.0386 -0.3344 -0.1342
 3560SOL    HW211251   2.782   2.717   2.180 -0.4847  0.0681 -0.3347
 3561SOL     OW11252   2.302   5.017   5.378  0.0272 -0.2821 -0.4035
 3561SOL    HW111253   2.326   4.981   5.293 -1.1658  0.3385 -1.0156
 3561SOL    HW211254   2.288   4.940   5.433  1.5601 -0.6806 -0.5327
 3562SOL     OW11255   1.541   2.698   1.587  0.3520  0.6521 -0.0027
 3562SOL    HW111256   1.530   2.713   1.493  1.2272  0.4777 -0.1389
 3562SOL    HW211257   1.458   2.725   1.625 -1.1036 -1.9069 -1.0969
 3563SOL     OW11258   4.809   2.928   4.660  0.1076  0.4229 -1.1652
 3563SOL    HW111259   4.778   2.891   4.742  2.7689 -0.1510 -0.3216
 3563SOL    HW211260   4.749   2.894   4.593  0.3146 -2.5329  0.0307
 3564SOL     OW11261   4.822   3.853   5.286 -0.2262 -0.5637  0.1026
 3564SOL    HW111262   4.868   3.915   5.342  1.3169 -1.5235 -0.0517
 3564SOL    HW211263   4.800   3.779   5.343  0.3700 -1.0555 -0.2844
 3565SOL     OW11264   3.476   1.322   2.561 -0.4355  0.0200  0.0756
 3565SOL    HW111265   3.408   1.270   2.519 -0.2790 -0.0879 -0.0465
 3565SOL    HW211266   3.462   1.309   2.655 -0.8640  0.3637  0.0651
 3566SOL     OW11267   6.532   7.034   2.394  0.0439  0.2154 -0.8023
 3566SOL    HW111268   6.625   7.023   2.375  0.9653  0.6696  2.7160
 3566SOL    HW211269   6.521   7.128   2.409 -0.8099  0.0742 -0.4658
 3567SOL     OW11270   4.282   5.147   4.313 -0.4505  0.5126 -0.5299
 3567SOL    HW111271   4.277   5.073   4.374  1.5511  0.6445 -0.1396
 3567SOL    HW211272   4.369   5.139   4.273 -0.5893  2.0875 -1.2033
 3568SOL     OW11273   3.766   6.650   3.857  0.2713  0.8805  0.4149
 3568SOL    HW111274   3.764   6.637   3.762 -0.7509  0.3583  0.5025
 3568SOL    HW211275   3.804   6.738   3.868 -0.0963  1.1648 -0.4984
 3569SOL     OW11276   4.297   1.151   5.203 -0.0040 -0.2149  0.4052
 3569SOL    HW111277   4.314   1.061   5.231 -0.0795 -0.6805 -0.9877
 3569SOL    HW211278   4.347   1.161   5.122 -0.8092  0.6765  0.0063
 3570SOL     OW11279   0.651   3.476   3.750 -0.3313  0.2472 -0.0453
 3570SOL    HW111280   0.631   3.569   3.738 -0.2269  0.1335 -1.1812
 3570SOL    HW211281   0.575   3.441   3.797 -0.8338  0.7060 -0.4992
 3571SOL     OW11282   5.916   3.117   4.208 -0.2313  0.2058  0.0942
 3571SOL    HW111283   5.972   3.182   4.250 -1.0428 -1.2301  3.7989
 3571SOL    HW211284   5.829   3.158   4.207 -0.3290  0.0102  0.4196
 3572SOL     OW11285   4.061   2.607   1.682 -0.7519  0.2655 -0.0024
 3572SOL    HW111286   4.127   2.580   1.619  1.5132 -0.2902  2.4310
 3572SOL    HW211287   4.025   2.525   1.716 -0.5984  0.4839  0.7135
 3573SOL     OW11288   2.805   3.853   6.660  0.6231 -0.2581 -0.3908
 3573SOL    HW111289   2.820   3.783   6.596 -1.2156  0.3286 -1.5505
 3573SOL    HW211290   2.781   3.928   6.607  0.1924  0.5893  0.9659
 3574SOL     OW11291   0.007   7.028   2.901 -0.9249 -0.9844  0.2336
 3574SOL    HW111292  -0.044   7.109   2.905 -1.5544 -1.3299 -0.6416
 3574SOL    HW211293   0.066   7.039   2.827  0.0312 -0.7420  1.0102
 3575SOL     OW11294   2.239   2.922   4.666 -0.2161 -0.3645  0.0356
 3575SOL    HW111295   2.331   2.902   4.682  0.2062 -0.3470 -2.1384
 3575SOL    HW211296   2.195   2.837   4.669  0.4697 -0.8570 -2.3866
 3576SOL     OW11297   3.742   1.353   7.279  0.2343 -0.5200 -0.4193
 3576SOL    HW111298   3.806   1.285   7.303 -0.7021 -1.0849  0.5832
 3576SOL    HW211299   3.718   1.393   7.362 -0.3409  0.0257 -0.8428
 3577SOL     OW11300   6.357   0.548   2.097  0.0782 -0.2495  0.4045
 3577SOL    HW111301   6.430   0.608   2.082 -0.5745  0.1652 -1.3532
 3577SOL    HW211302   6.346   0.547   2.192  0.9019  1.4509  0.5625
 3578SOL     OW11303   0.598   2.913   0.741  0.1873  0.0995  0.3502
 3578SOL    HW111304   0.553   2.897   0.658  0.7744 -1.8089  0.3384
 3578SOL    HW211305   0.548   2.983   0.783 -2.6536 -1.7059  0.2057
 3579SOL     OW11306   4.663   6.400   0.239 -0.3161 -0.3429  0.3298
 3579SOL    HW111307   4.749   6.367   0.212  0.3128  0.3069  1.4726
 3579SOL    HW211308   4.648   6.476   0.181  0.7588  0.6875  1.3392
 3580SOL     OW11309   3.558   1.996   3.209 -0.0321 -0.7586 -0.2248
 3580SOL    HW111310   3.466   1.971   3.224 -0.2184  0.7538  1.5163
 3580SOL    HW211311   3.568   1.994   3.114 -1.9625 -0.6858 -0.4701
 3581SOL     OW11312   5.014   6.303   1.298  1.0562  0.5582  0.0187
 3581SOL    HW111313   5.105   6.274   1.296  0.8128 -0.4127  1.5621
 3581SOL    HW211314   4.992   6.316   1.206  2.6055  0.3750 -0.4140
 3582SOL     OW11315   1.269   2.891   1.016 -0.0267 -1.2480 -0.0168
 3582SOL    HW111316   1.285   2.902   0.922 -0.0821  1.2925  0.2110
 3582SOL    HW211317   1.355   2.897   1.057 -0.2788  1.0410  0.3038
 3583SOL     OW11318   0.318   3.513   4.708 -0.0785  0.3443 -0.4876
 3583SOL    HW111319   0.235   3.555   4.683 -0.9350 -1.7604 -1.4856
 3583SOL    HW211320   0.306   3.487   4.799  0.2347  1.6623 -0.0483
 3584SOL     OW11321   2.503   5.173   1.577 -0.1831 -0.3247 -0.0466
 3584SOL    HW111322   2.576   5.114   1.594 -2.4230 -2.9799  1.3903
 3584SOL    HW211323   2.529   5.223   1.500  3.0665 -1.1203  0.3962
 3585SOL     OW11324   2.533   6.611   6.517  0.0567 -0.2506  0.7224
 3585SOL    HW111325   2.523   6.652   6.602  0.0580 -2.5700  1.9352
 3585SOL    HW211326   2.626   6.622   6.495 -0.4120  2.4916 -0.2349
 3586SOL     OW11327   0.688   0.143   7.117  0.0313  0.1609 -0.4968
 3586SOL    HW111328   0.635   0.150   7.037  0.0719  0.7948 -0.4739
 3586SOL    HW211329   0.778   0.133   7.085 -0.1886 -2.2124 -0.5615
 3587SOL     OW11330   4.411   5.501   1.170  0.5454  0.0272  0.1035
 3587SOL    HW111331   4.475   5.553   1.219 -0.2132 -0.6201  1.8517
 3587SOL    HW211332   4.412   5.539   1.082  2.5229  0.7289  0.3754
 3588SOL     OW11333   1.115   2.864   3.752  0.6408 -0.0637 -0.0183
 3588SOL    HW111334   1.086   2.815   3.829  1.5062 -0.2338  0.2135
 3588SOL    HW211335   1.069   2.823   3.679  0.4405 -0.4400  0.3133
 3589SOL     OW11336   7.433   6.688   7.269 -0.1066 -0.3975  0.0886
 3589SOL    HW111337   7.426   6.720   7.359  2.7003  1.5818 -0.2678
 3589SOL    HW211338   7.351   6.713   7.228  0.1320  2.3178  1.0969
 3590SOL     OW11339   4.616   6.227   3.856  0.5159  0.2919 -0.3870
 3590SOL    HW111340   4.523   6.217   3.874  0.9651 -1.9740  1.1003
 3590SOL    HW211341   4.640   6.147   3.809  1.7815  0.7204 -0.5053
 3591SOL     OW11342   3.120   7.090   1.827 -0.6284 -0.0973  0.0626
 3591SOL    HW111343   3.085   7.013   1.782 -1.0210  0.1502 -0.0624
 3591SOL    HW211344   3.198   7.115   1.776  0.0077 -0.9184  0.6039
 3592SOL     OW11345   6.061   0.520   2.646 -0.1368  0.6344  0.3245
 3592SOL    HW111346   6.036   0.497   2.736  2.1664 -0.5665  0.7271
 3592SOL    HW211347   5.990   0.484   2.592 -1.0495  0.4761  1.5884
 3593SOL     OW11348   2.828   1.794   0.475 -0.0843 -0.1594  0.5301
 3593SOL    HW111349   2.778   1.858   0.426  0.7821  2.0364  2.3329
 3593SOL    HW211350   2.798   1.709   0.443  0.0639  1.0708 -3.3471
 3594SOL     OW11351   4.639   4.344   0.351 -0.1407 -0.0334  0.3470
 3594SOL    HW111352   4.705   4.388   0.297  1.0686 -3.3660 -1.2290
 3594SOL    HW211353   4.556   4.359   0.306  0.0563  1.4417  0.4532
 3595SOL     OW11354   1.141   2.050   1.467  0.7498  0.3218  0.2195
 3595SOL    HW111355   1.230   2.017   1.475  0.1174 -1.8170 -0.8131
 3595SOL    HW211356   1.146   2.120   1.402  2.0227  1.9751  1.9729
 3596SOL     OW11357   6.766   5.039   2.148  0.0825 -0.1408  0.5425
 3596SOL    HW111358   6.727   4.963   2.191 -2.0765  0.0643 -0.9077
 3596SOL    HW211359   6.725   5.042   2.062  2.7224  0.6556 -0.8133
 3597SOL     OW11360   7.244   3.853   1.508  0.2674 -0.1352  0.8731
 3597SOL    HW111361   7.288   3.930   1.471  0.1189 -0.8866 -0.9221
 3597SOL    HW211362   7.151   3.870   1.495  0.2775 -1.1687 -0.7107
 3598SOL     OW11363   5.687   4.866   4.573 -0.2482 -0.2096  0.0260
 3598SOL    HW111364   5.694   4.954   4.610  2.0691 -0.5832  0.6538
 3598SOL    HW211365   5.770   4.854   4.525 -0.6282 -1.9503 -0.2598
 3599SOL     OW11366   1.144   7.023   2.803 -0.2181 -0.1873 -0.2758
 3599SOL    HW111367   1.225   7.072   2.784 -0.8975  0.0287 -2.9695
 3599SOL    HW211368   1.159   6.986   2.890  2.2430  0.9217 -0.1326
 3600SOL     OW11369   3.357   1.199   0.700  0.0979  0.3668  0.3735
 3600SOL    HW111370   3.420   1.269   0.721  1.0315 -0.7079  1.2676
 3600SOL    HW211371   3.369   1.134   0.770 -2.3046  0.2906  0.8038
 3601SOL     OW11372   7.270   6.078   0.158  0.5136  0.0209  0.0524
 3601SOL    HW111373   7.357   6.077   0.197  0.6483  0.7805 -0.1996
 3601SOL    HW211374   7.285   6.058   0.066  0.8281  2.9865 -0.6533
 3602SOL     OW11375   0.112   6.229   0.602 -0.4674  0.3886 -0.4401
 3602SOL    HW111376   0.096   6.295   0.669 -0.7936 -1.3766  1.3135
 3602SOL    HW211377   0.030   6.179   0.598  0.3160 -0.9356 -0.4827
 3603SOL     OW11378   7.323   6.105   1.253  1.0161 -0.3078  0.0057
 3603SOL    HW111379   7.380   6.181   1.236  1.2598 -0.1523  1.3859
 3603SOL    HW211380   7.255   6.139   1.311 -0.1622 -0.6425 -1.1347
 3604SOL     OW11381   6.805   5.038   0.824 -0.0641 -0.7105  0.0728
 3604SOL    HW111382   6.763   5.003   0.903 -1.3539  0.9849  0.1870
 3604SOL    HW211383   6.734   5.042   0.759  0.5669 -0.3633 -0.6069
 3605SOL     OW11384   0.355   2.235   6.953 -0.3362 -0.1287 -0.1963
 3605SOL    HW111385   0.308   2.277   7.026 -0.4978 -2.1773  0.9653
 3605SOL    HW211386   0.288   2.181   6.910  0.1495 -0.2484 -0.8053
 3606SOL     OW11387   4.599   5.997   3.013  0.3363 -0.1501 -0.3466
 3606SOL    HW111388   4.574   5.905   3.022  1.2042 -0.4785 -1.1816
 3606SOL    HW211389   4.578   6.020   2.923 -0.0084  0.5262 -0.1070
 3607SOL     OW11390   1.621   0.572   0.607  0.0193 -0.0676 -0.1001
 3607SOL    HW111391   1.555   0.637   0.629  1.1879  1.0184  0.3056
 3607SOL    HW211392   1.575   0.510   0.550 -1.2937  0.7397  0.0329
 3608SOL     OW11393   0.638   7.199   0.451  0.1893 -0.0995  0.3343
 3608SOL    HW111394   0.603   7.137   0.386 -2.0200 -0.1553  1.4836
 3608SOL    HW211395   0.678   7.144   0.518  0.3436 -0.1557  0.1971
 3609SOL     OW11396   0.938   2.460   4.409 -0.3938  0.0173 -0.4580
 3609SOL    HW111397   0.856   2.504   4.387 -0.5052  0.8099  1.3818
 3609SOL    HW211398   0.965   2.499   4.492  2.0165 -0.0110 -1.1470
 3610SOL     OW11399   0.441   0.934   1.542 -0.1352 -0.0326 -0.5518
 3610SOL    HW111400   0.481   0.851   1.567 -0.9863 -0.3157 -0.0619
 3610SOL    HW211401   0.491   0.963   1.466  0.9219 -0.4074 -0.0167
 3611SOL     OW11402   0.869   3.796   0.518 -0.4342 -0.8180  0.5439
 3611SOL    HW111403   0.955   3.797   0.475 -0.4235 -1.6626  0.5363
 3611SOL    HW211404   0.889   3.811   0.611 -0.3242 -0.5468  0.4789
 3612SOL     OW11405   4.131   2.601   5.370 -0.0154 -0.5236  0.2493
 3612SOL    HW111406   4.134   2.584   5.276 -0.5097 -0.3798  0.2003
 3612SOL    HW211407   4.037   2.600   5.391  0.0959 -0.6151  0.7503
 3613SOL     OW11408   2.194   5.606   4.486  0.1943  0.2960  0.1854
 3613SOL    HW111409   2.135   5.588   4.558 -0.9007 -1.3527 -1.0535
 3613SOL    HW211410   2.268   5.547   4.500 -0.3655 -0.5710 -0.3963
 3614SOL     OW11411   0.672   4.000   0.469  0.1202  0.2584  0.1343
 3614SOL    HW111412   0.627   4.024   0.550  1.1214  0.2348  0.7133
 3614SOL    HW211413   0.725   3.924   0.492  1.7965  1.3205 -0.0573
 3615SOL     OW11414   1.946   4.966   2.154 -0.2360  0.2207 -1.1295
 3615SOL    HW111415   2.007   5.014   2.210 -1.0057 -0.1551  0.0429
 3615SOL    HW211416   1.885   5.032   2.122 -0.0715  0.3540 -1.1737
 3616SOL     OW11417   0.411   4.992   5.973 -0.1251 -0.3602  0.2584
 3616SOL    HW111418   0.427   4.937   6.049 -1.0648 -0.4101  0.4360
 3616SOL    HW211419   0.350   5.059   6.004  1.1615  0.9240  0.1066
 3617SOL     OW11420   0.618   6.552   0.321 -0.3687 -0.4402  0.6029
 3617SOL    HW111421   0.603   6.459   0.339 -0.4766 -1.1177 -2.4040
 3617SOL    HW211422   0.569   6.568   0.240 -0.4864  2.3139  1.1302
 3618SOL     OW11423   5.340   5.097   4.143 -0.4387  0.0938  0.1873
 3618SOL    HW111424   5.329   5.192   4.150  0.5417  0.0895  3.0498
 3618SOL    HW211425   5.433   5.082   4.161 -0.3658 -1.3944 -1.1824
 3619SOL     OW11426   0.153   1.601   0.540  0.1371 -0.3278  0.1249
 3619SOL    HW111427   0.150   1.539   0.467  0.8860 -0.1825 -0.0377
 3619SOL    HW211428   0.117   1.553   0.614  0.7343 -0.9739  0.0051
 3620SOL     OW11429   0.551   7.229   7.363 -0.5110 -0.0878 -0.1871
 3620SOL    HW111430   0.553   7.259   7.454  0.5343  1.2552 -0.6171
 3620SOL    HW211431   0.485   7.160   7.362 -0.3969 -0.2738  1.6302
 3621SOL     OW11432   5.293   3.346   2.154  0.1887  0.3889  0.1144
 3621SOL    HW111433   5.381   3.341   2.117  0.3349  1.2508  0.3262
 3621SOL    HW211434   5.255   3.260   2.137  1.4211 -0.3507  0.9095
 3622SOL     OW11435   7.002   6.543   3.169 -0.3514 -0.5258 -0.0732
 3622SOL    HW111436   7.026   6.451   3.154 -0.9349 -0.4982 -1.3658
 3622SOL    HW211437   6.912   6.550   3.135 -0.8952  0.1771  1.4253
 3623SOL     OW11438   5.688   7.146   4.173 -0.6160  0.7872  0.3228
 3623SOL    HW111439   5.595   7.153   4.195 -0.5996  1.0133  0.3205
 3623SOL    HW211440   5.734   7.172   4.254 -0.5554  0.5359  0.3688
 3624SOL     OW11441   3.256   3.017   3.891  0.3318  0.1439 -0.2890
 3624SOL    HW111442   3.179   3.059   3.853  0.2551 -0.7867 -1.2204
 3624SOL    HW211443   3.328   3.043   3.834  0.6473  0.7111  0.3640
 3625SOL     OW11444   6.534   2.566   2.499  0.2338  0.6120 -0.4434
 3625SOL    HW111445   6.570   2.479   2.516  0.1481  0.0636 -2.7051
 3625SOL    HW211446   6.559   2.618   2.575 -0.2143 -1.5100  1.2364
 3626SOL     OW11447   5.445   4.910   0.429 -0.1612 -0.5536  0.1122
 3626SOL    HW111448   5.381   4.878   0.493  0.0893 -1.3918 -0.0386
 3626SOL    HW211449   5.526   4.865   0.453 -0.0686 -0.8859 -0.7942
 3627SOL     OW11450   4.106   2.300   3.257  0.0553  0.4845 -0.2167
 3627SOL    HW111451   4.022   2.297   3.302  0.4179 -0.9238  0.3921
 3627SOL    HW211452   4.165   2.342   3.320  1.0618 -3.2679  1.6017
 3628SOL     OW11453   6.267   2.082   5.466 -0.3379  0.0530 -0.3608
 3628SOL    HW111454   6.321   2.035   5.529 -1.1164  1.1184  1.1597
 3628SOL    HW211455   6.321   2.157   5.440 -0.0318 -0.3661 -0.9596
 3629SOL     OW11456   1.456   0.889   1.590  0.2264 -0.5587 -0.0516
 3629SOL    HW111457   1.546   0.858   1.582  0.2655 -0.2925 -0.6995
 3629SOL    HW211458   1.404   0.822   1.545  0.0542 -0.9035  0.6445
 3630SOL     OW11459   5.933   2.733   5.971  0.0238  0.6293 -0.4938
 3630SOL    HW111460   5.952   2.687   6.053 -2.7515  0.2796  0.0566
 3630SOL    HW211461   5.928   2.663   5.905  3.0281  0.9847 -1.2109
 3631SOL     OW11462   0.394   6.615   0.743  0.2277  0.2056  0.0327
 3631SOL    HW111463   0.391   6.520   0.753  1.8620  0.0304 -0.7911
 3631SOL    HW211464   0.337   6.648   0.812 -1.0859 -1.3853 -0.2310
 3632SOL     OW11465   0.392   6.558   6.871  0.3527  0.5173  0.1209
 3632SOL    HW111466   0.334   6.630   6.846  0.9695  2.1992  3.1041
 3632SOL    HW211467   0.342   6.479   6.849 -0.8537  1.8109 -2.1502
 3633SOL     OW11468   4.075   1.673   4.467  0.2217  0.3338 -0.2986
 3633SOL    HW111469   4.093   1.689   4.375 -0.5902 -0.9435 -0.7169
 3633SOL    HW211470   3.992   1.625   4.467  1.3865 -1.8621  0.9066
 3634SOL     OW11471   4.150   6.591   2.151 -0.9584 -0.2844 -0.2368
 3634SOL    HW111472   4.068   6.564   2.192 -1.5683 -0.5097 -1.5426
 3634SOL    HW211473   4.127   6.668   2.099 -0.7773 -1.3753 -2.0254
 3635SOL     OW11474   2.880   3.902   6.003 -0.2598 -0.1416 -0.2665
 3635SOL    HW111475   2.931   3.823   6.023  1.9291  1.3209  0.2282
 3635SOL    HW211476   2.853   3.935   6.089 -2.4560 -1.0670 -0.5267
 3636SOL     OW11477   2.762   5.798   3.763 -0.2755  0.0203  0.1565
 3636SOL    HW111478   2.819   5.726   3.789 -0.2216  0.4743  1.3879
 3636SOL    HW211479   2.683   5.756   3.729  0.8683 -0.6193 -1.8434
 3637SOL     OW11480   2.703   2.769   3.908  0.2126 -0.3705  0.2935
 3637SOL    HW111481   2.748   2.691   3.877 -0.4039 -1.5373  2.1494
 3637SOL    HW211482   2.610   2.744   3.911 -0.2663  1.0737 -0.8424
 3638SOL     OW11483   6.865   7.313   4.735  0.0227  0.2342  0.4332
 3638SOL    HW111484   6.815   7.258   4.795 -0.4639  2.0514  1.7889
 3638SOL    HW211485   6.881   7.393   4.784  1.4571  0.9733 -1.1510
 3639SOL     OW11486   3.273   1.467   5.706 -0.0059  0.0542 -0.0471
 3639SOL    HW111487   3.190   1.472   5.752  0.3017 -1.1969  0.6950
 3639SOL    HW211488   3.250   1.478   5.614 -1.4537 -3.1762 -0.2068
 3640SOL     OW11489   5.637   0.490   0.018 -0.4765 -0.3302  0.0178
 3640SOL    HW111490   5.674   0.475  -0.070  0.9538 -0.5347  0.6324
 3640SOL    HW211491   5.672   0.419   0.071  0.9126  1.3130  1.4040
 3641SOL     OW11492   2.017   6.324   0.642  0.3203  0.0508 -0.4774
 3641SOL    HW111493   2.003   6.248   0.586  2.6712 -0.1533 -0.9047
 3641SOL    HW211494   1.955   6.390   0.610  0.2341 -0.7282 -1.9876
 3642SOL     OW11495   1.990   5.297   6.956 -0.1657 -0.5586 -0.1803
 3642SOL    HW111496   1.933   5.374   6.960 -0.0331 -0.5125  1.9605
 3642SOL    HW211497   1.930   5.223   6.951 -0.3018 -0.3690 -1.7961
 3643SOL     OW11498   7.094   6.500   0.757  0.2051 -0.3363  0.0606
 3643SOL    HW111499   7.002   6.520   0.739 -0.3873  0.0674  2.9717
 3643SOL    HW211500   7.113   6.548   0.838  1.4338 -4.2938  2.3883
 3644SOL     OW11501   4.587   3.334   2.518  0.3622 -0.2530 -0.3568
 3644SOL    HW111502   4.549   3.283   2.590 -0.1435 -1.4842 -1.4715
 3644SOL    HW211503   4.681   3.332   2.535  0.1957  0.2457  0.7557
 3645SOL     OW11504   5.118   4.671   1.850 -0.1164  0.2187  0.1486
 3645SOL    HW111505   5.078   4.585   1.839 -0.2129  0.1204  1.1846
 3645SOL    HW211506   5.192   4.656   1.909 -0.3568  0.8989  0.6375
 3646SOL     OW11507   1.913   1.784   7.269 -0.0853  0.1386 -0.3904
 3646SOL    HW111508   1.976   1.819   7.333  0.7524 -0.1683 -1.0239
 3646SOL    HW211509   1.847   1.853   7.260  0.8509  1.0217 -0.6592
 3647SOL     OW11510   5.069   7.168   2.223 -0.5785  0.3411 -0.4177
 3647SOL    HW111511   4.976   7.167   2.243 -0.6499  0.7285 -0.7095
 3647SOL    HW211512   5.111   7.125   2.297 -1.0648 -0.6485 -0.7014
 3648SOL     OW11513   7.092   6.151   4.117  0.3957 -0.0775 -0.2565
 3648SOL    HW111514   7.005   6.171   4.083  0.2630 -0.2790 -0.0358
 3648SOL    HW211515   7.078   6.079   4.179  0.4898  0.9594  1.0100
 3649SOL     OW11516   2.684   2.963   6.968  0.9071 -0.0625 -0.2372
 3649SOL    HW111517   2.728   2.892   6.920 -1.3476 -0.9610 -1.1033
 3649SOL    HW211518   2.692   2.938   7.060 -0.5045 -1.9333 -0.5628
 3650SOL     OW11519   0.625   5.154   3.897 -0.0450 -0.6783 -0.5736
 3650SOL    HW111520   0.561   5.117   3.958 -1.6944 -0.6336 -2.1903
 3650SOL    HW211521   0.614   5.249   3.905  0.1409 -0.6586 -0.5447
 3651SOL     OW11522   5.550   4.569   3.616 -0.2656  0.1139  0.3152
 3651SOL    HW111523   5.595   4.531   3.692 -0.2325 -0.5273 -0.0168
 3651SOL    HW211524   5.457   4.564   3.638 -0.2789 -0.4795  0.1306
 3652SOL     OW11525   2.014   7.334   6.661  0.0371 -0.3228 -0.5722
 3652SOL    HW111526   2.073   7.316   6.733 -0.9893 -0.0849  0.3639
 3652SOL    HW211527   2.010   7.430   6.657 -1.1627 -0.3090  0.1720
 3653SOL     OW11528   3.781   1.307   2.524  0.2035 -0.1305  0.1032
 3653SOL    HW111529   3.716   1.242   2.498  0.6572 -1.0979  1.2469
 3653SOL    HW211530   3.841   1.312   2.450 -0.1301 -0.6407 -0.2123
 3654SOL     OW11531   3.968   5.564   6.828  0.5630 -0.6013  0.0083
 3654SOL    HW111532   3.932   5.579   6.915  0.2492 -2.0665  0.1622
 3654SOL    HW211533   3.992   5.472   6.827  0.5212 -0.6318 -1.4626
 3655SOL     OW11534   1.959   7.191   6.963  0.2902 -0.1798  0.1418
 3655SOL    HW111535   1.917   7.276   6.949  0.2188 -0.1658  0.4277
 3655SOL    HW211536   2.052   7.211   6.968  0.1771  0.1362  1.9132
 3656SOL     OW11537   6.408   1.951   7.418 -0.1414 -0.1267  0.1043
 3656SOL    HW111538   6.501   1.933   7.404  0.2346  0.3404  1.7752
 3656SOL    HW211539   6.388   2.022   7.358  0.1521 -1.2885 -1.4339
 3657SOL     OW11540   6.442   1.171   5.244 -0.8858  0.1150 -0.4139
 3657SOL    HW111541   6.410   1.154   5.155  1.2735 -0.5753 -1.1346
 3657SOL    HW211542   6.395   1.109   5.299 -2.4759  0.7544 -1.0004
 3658SOL     OW11543   3.018   1.014   3.305  0.2405  0.0036 -0.1350
 3658SOL    HW111544   3.103   1.057   3.298  0.7452 -0.7732  0.8159
 3658SOL    HW211545   3.039   0.924   3.330 -0.8703 -0.0853  0.5876
 3659SOL     OW11546   6.707   0.448   2.242 -0.3593  0.2371 -0.0450
 3659SOL    HW111547   6.685   0.440   2.149 -0.1594 -0.7554 -0.0107
 3659SOL    HW211548   6.710   0.358   2.274 -0.3374  0.5701  0.9059
 3660SOL     OW11549   2.331   4.466   7.200 -0.2824 -0.8619  0.5517
 3660SOL    HW111550   2.332   4.562   7.204 -0.1738 -0.8778  3.2072
 3660SOL    HW211551   2.240   4.443   7.216 -0.6748 -1.2434 -1.9339
 3661SOL     OW11552   1.113   4.774   3.648  0.0658  0.0516  0.5827
 3661SOL    HW111553   1.080   4.776   3.558  2.0140  1.1938 -0.1747
 3661SOL    HW211554   1.194   4.724   3.642  0.0037 -0.2129  1.7986
 3662SOL     OW11555   1.932   7.441   2.512  0.0314 -0.1793 -0.7291
 3662SOL    HW111556   1.972   7.514   2.463  0.0247  0.0851 -0.3419
 3662SOL    HW211557   1.999   7.372   2.510  0.4477  0.2022 -0.2297
 3663SOL     OW11558   1.347   2.168   3.124 -0.1301 -0.1223  0.1059
 3663SOL    HW111559   1.420   2.197   3.070  0.6627  1.0690  1.7313
 3663SOL    HW211560   1.272   2.218   3.093  0.8245  2.4097  1.6071
 3664SOL     OW11561   3.943   6.527   7.213 -0.3338 -0.3754  0.2424
 3664SOL    HW111562   3.991   6.459   7.260 -0.0035  0.4212  1.0884
 3664SOL    HW211563   4.010   6.579   7.170 -0.6005 -0.7213 -0.6174
 3665SOL     OW11564   4.808   1.462   5.265 -0.3268  0.2083  0.3533
 3665SOL    HW111565   4.739   1.528   5.268 -0.3022  0.2138  2.5626
 3665SOL    HW211566   4.862   1.487   5.190 -0.9888  1.9923  0.4233
 3666SOL     OW11567   0.014   6.488   3.148 -0.3336 -0.6041 -0.8299
 3666SOL    HW111568   0.073   6.528   3.212 -0.8455  2.3182 -2.0133
 3666SOL    HW211569   0.061   6.494   3.065 -1.4271 -0.1196 -1.4408
 3667SOL     OW11570   2.955   3.291   3.001 -0.6436 -0.0542 -0.7097
 3667SOL    HW111571   2.909   3.237   2.938 -2.2223  0.0154  0.3442
 3667SOL    HW211572   2.916   3.270   3.086 -0.9370  2.3012 -0.1902
 3668SOL     OW11573   1.502   0.008   5.321  0.4769  0.6766 -0.0683
 3668SOL    HW111574   1.499   0.019   5.416 -0.5558 -0.2913  0.0233
 3668SOL    HW211575   1.429  -0.050   5.300 -0.0309  1.8017 -1.5987
 3669SOL     OW11576   0.993   0.530   0.019 -0.0836  0.0721 -0.3068
 3669SOL    HW111577   0.955   0.475   0.088 -1.0896 -0.5951 -1.3610
 3669SOL    HW211578   1.088   0.517   0.028 -0.1417  0.6440  1.4460
 3670SOL     OW11579   4.499   5.586   2.057  0.0501  0.0276  0.0412
 3670SOL    HW111580   4.483   5.551   2.145  1.4637  0.1056  0.3529
 3670SOL    HW211581   4.520   5.678   2.073 -0.0356  0.1283 -0.4258
 3671SOL     OW11582   7.343   6.156   4.987  0.0424 -0.1008  0.3728
 3671SOL    HW111583   7.309   6.219   5.050 -0.3951  0.5224 -0.4688
 3671SOL    HW211584   7.267   6.104   4.962 -0.1002  0.5691 -0.6720
 3672SOL     OW11585   2.461   6.381   0.537  0.0634  0.1753  0.4362
 3672SOL    HW111586   2.397   6.312   0.525 -0.7263  1.0735 -0.8002
 3672SOL    HW211587   2.409   6.461   0.545  0.9867  0.9846 -1.0549
 3673SOL     OW11588   0.451   6.135   0.202 -0.6045  0.2783 -0.0084
 3673SOL    HW111589   0.375   6.152   0.257 -0.3670  1.1085  0.0735
 3673SOL    HW211590   0.422   6.155   0.113 -0.2929  1.2835  0.1004
 3674SOL     OW11591   7.336   5.871   3.194 -0.3893 -0.2407  0.0860
 3674SOL    HW111592   7.315   5.778   3.186 -0.6678 -0.1588 -0.2053
 3674SOL    HW211593   7.387   5.878   3.274 -0.3209 -0.6529  0.0815
 3675SOL     OW11594   2.052   6.130   1.024 -0.4324 -0.2083  0.1701
 3675SOL    HW111595   2.064   6.054   1.081 -0.3311 -0.9379 -0.8178
 3675SOL    HW211596   2.138   6.143   0.983 -0.3418  0.6762  0.6059
 3676SOL     OW11597   3.258   5.260   1.757  0.7029  0.7088 -0.2724
 3676SOL    HW111598   3.270   5.278   1.851  0.5143 -1.6997  0.2862
 3676SOL    HW211599   3.347   5.263   1.721  0.7800  1.6428 -0.0342
 3677SOL     OW11600   6.459   6.434   4.740  0.2957  0.0548 -0.1771
 3677SOL    HW111601   6.378   6.391   4.767 -0.0395  1.8737  1.9963
 3677SOL    HW211602   6.521   6.415   4.811  0.8046  1.2930 -0.2730
 3678SOL     OW11603   4.477   2.220   5.065 -0.0501 -0.2874 -0.3506
 3678SOL    HW111604   4.494   2.308   5.030  0.0259  0.0426  0.4893
 3678SOL    HW211605   4.398   2.191   5.018 -0.0550  0.2151 -0.6631
 3679SOL     OW11606   4.275   0.137   1.192  0.1267  0.4655  0.0551
 3679SOL    HW111607   4.303   0.226   1.210  2.5540 -0.2236  0.0157
 3679SOL    HW211608   4.283   0.092   1.277  1.6922 -0.3418 -0.4720
 3680SOL     OW11609   4.278   3.048   0.421  0.0911  0.2819  1.0078
 3680SOL    HW111610   4.270   3.102   0.342  0.8798  0.6314  1.1526
 3680SOL    HW211611   4.220   3.088   0.485  1.1395  1.3631  1.3159
 3681SOL     OW11612   7.267   4.148   6.942 -0.4861  0.4269 -0.3402
 3681SOL    HW111613   7.333   4.123   6.878 -0.7205  0.1829 -0.4933
 3681SOL    HW211614   7.283   4.240   6.960  1.9262 -0.3184  2.0303
 3682SOL     OW11615   5.631   3.135   2.373  0.1658  0.5641 -0.2256
 3682SOL    HW111616   5.643   3.040   2.381  2.5538  0.9214  1.3976
 3682SOL    HW211617   5.579   3.146   2.293  0.2317 -2.0731 -0.7147
 3683SOL     OW11618   5.953   6.489   2.264  0.0097 -0.6626  0.2440
 3683SOL    HW111619   6.038   6.513   2.228  0.1756 -1.3745  0.1428
 3683SOL    HW211620   5.957   6.394   2.273 -0.6686 -0.6704  0.5126
 3684SOL     OW11621   6.033   7.155   3.810  0.0461 -0.3823  0.0246
 3684SOL    HW111622   6.059   7.097   3.882  1.7939 -0.2990 -0.4931
 3684SOL    HW211623   5.987   7.097   3.749  0.1724 -0.8416  0.3548
 3685SOL     OW11624   0.520   4.888   7.040  0.1037  0.4385  0.5611
 3685SOL    HW111625   0.530   4.891   7.135  0.9020 -1.4839  0.5953
 3685SOL    HW211626   0.518   4.794   7.019 -0.6144  0.8114 -1.2726
 3686SOL     OW11627   1.972   5.144   2.802  0.3144  0.6287  0.0540
 3686SOL    HW111628   1.924   5.061   2.804  1.2076  0.1012  1.2769
 3686SOL    HW211629   1.976   5.168   2.710 -0.5408 -0.3462 -0.2515
 3687SOL     OW11630   2.573   5.003   3.227  0.0771  0.6293  0.0032
 3687SOL    HW111631   2.604   4.940   3.292  1.6435  1.0215 -0.3234
 3687SOL    HW211632   2.589   5.088   3.267 -0.0535  0.8521 -0.4156
 3688SOL     OW11633   6.004   1.368   4.451 -0.5479  0.2115 -0.0291
 3688SOL    HW111634   6.087   1.318   4.452 -0.3757  0.4644 -0.9557
 3688SOL    HW211635   6.028   1.453   4.415 -1.1450  0.4276  0.0810
 3689SOL     OW11636   5.229   2.845   1.687 -0.0237  0.0752  0.3187
 3689SOL    HW111637   5.303   2.795   1.719  0.9314  1.5978  0.6150
 3689SOL    HW211638   5.218   2.818   1.596 -0.8039 -2.0435  0.9826
 3690SOL     OW11639   0.149   5.783   5.072  0.3433 -0.5098 -0.0169
 3690SOL    HW111640   0.156   5.715   5.006  0.1868  0.3146 -0.9080
 3690SOL    HW211641   0.064   5.767   5.114 -0.2786 -0.1261 -1.0876
 3691SOL     OW11642   6.902   2.769   7.115 -0.2224 -0.5373  0.4575
 3691SOL    HW111643   6.872   2.796   7.201 -0.3003  0.3828  0.1571
 3691SOL    HW211644   6.837   2.804   7.054 -0.4898 -1.6875  0.0539
 3692SOL     OW11645   5.519   2.396   7.150  0.2249 -0.2925 -0.0231
 3692SOL    HW111646   5.453   2.396   7.080  0.3048  1.3490 -0.1431
 3692SOL    HW211647   5.484   2.457   7.215  0.6983 -0.9369  0.8366
 3693SOL     OW11648   0.842   0.469   2.024  0.8728 -0.0175  0.0906
 3693SOL    HW111649   0.858   0.394   1.968  0.0034  0.5630 -0.9743
 3693SOL    HW211650   0.792   0.433   2.098 -2.0267 -0.1062 -1.7699
 3694SOL     OW11651   2.240   4.287   3.897 -0.1098 -0.0381 -0.4262
 3694SOL    HW111652   2.196   4.310   3.815 -1.1687  0.1399  0.1719
 3694SOL    HW211653   2.211   4.197   3.916 -0.0908  0.0225 -0.1026
 3695SOL     OW11654   2.711   6.020   1.780 -0.3294  0.2722  0.4696
 3695SOL    HW111655   2.648   5.956   1.748 -0.1996 -0.1840  1.1164
 3695SOL    HW211656   2.688   6.033   1.872 -0.1585  0.9192  0.4264
 3696SOL     OW11657   3.976   4.384   6.133 -0.0523  0.1374 -0.1294
 3696SOL    HW111658   3.987   4.334   6.214 -1.0639  0.6243  0.3300
 3696SOL    HW211659   3.988   4.476   6.159  0.7093  0.2327 -0.7565
 3697SOL     OW11660   0.494   2.730   5.839  0.0414  0.0286  0.3437
 3697SOL    HW111661   0.499   2.671   5.764  1.5415 -1.8144  1.7961
 3697SOL    HW211662   0.400   2.749   5.848 -0.2493 -0.4351 -1.4175
 3698SOL     OW11663   6.907   2.259   4.795  0.1221 -0.1299  0.4521
 3698SOL    HW111664   6.938   2.175   4.830  0.1355 -0.3928 -0.1817
 3698SOL    HW211665   6.820   2.239   4.760 -0.3713  0.3868  1.3372
 3699SOL     OW11666   5.050   6.637   5.283  0.5763  0.2608  0.3686
 3699SOL    HW111667   5.116   6.687   5.234 -0.1160  0.2785 -0.5443
 3699SOL    HW211668   5.026   6.696   5.355  0.5904  0.7991 -0.0570
 3700SOL     OW11669   6.218   0.197   2.450 -0.0653  0.3418  0.5239
 3700SOL    HW111670   6.191   0.131   2.387 -0.2008 -0.2236  1.1595
 3700SOL    HW211671   6.181   0.168   2.533  2.0278 -0.2123  1.3411
 3701SOL     OW11672   2.157   6.589   1.459 -0.6290  0.2435 -0.4785
 3701SOL    HW111673   2.134   6.681   1.471 -0.5741  0.4871 -1.9843
 3701SOL    HW211674   2.237   6.592   1.407  1.6228 -0.6180  2.6528
 3702SOL     OW11675   1.889   3.464   1.300 -0.0665 -0.1002  0.4108
 3702SOL    HW111676   1.889   3.523   1.225 -0.9397  0.9032  1.1677
 3702SOL    HW211677   1.797   3.440   1.312  0.1046 -0.4896  0.9768
 3703SOL     OW11678   0.343   4.678   5.880 -0.7691  0.2920 -0.0534
 3703SOL    HW111679   0.420   4.722   5.915 -0.8457 -0.6831  1.3985
 3703SOL    HW211680   0.271   4.739   5.895 -0.7505  0.0090  1.2510
 3704SOL     OW11681   5.424   4.507   3.351  0.0848  0.3313 -0.4214
 3704SOL    HW111682   5.450   4.525   3.441 -0.1869  0.3713 -0.3491
 3704SOL    HW211683   5.405   4.593   3.313  1.1215  0.4030 -0.8102
 3705SOL     OW11684   5.228   2.407   0.941 -0.1058  0.0993 -0.2044
 3705SOL    HW111685   5.206   2.365   1.024  1.4491 -0.8383 -0.2164
 3705SOL    HW211686   5.173   2.485   0.938  1.3932  1.4746  2.8699
 3706SOL     OW11687   7.125   0.677   5.519  0.5406 -0.1000  0.4432
 3706SOL    HW111688   7.131   0.604   5.580 -0.3149 -0.6456 -0.0957
 3706SOL    HW211689   7.071   0.644   5.448 -0.2987  1.2134  0.4263
 3707SOL     OW11690   0.928   0.148   2.154 -0.0915 -0.4748 -0.4040
 3707SOL    HW111691   0.863   0.215   2.175  0.2399  0.1517 -1.3272
 3707SOL    HW211692   0.893   0.103   2.077 -0.0862 -1.0528 -0.0710
 3708SOL     OW11693   1.024   1.796   4.645  0.1232 -0.0717 -0.7487
 3708SOL    HW111694   0.938   1.753   4.643 -0.2129  0.5339  0.0599
 3708SOL    HW211695   1.083   1.734   4.601 -0.9280  0.0187 -2.3541
 3709SOL     OW11696   6.340   3.596   2.203  0.5093  0.4404  0.2204
 3709SOL    HW111697   6.369   3.682   2.171 -0.6589  0.4212 -0.9527
 3709SOL    HW211698   6.249   3.609   2.227 -0.0182 -0.7108 -1.0272
 3710SOL     OW11699   3.252   4.346   0.574 -0.4211 -0.2620  0.1272
 3710SOL    HW111700   3.200   4.399   0.634 -2.1356 -1.0582 -0.6094
 3710SOL    HW211701   3.313   4.299   0.632 -0.3310  0.8462  0.9754
 3711SOL     OW11702   0.558   7.188   5.916  0.2533  0.0942 -0.2353
 3711SOL    HW111703   0.583   7.097   5.933 -0.6470 -0.2446 -0.6524
 3711SOL    HW211704   0.475   7.182   5.870  0.9404  1.0721 -1.7013
 3712SOL     OW11705   4.248   5.387   7.375 -0.0623  0.3945 -0.4173
 3712SOL    HW111706   4.275   5.367   7.465  1.1740  0.0802 -0.8338
 3712SOL    HW211707   4.153   5.399   7.381  0.0783  1.0621  1.0445
 3713SOL     OW11708   3.994   1.020   5.410 -0.0706  0.2769  0.1063
 3713SOL    HW111709   4.081   1.059   5.401 -0.1625  0.5523  0.4092
 3713SOL    HW211710   3.977   0.980   5.325  0.1641  0.6123 -0.1008
 3714SOL     OW11711   6.648   4.466   0.964 -0.3423  0.2927 -0.3367
 3714SOL    HW111712   6.696   4.547   0.980  0.9516 -0.5713  0.3073
 3714SOL    HW211713   6.579   4.491   0.903  0.2668  1.7916 -0.4565
 3715SOL     OW11714   6.569   6.594   3.543 -0.3275  0.0429  0.9531
 3715SOL    HW111715   6.561   6.682   3.578  2.9608  0.6505  0.4946
 3715SOL    HW211716   6.596   6.607   3.452 -0.6428 -1.4610  0.6131
 3716SOL     OW11717   6.924   1.642   7.319  0.1300  0.2876 -0.1416
 3716SOL    HW111718   6.950   1.734   7.328 -2.5026  1.1456 -0.4902
 3716SOL    HW211719   6.911   1.612   7.409 -2.2240  1.3586 -0.0315
 3717SOL     OW11720   0.807   2.835   4.547  0.3426  0.4410  0.4317
 3717SOL    HW111721   0.816   2.741   4.562  0.3757  0.1102 -1.3941
 3717SOL    HW211722   0.897   2.867   4.537  0.3909  0.8879  2.1221
 3718SOL     OW11723   0.570   2.801   1.110  0.5322  0.4050 -0.0889
 3718SOL    HW111724   0.581   2.718   1.065 -0.0391  1.0760 -1.4935
 3718SOL    HW211725   0.660   2.830   1.128  0.7293 -0.6532  0.7182
 3719SOL     OW11726   3.879   4.838   1.137  0.6677  0.3656 -0.3769
 3719SOL    HW111727   3.969   4.804   1.140  1.0669  1.2448 -1.7304
 3719SOL    HW211728   3.844   4.805   1.054  0.6580  2.1935 -1.1510
 3720SOL     OW11729   1.473   6.275   2.440  0.5268  1.0903  0.2997
 3720SOL    HW111730   1.479   6.181   2.451  0.2400  1.2505  2.0360
 3720SOL    HW211731   1.379   6.292   2.433  0.6155  1.1799 -0.8805
 3721SOL     OW11732   1.329   3.371   6.595 -0.0258  0.6905 -0.2124
 3721SOL    HW111733   1.234   3.372   6.582 -0.4065 -0.5941  1.9688
 3721SOL    HW211734   1.341   3.332   6.682  2.5406  0.1332 -0.7338
 3722SOL     OW11735   3.694   0.147   6.536  0.0793  0.3167 -0.1194
 3722SOL    HW111736   3.684   0.234   6.499 -1.1118  0.1531 -0.2244
 3722SOL    HW211737   3.632   0.144   6.609 -0.2055 -0.5772 -0.3821
 3723SOL     OW11738   3.771   4.296   7.041  0.1852  0.2981 -0.1889
 3723SOL    HW111739   3.859   4.273   7.073  0.1377 -1.2878 -1.1011
 3723SOL    HW211740   3.744   4.368   7.097  0.4818 -1.7092  2.7905
 3724SOL     OW11741   1.256   5.184   2.515  0.1626 -0.3550  0.4475
 3724SOL    HW111742   1.209   5.127   2.576  0.4496 -2.1058 -0.8740
 3724SOL    HW211743   1.232   5.150   2.428 -0.9856  2.6389 -0.5169
 3725SOL     OW11744   7.145   6.975   0.790 -0.0110  0.6584 -0.5388
 3725SOL    HW111745   7.114   6.912   0.725 -0.9860  1.1177 -0.5381
 3725SOL    HW211746   7.080   6.971   0.860  1.2791 -0.1839  0.6505
 3726SOL     OW11747   3.387   5.805   0.185 -0.1370  0.1565 -0.4559
 3726SOL    HW111748   3.331   5.771   0.116 -2.9184  2.2130  0.5732
 3726SOL    HW211749   3.364   5.898   0.190  0.4143  0.2342  2.7087
 3727SOL     OW11750   6.580   4.285   6.633  0.4095 -0.7007  0.0713
 3727SOL    HW111751   6.622   4.199   6.638  0.1650 -0.8602 -0.6098
 3727SOL    HW211752   6.500   4.270   6.582 -0.1137 -0.2545  0.7482
 3728SOL     OW11753   4.543   7.006   2.826  0.0949 -0.6413  0.0143
 3728SOL    HW111754   4.597   7.082   2.803 -1.0722 -0.1425 -1.1679
 3728SOL    HW211755   4.497   6.983   2.745  0.4718 -2.6717  0.3226
 3729SOL     OW11756   4.844   3.293   4.021 -0.0141  0.1326  0.1708
 3729SOL    HW111757   4.918   3.294   4.082  0.3554  1.4524 -0.2708
 3729SOL    HW211758   4.788   3.222   4.053  0.6322  0.1773  1.4872
 3730SOL     OW11759   2.032   3.549   3.827  0.3979 -0.6278  0.2683
 3730SOL    HW111760   2.026   3.453   3.831 -0.7326 -0.5469  1.0187
 3730SOL    HW211761   2.075   3.574   3.909  1.5269 -0.5267 -0.3322
 3731SOL     OW11762   4.012   4.832   6.381  0.3732  0.1953 -0.2777
 3731SOL    HW111763   3.916   4.832   6.380  0.3286 -1.0983  1.0122
 3731SOL    HW211764   4.036   4.910   6.330 -1.3349  0.0135 -1.4726
 3732SOL     OW11765   6.217   5.270   6.545 -0.0675  0.0885 -0.2639
 3732SOL    HW111766   6.224   5.363   6.525  0.0528  0.0055 -0.6084
 3732SOL    HW211767   6.164   5.233   6.475 -2.0561  0.2787  1.0587
 3733SOL     OW11768   5.736   5.608   5.768  0.1327 -0.3852 -0.4153
 3733SOL    HW111769   5.723   5.533   5.710 -0.1420 -1.0404  0.4731
 3733SOL    HW211770   5.659   5.607   5.825  0.6438 -0.0436  0.2837
 3734SOL     OW11771   5.498   1.229   5.249 -0.0555 -0.2583 -0.2527
 3734SOL    HW111772   5.408   1.195   5.243  0.2406 -1.5082  1.7461
 3734SOL    HW211773   5.486   1.323   5.267 -0.8953  0.0168 -1.9463
 3735SOL     OW11774   5.882   1.735   1.010 -0.1397  0.5278  0.0178
 3735SOL    HW111775   5.837   1.653   1.032 -2.3037  1.6064 -0.1387
 3735SOL    HW211776   5.952   1.707   0.951  1.3399 -1.5553  2.5269
 3736SOL     OW11777   3.351   2.161   4.721 -0.1706 -0.5245  0.2565
 3736SOL    HW111778   3.415   2.192   4.785  0.3605 -0.0342 -0.5097
 3736SOL    HW211779   3.394   2.086   4.679  0.5219  0.7039 -1.2901
 3737SOL     OW11780   1.550   0.730   1.290 -0.1457 -0.0125 -0.5191
 3737SOL    HW111781   1.627   0.763   1.336 -1.6364  0.9409  1.4354
 3737SOL    HW211782   1.569   0.638   1.274  1.2453  0.1113  0.2419
 3738SOL     OW11783   2.872   1.922   2.922  0.0588  0.2425 -0.6084
 3738SOL    HW111784   2.852   1.940   2.830 -1.1945 -0.7077 -0.5472
 3738SOL    HW211785   2.926   1.844   2.919  1.0165  0.8847 -0.5801
 3739SOL     OW11786   1.489   3.978   5.243 -0.4730 -0.0193 -0.0014
 3739SOL    HW111787   1.447   4.040   5.303  0.2608  0.8364 -0.3578
 3739SOL    HW211788   1.583   3.993   5.255 -0.2553 -1.5315  0.3811
 3740SOL     OW11789   5.980   5.649   2.210  0.3923  0.2714 -0.4778
 3740SOL    HW111790   5.969   5.620   2.300 -0.0189  1.6761 -0.0482
 3740SOL    HW211791   5.930   5.731   2.205  0.0134 -0.0184 -2.1071
 3741SOL     OW11792   3.142   2.259   5.481  0.1285  0.1861 -0.2406
 3741SOL    HW111793   3.183   2.249   5.395  0.3844  1.8085 -0.3310
 3741SOL    HW211794   3.216   2.272   5.541  0.0926 -2.5365  0.5607
 3742SOL     OW11795   1.748   5.441   6.969 -0.3514 -0.3828  0.3646
 3742SOL    HW111796   1.664   5.404   6.939 -0.2620  1.3278 -2.2939
 3742SOL    HW211797   1.729   5.474   7.057 -3.2839  2.1243 -1.0058
 3743SOL     OW11798   1.298   2.218   1.804  0.2862  0.0487  0.4200
 3743SOL    HW111799   1.314   2.235   1.897  1.1045 -1.3193  0.5540
 3743SOL    HW211800   1.384   2.226   1.763 -0.0252  0.3776 -0.1935
 3744SOL     OW11801   0.254   3.273   1.094 -0.0568 -0.0633 -0.0574
 3744SOL    HW111802   0.165   3.303   1.079 -0.4516 -1.5890 -0.8635
 3744SOL    HW211803   0.250   3.178   1.085  0.9777 -0.5558  3.2261
 3745SOL     OW11804   3.501   3.593   1.235  0.6866 -0.2017 -0.8345
 3745SOL    HW111805   3.471   3.503   1.243  0.7814 -0.0737  2.1429
 3745SOL    HW211806   3.433   3.637   1.184 -1.5473 -1.1083  1.1855
 3746SOL     OW11807   5.696   3.189   1.194 -0.3792  0.2569 -0.4876
 3746SOL    HW111808   5.738   3.217   1.112 -0.8608  1.8629 -0.2302
 3746SOL    HW211809   5.621   3.137   1.166 -0.2728  0.3982 -1.0504
 3747SOL     OW11810   1.905   7.162   2.305 -0.6195  0.0196 -0.3235
 3747SOL    HW111811   1.892   7.133   2.215 -1.4700  2.1902 -0.9874
 3747SOL    HW211812   1.997   7.186   2.310 -0.1687 -1.6801 -0.0779
 3748SOL     OW11813   4.952   1.716   6.179 -0.3872 -0.1341  0.4278
 3748SOL    HW111814   4.901   1.638   6.200 -1.1952  0.3013  0.1703
 3748SOL    HW211815   4.910   1.751   6.100  2.2997 -1.5083 -1.7832
 3749SOL     OW11816   4.837   0.518   1.409  0.2083  0.0249 -0.2288
 3749SOL    HW111817   4.852   0.588   1.472  0.5753 -0.1011 -0.1709
 3749SOL    HW211818   4.800   0.562   1.333 -1.5781 -0.0116  0.5755
 3750SOL     OW11819   3.353   2.363   2.609  0.0832 -0.4312  0.4235
 3750SOL    HW111820   3.317   2.356   2.520 -1.6457 -0.5802  1.1040
 3750SOL    HW211821   3.291   2.418   2.656  0.9808 -0.3411  1.5521
 3751SOL     OW11822   1.012   7.110   6.278  0.0508  0.3483  0.2804
 3751SOL    HW111823   1.074   7.176   6.310 -0.4804  0.1161  1.8900
 3751SOL    HW211824   1.022   7.036   6.338  1.6523 -1.6983 -2.2893
 3752SOL     OW11825   4.000   0.423   4.551 -0.1082  0.1167 -0.6271
 3752SOL    HW111826   3.915   0.415   4.594  0.2049 -0.6785 -0.1526
 3752SOL    HW211827   4.033   0.334   4.544  0.3549  0.3390 -1.5072
 3753SOL     OW11828   3.815   7.060   6.393  0.3028  0.1259 -0.0042
 3753SOL    HW111829   3.781   7.113   6.464 -1.8065 -1.6012  0.3754
 3753SOL    HW211830   3.887   7.010   6.432  0.3367  0.5181  0.4373
 3754SOL     OW11831   7.351   3.942   4.594  0.5728 -0.3178 -0.0604
 3754SOL    HW111832   7.421   3.974   4.650 -1.4947  2.0308  1.3887
 3754SOL    HW211833   7.314   4.020   4.553 -1.7091 -1.3396 -0.1225
 3755SOL     OW11834   7.282   0.771   4.044  0.3094  0.0274  0.0960
 3755SOL    HW111835   7.358   0.718   4.067  0.8787  0.3712 -0.9218
 3755SOL    HW211836   7.275   0.762   3.949 -2.2394 -1.7274  0.3684
 3756SOL     OW11837   6.320   5.095   0.345 -0.7702  0.1006 -0.1371
 3756SOL    HW111838   6.366   5.137   0.273  1.3736  0.1753  1.1895
 3756SOL    HW211839   6.244   5.152   0.362  0.2235  1.6018 -0.5585
 3757SOL     OW11840   4.705   0.113   4.665  0.5164 -0.3066 -0.1926
 3757SOL    HW111841   4.628   0.130   4.718 -0.3316  0.8221 -1.7026
 3757SOL    HW211842   4.671   0.101   4.576  2.0545  0.1607 -0.8896
 3758SOL     OW11843   1.353   2.931   7.435  0.2942  0.1776 -0.5452
 3758SOL    HW111844   1.403   3.008   7.407  1.7989 -0.5371  0.0815
 3758SOL    HW211845   1.401   2.898   7.511  0.2964 -2.0067 -1.4367
 3759SOL     OW11846   7.348   1.490   7.397 -0.0567  0.1300 -0.7288
 3759SOL    HW111847   7.315   1.554   7.335 -1.1613 -0.0141 -0.3108
 3759SOL    HW211848   7.354   1.409   7.347 -0.1683  0.1964 -0.8490
 3760SOL     OW11849   6.247   3.927   1.907  0.0918 -0.2646  0.1209
 3760SOL    HW111850   6.245   3.925   1.812 -2.6231 -2.5795  0.0900
 3760SOL    HW211851   6.218   3.840   1.933  0.5845  0.3514  3.0808
 3761SOL     OW11852   2.205   5.110   5.836  0.5456  0.2802 -0.2833
 3761SOL    HW111853   2.148   5.073   5.904 -0.5726  1.5352 -0.5076
 3761SOL    HW211854   2.252   5.034   5.801  1.6596 -0.3373  2.3252
 3762SOL     OW11855   6.745   0.099   6.547  0.1643  0.1364 -0.6453
 3762SOL    HW111856   6.837   0.080   6.562 -0.3165 -1.0696  1.1686
 3762SOL    HW211857   6.741   0.194   6.539  1.2037  0.6499  2.9624
 3763SOL     OW11858   3.493   0.265   0.747 -0.0699 -0.6503  0.0632
 3763SOL    HW111859   3.478   0.278   0.841 -1.0943 -1.2194 -0.0112
 3763SOL    HW211860   3.438   0.190   0.724  0.9026 -1.1284 -0.7966
 3764SOL     OW11861   6.350   2.790   7.379 -0.1123  0.6949 -0.4758
 3764SOL    HW111862   6.258   2.813   7.393 -0.0987  0.6752 -0.3462
 3764SOL    HW211863   6.392   2.872   7.356 -0.0592  0.8094  0.0095
 3765SOL     OW11864   6.562   7.282   2.451  0.0956 -0.1130 -0.1432
 3765SOL    HW111865   6.511   7.361   2.468  0.6907  0.1456  0.4868
 3765SOL    HW211866   6.651   7.314   2.433 -0.0139 -0.5362 -1.5331
 3766SOL     OW11867   1.906   5.776   5.149  0.2608 -0.4008  0.1838
 3766SOL    HW111868   1.928   5.762   5.056 -0.3558  1.0659 -0.2210
 3766SOL    HW211869   1.987   5.756   5.196  1.7595  2.2509 -1.0151
 3767SOL     OW11870   7.241   3.456   2.295  0.7254  0.4175 -0.1920
 3767SOL    HW111871   7.187   3.487   2.367 -0.0347 -1.9600  0.3550
 3767SOL    HW211872   7.278   3.535   2.257 -1.6980  2.0285  0.5499
 3768SOL     OW11873   1.828   6.122   2.777 -0.1807  0.1797 -0.4211
 3768SOL    HW111874   1.740   6.160   2.777  0.6563  2.3756  0.8850
 3768SOL    HW211875   1.869   6.160   2.855  1.2538 -2.5045  0.2309
 3769SOL     OW11876   4.763   4.209   0.019  0.1901  0.6794 -0.1280
 3769SOL    HW111877   4.680   4.255   0.006  0.0576  0.6854  0.6488
 3769SOL    HW211878   4.746   4.119  -0.009  0.1092  0.8272 -0.5614
 3770SOL     OW11879   3.075   6.826   5.282 -0.1017  0.4111 -0.0435
 3770SOL    HW111880   3.076   6.825   5.186 -0.4900 -0.0159 -0.0466
 3770SOL    HW211881   3.003   6.768   5.306 -1.6206  2.4325  0.4888
 3771SOL     OW11882   6.732   2.990   5.943  0.1362 -0.8523 -0.0738
 3771SOL    HW111883   6.711   3.044   5.867 -0.6869 -2.0303 -0.7188
 3771SOL    HW211884   6.669   3.016   6.010 -0.5058 -1.2820 -0.5109
 3772SOL     OW11885   6.442   5.276   6.217  0.4626  0.2307  0.5249
 3772SOL    HW111886   6.432   5.370   6.230  0.1639  0.1535  0.8559
 3772SOL    HW211887   6.366   5.237   6.259  0.5251 -0.1535  0.2900
 3773SOL     OW11888   3.832   6.481   6.484  0.3531  0.3658 -0.5471
 3773SOL    HW111889   3.832   6.389   6.508  1.1297  0.2860 -0.8222
 3773SOL    HW211890   3.916   6.515   6.514  0.3929  0.8002 -1.1072
 3774SOL     OW11891   5.565   0.457   1.313  0.1138  0.4814 -0.3313
 3774SOL    HW111892   5.640   0.516   1.312  0.0149  0.6132  0.1072
 3774SOL    HW211893   5.593   0.381   1.261 -0.4057  1.7220 -2.5477
 3775SOL     OW11894   7.263   3.800   0.458  0.5033 -0.0060 -0.1224
 3775SOL    HW111895   7.226   3.800   0.370  3.4672  0.9942 -1.4958
 3775SOL    HW211896   7.227   3.879   0.499  1.7711  1.4731 -1.7456
 3776SOL     OW11897   6.486   4.825   1.574  0.3590  0.2429  0.6024
 3776SOL    HW111898   6.403   4.809   1.618  0.6209 -2.6093  0.2473
 3776SOL    HW211899   6.463   4.833   1.481  0.3362  1.1114  0.6749
 3777SOL     OW11900   4.394   3.634   2.972  0.5366  0.2032  0.2389
 3777SOL    HW111901   4.328   3.565   2.965  1.2586 -0.3561 -2.0300
 3777SOL    HW211902   4.471   3.591   3.010  1.0975 -0.4323 -1.4732
 3778SOL     OW11903   4.663   4.647   2.787  0.1745 -0.7677 -0.6338
 3778SOL    HW111904   4.689   4.693   2.708 -1.3140  2.1994  0.4238
 3778SOL    HW211905   4.597   4.704   2.827 -2.2863 -4.1569  0.5969
 3779SOL     OW11906   3.402   0.754   0.962 -0.6308 -0.0704 -0.0013
 3779SOL    HW111907   3.345   0.810   0.911  1.1343  2.7526  0.9054
 3779SOL    HW211908   3.490   0.770   0.927  0.1115 -1.2915  1.1610
 3780SOL     OW11909   5.856   1.417   2.842 -0.0518 -0.0633 -0.0897
 3780SOL    HW111910   5.874   1.350   2.776 -0.4774 -0.6998  0.4200
 3780SOL    HW211911   5.770   1.452   2.818 -1.4964 -2.1978  1.6069
 3781SOL     OW11912   5.494   3.187   5.172  0.3168 -0.2681 -0.0185
 3781SOL    HW111913   5.541   3.109   5.202 -0.2622 -0.8310 -0.5462
 3781SOL    HW211914   5.535   3.259   5.220  0.0753 -1.0191  1.3877
 3782SOL     OW11915   6.344   3.425   0.619 -0.4070  0.6553  0.2925
 3782SOL    HW111916   6.369   3.334   0.601  1.3409  0.6189  2.4743
 3782SOL    HW211917   6.426   3.468   0.643 -1.6574  1.9077  2.6525
 3783SOL     OW11918   6.417   3.518   5.213 -0.0148  0.3118  0.0972
 3783SOL    HW111919   6.416   3.523   5.309 -0.1058 -0.2188  0.1252
 3783SOL    HW211920   6.450   3.430   5.194 -0.5510  0.2062 -0.3536
 3784SOL     OW11921   5.584   3.370   5.361 -0.1041  0.0975  0.0974
 3784SOL    HW111922   5.602   3.464   5.353  0.5757  0.0945  1.2886
 3784SOL    HW211923   5.629   3.344   5.442 -2.9388 -0.6046  1.5939
 3785SOL     OW11924   5.748   0.478   0.938  0.5065  0.1884 -0.2279
 3785SOL    HW111925   5.777   0.390   0.961 -2.1190 -0.2268  2.0334
 3785SOL    HW211926   5.816   0.536   0.972  1.1025 -0.8793  0.4298
 3786SOL     OW11927   4.960   7.125   5.002  0.2642 -0.1917  0.0912
 3786SOL    HW111928   4.987   7.216   5.015  4.0181 -0.7902 -2.0913
 3786SOL    HW211929   4.928   7.121   4.912 -2.5172 -0.6480  0.9859
 3787SOL     OW11930   0.640   6.139   1.277 -0.4482 -0.3484  0.5047
 3787SOL    HW111931   0.695   6.111   1.203 -0.3540 -3.4118  1.5798
 3787SOL    HW211932   0.557   6.166   1.236  0.4172  0.3937 -0.8418
 3788SOL     OW11933   6.038   1.974   6.982 -0.6566 -0.0643 -0.1721
 3788SOL    HW111934   6.060   2.039   6.916  0.0156  0.8928  0.9698
 3788SOL    HW211935   6.013   2.024   7.059  0.2934 -1.1451  0.8782
 3789SOL     OW11936   6.871   1.507   6.354 -0.0026  0.5446  0.5911
 3789SOL    HW111937   6.813   1.436   6.325  3.0277 -3.4470  3.2101
 3789SOL    HW211938   6.942   1.508   6.291  0.8208 -0.0666  1.4738
 3790SOL     OW11939   1.780   7.006   0.863 -0.3790  0.2561  0.5931
 3790SOL    HW111940   1.714   6.940   0.885 -0.1712  0.7705  3.0387
 3790SOL    HW211941   1.733   7.071   0.811 -1.4993 -0.0611  1.1725
 3791SOL     OW11942   5.268   6.134   3.075  0.1789 -0.4036  0.2536
 3791SOL    HW111943   5.330   6.201   3.044 -0.2446 -0.2756 -0.3296
 3791SOL    HW211944   5.318   6.084   3.139  0.2600  0.9962  1.3381
 3792SOL     OW11945   1.302   5.406   6.895 -0.0947  0.4001 -0.2940
 3792SOL    HW111946   1.355   5.327   6.889  0.5331  0.6191  1.7060
 3792SOL    HW211947   1.252   5.408   6.813  0.6166 -1.5143 -0.8154
 3793SOL     OW11948   4.057   1.701   5.250  0.0368 -0.5172  0.0821
 3793SOL    HW111949   4.151   1.714   5.262  0.1114  0.5422 -1.3199
 3793SOL    HW211950   4.044   1.714   5.156 -1.8194  1.5114  0.5519
 3794SOL     OW11951   6.952   5.008   5.340  0.1958 -0.2001  0.5001
 3794SOL    HW111952   6.871   5.020   5.389 -0.7781 -0.1449 -1.0370
 3794SOL    HW211953   6.992   5.095   5.338 -0.8176  0.2695 -0.5282
 3795SOL     OW11954   2.412   7.168   7.043  0.1252  0.6061  0.1322
 3795SOL    HW111955   2.464   7.107   7.095 -0.0152  0.4963  0.1446
 3795SOL    HW211956   2.457   7.252   7.051  0.2358  0.5356  0.2362
 3796SOL     OW11957   6.586   2.189   3.902 -0.1290 -0.3638  0.7822
 3796SOL    HW111958   6.607   2.097   3.882  0.5844 -0.3539  1.4409
 3796SOL    HW211959   6.664   2.222   3.945 -0.7135  0.3068  1.3469
 3797SOL     OW11960   3.865   0.655   2.391 -0.0632 -0.6228  0.0001
 3797SOL    HW111961   3.959   0.646   2.405 -0.0466 -0.1406  0.1936
 3797SOL    HW211962   3.830   0.569   2.414  0.2247 -0.5202  0.8462
 3798SOL     OW11963   0.179   5.191   2.199 -0.0721 -0.2786 -0.4321
 3798SOL    HW111964   0.180   5.202   2.104  0.7126  0.9357 -0.3092
 3798SOL    HW211965   0.199   5.279   2.233 -1.5069 -0.4228  0.8766
 3799SOL     OW11966   1.850   4.568   0.200 -0.3149 -0.0350  0.0258
 3799SOL    HW111967   1.820   4.655   0.228 -4.2817 -0.7367 -1.4015
 3799SOL    HW211968   1.890   4.583   0.115 -1.8416  0.3800 -0.6596
 3800SOL     OW11969   0.483   4.561   2.135 -0.5602  0.2530  0.1072
 3800SOL    HW111970   0.460   4.649   2.164 -0.0755  0.1055  0.9721
 3800SOL    HW211971   0.424   4.503   2.184 -0.1055  0.0333  0.4022
 3801SOL     OW11972   6.679   5.948   5.654  0.1891 -0.1699 -0.3933
 3801SOL    HW111973   6.603   5.912   5.700  0.1339 -0.3308 -0.6069
 3801SOL    HW211974   6.643   5.978   5.571  0.1554  0.7769 -0.0448
 3802SOL     OW11975   4.729   6.788   6.948 -0.0166  0.7979  0.4844
 3802SOL    HW111976   4.656   6.840   6.982  0.0575  1.4190 -0.2789
 3802SOL    HW211977   4.719   6.703   6.990 -1.3860  0.7535  0.1231
 3803SOL     OW11978   1.301   0.146   6.587 -0.1164  0.2025  0.0836
 3803SOL    HW111979   1.225   0.134   6.530  0.2049  0.4273 -0.4027
 3803SOL    HW211980   1.370   0.096   6.545 -0.3808 -1.2763  1.3371
 3804SOL     OW11981   3.027   3.006   0.433  0.3899  0.4980 -0.0497
 3804SOL    HW111982   3.004   3.078   0.492  0.6186  0.7689 -0.2851
 3804SOL    HW211983   2.986   3.029   0.350 -1.7578 -0.9405  0.5377
 3805SOL     OW11984   1.974   6.492   2.215  0.8472  0.5688  0.3104
 3805SOL    HW111985   2.045   6.540   2.257  0.8445  0.1917  0.7548
 3805SOL    HW211986   2.004   6.479   2.125 -0.2267  3.6132 -0.6266
 3806SOL     OW11987   0.428   0.964   1.851  0.3683 -0.2174 -0.6443
 3806SOL    HW111988   0.509   1.004   1.822  0.7068  0.4469  1.1054
 3806SOL    HW211989   0.452   0.875   1.876  0.9887  0.5084  1.5565
 3807SOL     OW11990   5.997   0.980   6.391  0.1561  0.3951 -0.3623
 3807SOL    HW111991   6.093   0.981   6.400  0.0164 -0.0746  1.4028
 3807SOL    HW211992   5.967   1.052   6.445 -0.5469 -0.1684  0.0126
 3808SOL     OW11993   1.478   3.811   2.241 -0.1978  0.3363 -0.1348
 3808SOL    HW111994   1.413   3.819   2.172 -1.0723  1.4656  0.7817
 3808SOL    HW211995   1.460   3.727   2.282 -0.0392 -0.0810 -0.9033
 3809SOL     OW11996   4.568   7.019   5.046  0.1024  0.0999 -0.3526
 3809SOL    HW111997   4.595   6.976   5.127  0.8618  0.5512 -0.3570
 3809SOL    HW211998   4.497   6.964   5.012 -1.2280  0.6936  1.3436
 3810SOL     OW11999   2.012   3.652   6.920 -0.6917 -0.3377  0.4237
 3810SOL    HW112000   2.078   3.586   6.943 -0.6819 -0.3192  0.4480
 3810SOL    HW212001   2.052   3.703   6.849  0.0737  0.8817  1.6938
 3811SOL     OW12002   4.185   2.668   0.788 -0.0952 -0.3383 -0.6137
 3811SOL    HW112003   4.279   2.673   0.771  0.0358  0.4182  0.2425
 3811SOL    HW212004   4.159   2.759   0.805 -0.4235 -0.8435  1.9663
 3812SOL     OW12005   6.803   6.294   3.096  0.4996 -0.2989  0.6084
 3812SOL    HW112006   6.803   6.212   3.047  1.7999  0.2732 -0.4035
 3812SOL    HW212007   6.711   6.309   3.118 -0.4984  0.3620 -3.2813
 3813SOL     OW12008   3.719   7.385   2.502 -0.3185 -0.0673 -0.7451
 3813SOL    HW112009   3.675   7.372   2.417  0.3280 -0.4495 -1.0253
 3813SOL    HW212010   3.807   7.352   2.489  0.0123  0.5400 -0.1313
 3814SOL     OW12011   1.499   2.137   6.908  0.3707 -0.0997 -0.0766
 3814SOL    HW112012   1.522   2.062   6.962  2.7011 -0.3951 -1.3283
 3814SOL    HW212013   1.486   2.101   6.820  1.5951  0.9274 -0.7132
 3815SOL     OW12014   6.244   2.754   6.486  0.2175 -0.4393  0.4289
 3815SOL    HW112015   6.177   2.810   6.446  0.7740  0.7999  1.1768
 3815SOL    HW212016   6.306   2.815   6.526 -0.1782 -1.5727  2.9825
 3816SOL     OW12017   0.272   4.579   6.676 -0.2937  0.0929  0.3701
 3816SOL    HW112018   0.205   4.560   6.742 -1.6140  0.3874 -0.8234
 3816SOL    HW212019   0.231   4.645   6.620  0.7053 -0.3185 -0.8688
 3817SOL     OW12020   6.862   1.388   5.775  0.2696 -0.5575  0.8828
 3817SOL    HW112021   6.832   1.298   5.786 -0.4735 -0.6441 -1.3244
 3817SOL    HW212022   6.782   1.441   5.779  0.3247 -0.3251 -0.6589
 3818SOL     OW12023   3.672   1.871   4.211 -0.2521 -0.9629  0.4067
 3818SOL    HW112024   3.669   1.910   4.124  0.2738 -1.2949  0.2326
 3818SOL    HW212025   3.746   1.913   4.254 -0.6390 -0.6487  0.7693
 3819SOL     OW12026   6.793   0.339   0.078 -0.3505  0.1794  0.2103
 3819SOL    HW112027   6.858   0.270   0.065 -0.1694  0.0629  1.5844
 3819SOL    HW212028   6.723   0.297   0.128  0.1857  1.1708  1.8857
 3820SOL     OW12029   4.733   4.471   5.472  0.3773  0.6261 -0.3961
 3820SOL    HW112030   4.675   4.541   5.502  1.0876  1.2332 -0.4009
 3820SOL    HW212031   4.820   4.510   5.473  0.7192 -0.0936 -0.9317
 3821SOL     OW12032   6.648   1.750   2.448  0.2275  0.2816 -0.7828
 3821SOL    HW112033   6.666   1.752   2.354  0.3776  0.7955 -0.7441
 3821SOL    HW212034   6.568   1.801   2.458 -0.2906 -0.5109 -0.7319
 3822SOL     OW12035   5.700   4.727   2.752  0.3248 -0.3911  0.1986
 3822SOL    HW112036   5.612   4.752   2.780  0.6562 -0.5523  1.4655
 3822SOL    HW212037   5.712   4.638   2.786  0.9985 -0.3393  0.1242
 3823SOL     OW12038   5.544   4.668   2.198  0.2446 -0.1314  0.0321
 3823SOL    HW112039   5.530   4.666   2.293 -1.4039  0.4240 -0.1714
 3823SOL    HW212040   5.594   4.748   2.182  1.2885 -0.6596  0.4830
 3824SOL     OW12041   0.932   1.371   4.354 -0.3376 -0.2584 -0.4682
 3824SOL    HW112042   0.896   1.442   4.406  0.4176  0.4654 -0.9044
 3824SOL    HW212043   1.021   1.358   4.390 -0.7610 -1.5854  0.1882
 3825SOL     OW12044   4.689   3.181   3.203  0.2555 -0.3122 -0.0562
 3825SOL    HW112045   4.699   3.276   3.208 -0.0935 -0.2953  0.4677
 3825SOL    HW212046   4.646   3.165   3.119 -1.3209  0.1449  0.6424
 3826SOL     OW12047   3.448   2.954   5.810 -0.4228 -0.1622 -0.5645
 3826SOL    HW112048   3.533   2.947   5.767 -0.6285 -0.5281 -0.9149
 3826SOL    HW212049   3.397   3.012   5.754 -0.3116  0.3097 -0.1929
 3827SOL     OW12050   4.375   2.029   5.736 -0.1459 -0.3793  0.0041
 3827SOL    HW112051   4.283   2.047   5.716  0.3744 -0.3931 -2.8905
 3827SOL    HW212052   4.377   1.935   5.757 -0.5961 -0.8489 -1.8397
 3828SOL     OW12053   6.487   4.492   3.886 -0.6032  1.0121 -0.3548
 3828SOL    HW112054   6.558   4.501   3.824  0.7014  0.9196  1.0709
 3828SOL    HW212055   6.518   4.427   3.949 -1.6721  1.4671  0.6846
 3829SOL     OW12056   5.668   6.697   1.434 -0.2555  0.4316  0.5201
 3829SOL    HW112057   5.669   6.745   1.516  0.3073 -0.0755  0.8163
 3829SOL    HW212058   5.694   6.762   1.368  1.2301  0.3785  1.0157
 3830SOL     OW12059   7.323   0.443   2.360  0.1344 -0.5671  0.0165
 3830SOL    HW112060   7.268   0.389   2.417  1.6544 -0.5376  1.5939
 3830SOL    HW212061   7.334   0.391   2.281 -2.1398 -0.5577 -0.3615
 3831SOL     OW12062   4.390   0.716   2.076 -0.4841 -1.0000  0.4104
 3831SOL    HW112063   4.415   0.741   1.987 -0.6084  0.5688  0.7897
 3831SOL    HW212064   4.296   0.697   2.070 -0.3439 -1.6147  0.0721
 3832SOL     OW12065   3.773   6.930   2.961 -0.1646  0.5889 -0.6453
 3832SOL    HW112066   3.848   6.878   2.990 -1.0632 -0.0977  0.5398
 3832SOL    HW212067   3.800   7.021   2.978 -0.6589  0.2532  2.7351
 3833SOL     OW12068   2.203   3.507   6.037 -0.2092  0.1812 -0.0798
 3833SOL    HW112069   2.298   3.511   6.040 -0.2219  0.6512 -0.3047
 3833SOL    HW212070   2.183   3.413   6.036  0.2176  0.0694  0.8965
 3834SOL     OW12071   1.048   2.095   1.722 -0.1521  0.6321 -0.5443
 3834SOL    HW112072   1.135   2.121   1.753  1.0461 -0.1430 -3.0304
 3834SOL    HW212073   1.056   2.091   1.627 -2.1225 -2.2186 -0.7086
 3835SOL     OW12074   4.403   7.012   0.775 -0.0768  0.3625  0.0856
 3835SOL    HW112075   4.433   6.931   0.816 -3.2576 -0.9700  0.0228
 3835SOL    HW212076   4.396   7.074   0.847 -0.5450 -0.3577  0.6710
 3836SOL     OW12077   5.233   2.999   3.733 -0.8756 -0.3479  0.1569
 3836SOL    HW112078   5.280   2.952   3.802 -0.9694 -0.5677  0.0729
 3836SOL    HW212079   5.149   3.022   3.773 -0.7186 -0.0048  0.2887
 3837SOL     OW12080   7.105   6.176   2.193  0.2571  0.1408 -0.3148
 3837SOL    HW112081   7.018   6.214   2.186  0.0171 -0.6163 -1.7806
 3837SOL    HW212082   7.104   6.128   2.276  0.1369  2.1245  0.9147
 3838SOL     OW12083   4.883   5.613   1.850  0.2093 -0.0954  0.7225
 3838SOL    HW112084   4.936   5.600   1.929  0.7737 -0.0141  0.3601
 3838SOL    HW212085   4.946   5.637   1.782 -0.0711 -1.5995 -0.1186
 3839SOL     OW12086   5.748   2.365   6.563 -0.1981 -0.3816 -0.4418
 3839SOL    HW112087   5.693   2.438   6.536 -0.1047 -1.2712 -3.4630
 3839SOL    HW212088   5.753   2.309   6.485  2.3588 -1.9659  0.7163
 3840SOL     OW12089   2.851   5.690   4.296  0.6268 -0.4862  0.2038
 3840SOL    HW112090   2.793   5.767   4.300 -0.4212 -1.3064  2.2549
 3840SOL    HW212091   2.915   5.705   4.366  1.3485 -0.7823 -0.3911
 3841SOL     OW12092   4.084   2.721   3.704  0.4120  0.3903 -0.4211
 3841SOL    HW112093   4.108   2.751   3.616  2.4316  1.8697  0.5332
 3841SOL    HW212094   4.042   2.797   3.744 -0.1975 -0.1653 -0.0020
 3842SOL     OW12095   1.585   2.068   3.265 -0.4537 -0.0419 -0.0440
 3842SOL    HW112096   1.504   2.103   3.226 -0.4717 -0.4583 -0.3948
 3842SOL    HW212097   1.655   2.112   3.217 -0.4763 -0.5524 -0.5545
 3843SOL     OW12098   3.864   7.203   2.970  0.4562  0.8346  0.0324
 3843SOL    HW112099   3.947   7.205   3.018  0.6499  1.0841 -0.3137
 3843SOL    HW212100   3.811   7.270   3.013 -0.0298 -0.1817  1.0772
 3844SOL     OW12101   3.865   2.511   5.357  0.0862  0.5309 -0.3052
 3844SOL    HW112102   3.849   2.457   5.280  1.1203 -1.0987  0.5723
 3844SOL    HW212103   3.790   2.496   5.414 -0.1556  0.8990 -0.5198
 3845SOL     OW12104   5.813   1.382   1.644 -0.6571 -0.5276 -0.3807
 3845SOL    HW112105   5.829   1.334   1.725 -0.7663 -2.3744 -1.3989
 3845SOL    HW212106   5.872   1.342   1.580 -2.3112 -0.8252 -1.7943
 3846SOL     OW12107   7.279   0.067   0.328  0.3390  0.1931 -0.1586
 3846SOL    HW112108   7.199   0.016   0.332  0.8301 -0.5427  0.5075
 3846SOL    HW212109   7.301   0.070   0.235 -0.4948  0.4767 -0.3553
 3847SOL     OW12110   4.786   1.325   2.560 -0.1476  0.9298 -0.3036
 3847SOL    HW112111   4.808   1.309   2.469  0.3537 -0.6692  0.0572
 3847SOL    HW212112   4.718   1.261   2.580 -2.0457  2.8575 -0.1746
 3848SOL     OW12113   7.246   3.131   5.694 -0.5252 -0.1551  0.4705
 3848SOL    HW112114   7.232   3.199   5.628 -0.3846  0.7202  1.3090
 3848SOL    HW212115   7.213   3.171   5.776  1.5701 -0.2318  1.4043
 3849SOL     OW12116   6.234   1.874   2.507 -0.2118 -0.7146 -0.1663
 3849SOL    HW112117   6.196   1.931   2.574  0.9493  0.6438 -0.6225
 3849SOL    HW212118   6.284   1.810   2.557  0.2751  0.0086  0.2891
 3850SOL     OW12119   0.364   4.585   3.485 -0.2050  0.2759 -0.0982
 3850SOL    HW112120   0.281   4.549   3.518  0.7900 -1.6075  0.4807
 3850SOL    HW212121   0.337   4.646   3.417 -2.0943 -0.0656  0.2656
 3851SOL     OW12122   1.385   2.112   2.044  0.1139 -0.0342  0.0055
 3851SOL    HW112123   1.310   2.112   2.104 -1.0086  1.3102 -1.2978
 3851SOL    HW212124   1.456   2.151   2.094 -0.3677 -0.3043  0.9237
 3852SOL     OW12125   5.265   0.804   3.435  0.2423 -0.7658 -0.0535
 3852SOL    HW112126   5.180   0.821   3.476  0.9519  1.8109  0.5492
 3852SOL    HW212127   5.317   0.882   3.455  1.9978 -1.2171 -2.4138
 3853SOL     OW12128   2.428   2.291   4.330 -0.2986  0.0853  0.1580
 3853SOL    HW112129   2.373   2.337   4.392 -0.0015 -1.8613  1.9961
 3853SOL    HW212130   2.518   2.314   4.355 -0.1626  1.5121 -1.4266
 3854SOL     OW12131   6.136   7.395   2.333  0.6578  0.6266 -0.7372
 3854SOL    HW112132   6.197   7.323   2.350 -1.2339 -0.6356  1.2397
 3854SOL    HW212133   6.136   7.404   2.238  0.9386 -2.0520 -1.0863
 3855SOL     OW12134   4.798   3.218   5.309  0.4738  0.0471  0.1253
 3855SOL    HW112135   4.821   3.239   5.218 -0.8136  3.1589  0.3706
 3855SOL    HW212136   4.882   3.204   5.353  1.0806 -2.5260 -1.6755
 3856SOL     OW12137   6.922   2.442   5.653  0.6887  0.2123 -0.1407
 3856SOL    HW112138   6.859   2.380   5.691 -0.1988  1.1578 -0.0208
 3856SOL    HW212139   6.868   2.515   5.623  1.5597  0.2619 -1.6663
 3857SOL     OW12140   5.887   3.693   0.674 -0.3556  0.0881 -0.0469
 3857SOL    HW112141   5.974   3.665   0.645  0.2758  0.0715  1.7747
 3857SOL    HW212142   5.884   3.786   0.654  0.3020  0.2026  0.3654
 3858SOL     OW12143   6.697   5.912   4.477  0.8194  0.0583 -0.8272
 3858SOL    HW112144   6.723   5.902   4.569  0.2785  2.5143 -0.3470
 3858SOL    HW212145   6.767   5.964   4.437  1.2427 -1.3038 -1.9620
 3859SOL     OW12146   2.170   5.824   0.736 -0.2503  0.9143 -0.4228
 3859SOL    HW112147   2.247   5.767   0.738 -1.4155 -0.7496  1.0058
 3859SOL    HW212148   2.203   5.911   0.758  1.3963  0.5355 -1.2237
 3860SOL     OW12149   5.048   6.795   7.394  0.6037 -0.1440 -0.4567
 3860SOL    HW112150   5.074   6.887   7.403 -1.0673  0.4250 -0.9382
 3860SOL    HW212151   4.962   6.799   7.352 -0.2530 -1.8428  0.9711
 3861SOL     OW12152   6.075   3.125   6.623 -0.1475  0.0325 -0.0932
 3861SOL    HW112153   6.001   3.099   6.567 -1.7839 -0.5544  2.1652
 3861SOL    HW212154   6.034   3.166   6.699  1.9015  0.0767  1.0651
 3862SOL     OW12155   5.074   3.183   4.225  1.0440  0.1495  0.6646
 3862SOL    HW112156   5.088   3.235   4.304  1.6510 -1.2840  1.5264
 3862SOL    HW212157   5.028   3.105   4.255 -4.0952  1.9775 -1.1947
 3863SOL     OW12158   4.448   3.394   6.987  0.2724 -0.1766 -0.0684
 3863SOL    HW112159   4.443   3.347   6.904  1.5941 -0.3525 -0.0644
 3863SOL    HW212160   4.510   3.344   7.039  0.2281  0.5048  0.6547
 3864SOL     OW12161   1.688   2.399   1.284  0.4248 -0.2776 -0.2194
 3864SOL    HW112162   1.722   2.487   1.267 -2.7073  0.7886 -1.7060
 3864SOL    HW212163   1.659   2.403   1.375  0.7800  0.0311 -0.1128
 3865SOL     OW12164   5.010   0.451   5.364 -0.0808  0.0301 -0.2070
 3865SOL    HW112165   4.915   0.436   5.364 -0.2273  0.8386  0.5716
 3865SOL    HW212166   5.044   0.392   5.431 -0.2258  0.7061  0.4821
 3866SOL     OW12167   6.506   4.387   2.377 -0.3744 -0.6253  0.1429
 3866SOL    HW112168   6.413   4.388   2.355 -0.3399  2.7248 -0.3697
 3866SOL    HW212169   6.509   4.390   2.473 -0.7737 -0.8502  0.1633
 3867SOL     OW12170   1.211   2.730   6.968  0.7927  0.1835  0.1745
 3867SOL    HW112171   1.282   2.679   6.928  0.3766  1.0781 -1.8427
 3867SOL    HW212172   1.255   2.789   7.029  1.8754  0.8605 -1.1814
 3868SOL     OW12173   6.530   3.998   6.223  0.5806  0.3364  0.2642
 3868SOL    HW112174   6.608   4.017   6.274  0.5393  4.5277 -0.8198
 3868SOL    HW212175   6.560   3.998   6.132 -0.4776  0.9592 -0.1056
 3869SOL     OW12176   5.962   0.488   6.699  0.0065  0.1346  0.0034
 3869SOL    HW112177   5.919   0.562   6.657  1.6247  0.4679 -1.1708
 3869SOL    HW212178   5.929   0.411   6.651 -0.2260  0.2729 -0.0597
 3870SOL     OW12179   3.691   0.082   1.317 -0.1873  0.1477 -0.1259
 3870SOL    HW112180   3.763   0.144   1.329  0.4557 -0.6810  0.4652
 3870SOL    HW212181   3.725   0.017   1.256 -1.2637  0.9555 -1.6578
 3871SOL     OW12182   0.982   2.056   4.540 -0.1969  0.3857  0.3721
 3871SOL    HW112183   1.047   2.097   4.482 -1.3834  1.1272 -0.4887
 3871SOL    HW212184   1.013   1.966   4.551  1.6362  1.0643  1.0274
 3872SOL     OW12185   2.433   7.265   0.780  0.0253  0.0603  0.3735
 3872SOL    HW112186   2.412   7.221   0.697  2.6929  0.6749 -0.7508
 3872SOL    HW212187   2.380   7.220   0.845 -0.6677 -1.8361 -1.3809
 3873SOL     OW12188   0.648   5.461   3.935  0.2843 -0.1749  0.1950
 3873SOL    HW112189   0.640   5.553   3.909 -0.9536  0.1142  1.4628
 3873SOL    HW212190   0.581   5.449   4.002  1.6354 -1.5369  1.3843
 3874SOL     OW12191   2.727   1.302   0.634 -0.1750 -0.0341 -0.2807
 3874SOL    HW112192   2.638   1.288   0.602 -0.1952  0.7615 -0.5983
 3874SOL    HW212193   2.716   1.326   0.726 -0.4258  1.5560 -0.6905
 3875SOL     OW12194   3.803   3.858   2.757 -0.3091 -0.0513 -0.1459
 3875SOL    HW112195   3.745   3.787   2.783  0.8071 -0.8213  0.2988
 3875SOL    HW212196   3.775   3.880   2.668 -1.4448 -0.2191  0.1553
 3876SOL     OW12197   0.716   6.510   3.874 -0.4783  0.0018  0.0742
 3876SOL    HW112198   0.742   6.443   3.937  1.4861  1.6215  1.0939
 3876SOL    HW212199   0.798   6.548   3.843 -1.5061  2.0830 -0.2934
 3877SOL     OW12200   4.822   3.859   2.372  0.4596  0.3773  0.1978
 3877SOL    HW112201   4.794   3.947   2.343 -0.9277 -0.0050  0.2940
 3877SOL    HW212202   4.824   3.865   2.467 -2.3327 -0.4012  0.3812
 3878SOL     OW12203   2.368   3.558   0.627  0.0452  0.1908 -0.6163
 3878SOL    HW112204   2.372   3.639   0.577  0.0067  0.3965 -0.2846
 3878SOL    HW212205   2.310   3.577   0.701 -0.2984 -0.2596 -0.7601
 3879SOL     OW12206   1.686   2.283   6.117 -0.3154  0.4232  0.1118
 3879SOL    HW112207   1.728   2.366   6.095  0.5181  0.3510  1.3509
 3879SOL    HW212208   1.616   2.307   6.178 -1.0163  0.3553 -0.6449
 3880SOL     OW12209   4.568   6.073   1.590  0.6085  0.6558  0.5507
 3880SOL    HW112210   4.659   6.086   1.562  0.0544 -0.9018 -2.3376
 3880SOL    HW212211   4.573   6.001   1.653  1.3566  0.1395 -0.0649
 3881SOL     OW12212   1.384   1.307   1.907 -0.1249 -0.1062  0.2541
 3881SOL    HW112213   1.313   1.262   1.953 -1.0746  2.7668  1.8821
 3881SOL    HW212214   1.448   1.328   1.975  0.9616 -0.2183 -0.6954
 3882SOL     OW12215   4.612   1.774   4.801 -0.4321  0.0037 -0.0121
 3882SOL    HW112216   4.636   1.841   4.865  1.6425 -0.7330  0.0499
 3882SOL    HW212217   4.689   1.717   4.795  0.1272  0.8680 -4.2855
 3883SOL     OW12218   1.199   7.248   6.394 -0.1279 -0.0772 -0.6619
 3883SOL    HW112219   1.169   7.337   6.408  1.5197  0.5720 -1.0214
 3883SOL    HW212220   1.255   7.229   6.469 -1.9232 -1.5246  0.3786
 3884SOL     OW12221   2.301   3.949   5.856  0.7282  0.0474  0.2375
 3884SOL    HW112222   2.350   3.869   5.838  0.2034 -0.7738  2.1932
 3884SOL    HW212223   2.368   4.016   5.872  1.2152 -0.6448  1.1563
 3885SOL     OW12224   5.740   2.422   2.447 -0.0165 -0.3110 -0.1584
 3885SOL    HW112225   5.772   2.352   2.504 -0.0104 -0.3269 -0.1812
 3885SOL    HW212226   5.647   2.402   2.435 -0.5113  0.7980  1.4728
 3886SOL     OW12227   4.363   2.594   3.733  0.4210 -0.1851  0.9625
 3886SOL    HW112228   4.351   2.534   3.807 -1.1944 -1.2246 -0.0777
 3886SOL    HW212229   4.275   2.629   3.717  0.9291  0.7357  0.1189
 3887SOL     OW12230   0.456   4.227   1.983  0.2044 -0.3738 -0.1121
 3887SOL    HW112231   0.420   4.176   1.910 -0.4768 -0.5552  0.3362
 3887SOL    HW212232   0.407   4.196   2.059 -0.0687  0.8051  0.2027
 3888SOL     OW12233   4.022   1.486   3.072  0.0682 -0.0768  0.7627
 3888SOL    HW112234   4.044   1.395   3.091 -1.4636 -0.6267  0.1014
 3888SOL    HW212235   4.095   1.518   3.019 -1.7418 -2.7151 -3.9484
 3889SOL     OW12236   0.526   1.640   7.079 -0.4085  0.5508  0.2013
 3889SOL    HW112237   0.437   1.642   7.045 -0.5840 -0.9591  0.5261
 3889SOL    HW212238   0.547   1.547   7.087  0.1541  0.8226  2.8208
 3890SOL     OW12239   4.377   6.103   2.444  0.3181 -0.0686 -0.4669
 3890SOL    HW112240   4.331   6.021   2.465 -0.6868  0.2784 -1.2215
 3890SOL    HW212241   4.361   6.160   2.519 -0.6790  0.1215 -0.8139
 3891SOL     OW12242   3.937   6.675   2.974  0.2372 -0.0148  0.0839
 3891SOL    HW112243   4.001   6.604   2.978  0.2727 -0.0490 -0.9508
 3891SOL    HW212244   3.871   6.652   3.039  0.3363 -0.9053 -0.1278
 3892SOL     OW12245   1.437   1.493   3.083 -0.4663 -0.2106  0.2715
 3892SOL    HW112246   1.419   1.583   3.054 -1.4654 -0.5797 -0.2710
 3892SOL    HW212247   1.451   1.501   3.177 -1.0576  0.4500  0.3129
 3893SOL     OW12248   5.373   1.947   2.746 -0.0336 -0.5624  0.5268
 3893SOL    HW112249   5.375   2.043   2.747 -2.0707 -0.4428 -1.0451
 3893SOL    HW212250   5.424   1.922   2.669  0.6285 -0.7790  1.0232
 3894SOL     OW12251   0.914   6.997   3.852  0.1114  0.2996  0.1171
 3894SOL    HW112252   0.876   6.927   3.798  0.1977  0.5209 -0.2352
 3894SOL    HW212253   0.848   7.067   3.851  0.4262  0.5954 -0.3110
 3895SOL     OW12254   7.331   6.757   2.079  0.0326 -0.7506  0.0345
 3895SOL    HW112255   7.380   6.715   2.149 -2.7234  0.0434  2.6236
 3895SOL    HW212256   7.386   6.830   2.051  1.1717 -1.0433  1.4364
 3896SOL     OW12257   0.806   4.598   4.960  0.8698  0.2861 -0.1708
 3896SOL    HW112258   0.825   4.615   5.052 -0.2330  0.5680  0.0182
 3896SOL    HW212259   0.872   4.534   4.933 -0.3488 -1.8658  1.5710
 3897SOL     OW12260   3.586   0.675   4.601  0.0638  0.1261 -0.5600
 3897SOL    HW112261   3.655   0.724   4.555  0.1923 -0.3907 -0.9262
 3897SOL    HW212262   3.620   0.586   4.606  0.5918  0.3966  1.6316
 3898SOL     OW12263   1.840   4.946   2.480  0.0468 -0.6294 -0.3032
 3898SOL    HW112264   1.911   4.887   2.455 -1.4275 -1.8490 -1.8031
 3898SOL    HW212265   1.765   4.918   2.427 -1.0754  1.7746 -0.1292
 3899SOL     OW12266   1.789   2.663   3.172  0.0806 -0.0965 -0.6434
 3899SOL    HW112267   1.713   2.620   3.131  0.2858 -0.2179 -0.8952
 3899SOL    HW212268   1.848   2.682   3.100 -0.0592  0.7312 -0.5541
 3900SOL     OW12269   4.582   6.354   0.765  0.0540  0.2377  0.5439
 3900SOL    HW112270   4.577   6.313   0.679 -0.0501  0.7545  0.2978
 3900SOL    HW212271   4.661   6.317   0.805  0.7139  0.8097 -0.2074
 3901SOL     OW12272   3.233   2.272   0.972  0.1270  0.3157  0.1915
 3901SOL    HW112273   3.159   2.331   0.954  0.6871  0.7111 -0.9671
 3901SOL    HW212274   3.308   2.316   0.931  1.1887  0.3382  2.0358
 3902SOL     OW12275   4.845   1.968   1.605 -0.0873 -0.9969  0.6360
 3902SOL    HW112276   4.800   2.010   1.531  1.8287  1.0259  0.5237
 3902SOL    HW212277   4.783   1.975   1.678 -0.5816  0.3132  0.1193
 3903SOL     OW12278   0.144   5.101   2.783 -0.0444 -0.0166  0.7390
 3903SOL    HW112279   0.192   5.161   2.726 -0.3600  0.1202  0.6159
 3903SOL    HW212280   0.120   5.154   2.859  2.6027 -0.8119  2.2569
 3904SOL     OW12281   5.672   3.776   0.961 -0.3704 -0.3281  0.4129
 3904SOL    HW112282   5.657   3.691   1.003 -1.9299  0.9112  2.5485
 3904SOL    HW212283   5.767   3.779   0.946 -0.0280 -1.6986  1.9921
 3905SOL     OW12284   6.136   1.724   3.700  0.0003 -0.7208 -0.8646
 3905SOL    HW112285   6.102   1.743   3.613 -0.6594 -0.9964 -0.6796
 3905SOL    HW212286   6.114   1.632   3.715 -1.3809 -0.2726  0.2189
 3906SOL     OW12287   1.832   1.339   3.436  0.4645  0.9643  0.2620
 3906SOL    HW112288   1.829   1.244   3.449  1.0469  0.9109  0.0279
 3906SOL    HW212289   1.914   1.354   3.390 -0.3706  1.4167 -1.1332
 3907SOL     OW12290   2.092   7.031   7.215  0.1509 -0.3236 -0.1322
 3907SOL    HW112291   2.037   7.072   7.282  1.8539  0.2392  0.9782
 3907SOL    HW212292   2.054   7.061   7.132 -0.7512  0.6659  0.6004
 3908SOL     OW12293   5.079   6.652   0.190  0.2509  0.1668 -0.6476
 3908SOL    HW112294   5.071   6.684   0.100  2.0326  0.1769 -0.8368
 3908SOL    HW212295   5.117   6.725   0.239  3.6409 -1.2204 -0.9271
 3909SOL     OW12296   3.143   2.970   5.120  0.5560  0.5945 -0.5626
 3909SOL    HW112297   3.067   3.022   5.095  0.6258  1.2662  0.5741
 3909SOL    HW212298   3.154   2.908   5.047 -2.0451 -0.5947 -0.0798
 3910SOL     OW12299   0.430   2.774   5.384 -0.2544  0.4239 -0.1072
 3910SOL    HW112300   0.337   2.753   5.393 -0.0627  0.0827  1.3591
 3910SOL    HW212301   0.444   2.780   5.290 -1.8738  0.9921 -0.3448
 3911SOL     OW12302   3.933   6.466   4.887 -0.1677  0.2625  0.3310
 3911SOL    HW112303   3.915   6.391   4.944 -0.9218  1.2895  1.4755
 3911SOL    HW212304   3.900   6.542   4.935  2.9741  1.7108  0.4221
 3912SOL     OW12305   7.423   3.971   3.917  0.3662 -0.5901  0.1557
 3912SOL    HW112306   7.392   3.892   3.872  1.6909  0.1073 -2.1129
 3912SOL    HW212307   7.482   4.013   3.855  1.1066  1.2782  1.9998
 3913SOL     OW12308   6.523   2.516   4.149  0.3419 -0.3180 -0.2847
 3913SOL    HW112309   6.550   2.533   4.059  0.4825  0.6706 -0.0666
 3913SOL    HW212310   6.438   2.473   4.141  1.4810 -2.6855 -0.9591
 3914SOL     OW12311   0.264   6.346   1.609  0.3684  0.3456 -0.3742
 3914SOL    HW112312   0.268   6.267   1.555  1.8694  0.0807  0.0677
 3914SOL    HW212313   0.281   6.315   1.698  0.8918  1.1537 -0.1858
 3915SOL     OW12314   3.599   2.961   5.560  0.4196 -0.2314  0.0551
 3915SOL    HW112315   3.527   2.943   5.501  1.4284 -0.8176 -1.0541
 3915SOL    HW212316   3.674   2.915   5.521  1.0597 -0.9387  1.9557
 3916SOL     OW12317   6.059   4.973   2.900 -0.0591  0.5613 -0.2284
 3916SOL    HW112318   6.065   4.997   2.992  0.4533  1.7716 -0.5573
 3916SOL    HW212319   6.149   4.950   2.876 -0.5707 -2.1926  0.1659
 3917SOL     OW12320   5.711   6.392   0.446  0.3523  0.1705 -0.0749
 3917SOL    HW112321   5.702   6.442   0.527 -0.7685  0.1178 -0.1513
 3917SOL    HW212322   5.748   6.308   0.474  1.4931  0.7347  0.1559
 3918SOL     OW12323   1.905   5.818   0.091  0.4169  0.0341  0.0213
 3918SOL    HW112324   1.962   5.779   0.158 -1.9947 -0.0009  2.1944
 3918SOL    HW212325   1.839   5.752   0.073  0.2486  0.5642 -1.4567
 3919SOL     OW12326   3.142   2.507   6.706  0.6429  0.0415 -0.6797
 3919SOL    HW112327   3.120   2.452   6.631  0.1655  0.8119 -1.1190
 3919SOL    HW212328   3.227   2.475   6.735 -0.2115 -1.8070 -0.0728
 3920SOL     OW12329   6.919   6.556   4.441 -0.1415  0.0637  0.2654
 3920SOL    HW112330   7.011   6.557   4.468  0.8551  3.5063 -2.4585
 3920SOL    HW212331   6.916   6.494   4.368 -0.0949 -0.4457  0.6976
 3921SOL     OW12332   1.713   3.548   2.347 -0.4166  0.5725 -0.1887
 3921SOL    HW112333   1.649   3.615   2.321 -0.8962 -0.1245 -0.8534
 3921SOL    HW212334   1.735   3.503   2.265 -0.5704 -0.4816  0.3268
 3922SOL     OW12335   1.409   5.224   4.437 -0.7982  0.1489  0.3145
 3922SOL    HW112336   1.341   5.232   4.370 -0.0521  0.3192 -0.4243
 3922SOL    HW212337   1.436   5.132   4.432 -0.2837  0.3166 -0.0765
 3923SOL     OW12338   1.519   4.552   6.052  0.0667  0.1391  0.3725
 3923SOL    HW112339   1.467   4.480   6.016 -0.4901 -0.0128  1.4206
 3923SOL    HW212340   1.507   4.545   6.147 -1.8779  2.9572  0.4736
 3924SOL     OW12341   3.562   7.355   6.424 -0.0470  0.7595 -0.5352
 3924SOL    HW112342   3.638   7.299   6.441 -1.8443 -1.8011 -0.2816
 3924SOL    HW212343   3.581   7.436   6.471  1.8118 -0.4014  0.8720
 3925SOL     OW12344   2.164   6.947   2.472  0.3511 -0.5524  0.7824
 3925SOL    HW112345   2.182   6.898   2.392  2.1937  0.2141  0.6863
 3925SOL    HW212346   2.217   6.904   2.539  0.6298  0.2355  1.0773
 3926SOL     OW12347   2.463   2.092   4.684  0.3239 -0.1478  0.2571
 3926SOL    HW112348   2.510   2.174   4.698 -1.2603  0.5218  2.1773
 3926SOL    HW212349   2.481   2.040   4.762  1.8159 -1.9488 -1.2214
 3927SOL     OW12350   0.018   3.340   0.980  0.1753  0.5902  0.4066
 3927SOL    HW112351  -0.021   3.425   0.999  1.6689  1.2440  0.6705
 3927SOL    HW212352   0.002   3.327   0.886  1.8916  2.2783 -0.2000
 3928SOL     OW12353   5.351   4.032   1.832  0.0636 -0.8313  0.3260
 3928SOL    HW112354   5.367   4.066   1.920  0.5841 -0.9754  0.2935
 3928SOL    HW212355   5.437   4.033   1.790 -0.5196  1.3777 -0.9718
 3929SOL     OW12356   3.496   1.198   4.392  0.7827 -0.1983  0.7815
 3929SOL    HW112357   3.527   1.108   4.396  0.6745 -0.3980 -1.3307
 3929SOL    HW212358   3.508   1.223   4.300  0.3119  1.7639  1.1968
 3930SOL     OW12359   7.163   6.226   7.186 -0.0155  0.0199  0.1630
 3930SOL    HW112360   7.218   6.304   7.187  0.5601 -0.3820  0.3047
 3930SOL    HW212361   7.212   6.161   7.236 -0.1221 -0.6743 -0.6071
 3931SOL     OW12362   1.849   3.011   6.492 -0.0220  0.1789 -0.4978
 3931SOL    HW112363   1.849   3.059   6.409  0.3530  0.9282 -0.0770
 3931SOL    HW212364   1.822   2.922   6.469  0.9333  0.1544 -1.5493
 3932SOL     OW12365   2.113   0.218   2.389  0.3147  0.7288 -0.0440
 3932SOL    HW112366   2.046   0.286   2.390  0.6204  1.0705 -1.0029
 3932SOL    HW212367   2.191   0.261   2.426 -0.1553  0.1165  1.7615
 3933SOL     OW12368   3.719   4.328   3.080  0.4976  0.3346 -0.5526
 3933SOL    HW112369   3.685   4.414   3.057 -0.8297  0.3315  1.2377
 3933SOL    HW212370   3.663   4.297   3.151  2.6416 -0.8235  0.7605
 3934SOL     OW12371   5.502   3.459   5.706  0.1299 -0.4450  0.1819
 3934SOL    HW112372   5.431   3.423   5.759 -0.4207 -1.7687 -1.3911
 3934SOL    HW212373   5.459   3.501   5.632  0.9533 -0.4835 -0.3331
 3935SOL     OW12374   0.452   4.326   0.871 -0.3432  0.4975 -0.3858
 3935SOL    HW112375   0.455   4.238   0.832  0.0502  0.2624  0.1466
 3935SOL    HW212376   0.531   4.329   0.926 -1.2122  0.5670  0.8924
 3936SOL     OW12377   7.124   2.379   4.073 -0.1644 -0.0754  0.2231
 3936SOL    HW112378   7.062   2.360   4.003 -0.7561  1.1946  0.3824
 3936SOL    HW212379   7.085   2.340   4.151  0.3706 -1.2654 -0.0772
 3937SOL     OW12380   5.132   1.508   5.918 -0.7420 -0.0091 -0.4318
 3937SOL    HW112381   5.040   1.513   5.943 -0.3479 -0.0338  1.1300
 3937SOL    HW212382   5.144   1.579   5.855 -1.7234  0.2599 -0.3273
 3938SOL     OW12383   7.191   0.767   6.977  0.4544 -0.2354 -0.1951
 3938SOL    HW112384   7.112   0.717   6.958  0.1686  0.3910 -0.6847
 3938SOL    HW212385   7.187   0.783   7.072 -1.9550  2.9389 -0.6624
 3939SOL     OW12386   7.118   5.467   2.801 -0.4760  0.3523  0.4764
 3939SOL    HW112387   7.152   5.551   2.769  1.2227  1.0165  3.5734
 3939SOL    HW212388   7.173   5.401   2.759 -0.8490  0.8566 -0.8512
 3940SOL     OW12389   0.506   4.959   4.946 -0.1156 -0.0673 -0.2462
 3940SOL    HW112390   0.570   4.916   4.890  1.6480  0.5759  1.1855
 3940SOL    HW212391   0.473   5.032   4.895  0.9276  0.0893 -0.7097
 3941SOL     OW12392   1.365   7.206   2.771  1.0835 -0.2228  0.3198
 3941SOL    HW112393   1.327   7.257   2.699  0.6316 -1.1651 -0.1218
 3941SOL    HW212394   1.459   7.218   2.762  1.1615 -1.7722 -1.5616
 3942SOL     OW12395   4.030   2.656   3.198 -0.2586  0.4267 -0.3413
 3942SOL    HW112396   3.982   2.654   3.115 -0.1383 -1.0618 -0.4133
 3942SOL    HW212397   3.962   2.650   3.265 -0.3362  1.3053 -0.3321
 3943SOL     OW12398   6.406   2.360   6.118 -0.0932  0.6682  0.0338
 3943SOL    HW112399   6.369   2.403   6.040  0.3978  2.1255  0.5630
 3943SOL    HW212400   6.403   2.428   6.186  2.1461  0.3740  0.5014
 3944SOL     OW12401   0.699   1.921   5.950  0.2359  0.5108 -0.0175
 3944SOL    HW112402   0.726   1.887   6.035 -1.3256  0.5123  0.5032
 3944SOL    HW212403   0.624   1.977   5.969 -0.0012  0.6905 -1.3736
 3945SOL     OW12404   3.538   1.992   4.632  0.2340 -0.6388  0.2476
 3945SOL    HW112405   3.579   1.925   4.578  1.9729  1.6894 -1.5867
 3945SOL    HW212406   3.582   1.986   4.717 -0.3142 -2.3515  0.4393
 3946SOL     OW12407   0.891   3.773   0.139 -0.0567 -0.4093 -0.0546
 3946SOL    HW112408   0.875   3.680   0.156  0.5783 -0.6364 -0.6321
 3946SOL    HW212409   0.862   3.785   0.048  0.3889 -0.1793 -0.1685
 3947SOL     OW12410   1.618   4.408   4.549 -0.1088 -0.0106  0.1477
 3947SOL    HW112411   1.708   4.412   4.516 -0.6414 -0.2150 -1.4082
 3947SOL    HW212412   1.589   4.499   4.553  0.8457  0.2504  2.7445
 3948SOL     OW12413   4.599   4.398   2.699 -0.0796 -0.2561  0.3311
 3948SOL    HW112414   4.630   4.451   2.773 -2.0594 -0.2507  1.2308
 3948SOL    HW212415   4.519   4.441   2.671  1.1582  0.3567 -2.5921
 3949SOL     OW12416   0.540   0.510   6.853  0.2291  0.1556 -0.5594
 3949SOL    HW112417   0.629   0.485   6.830  0.6564  2.2732 -1.4396
 3949SOL    HW212418   0.513   0.572   6.785 -0.4104  2.6528  1.7527
 3950SOL     OW12419   6.471   2.624   2.889 -0.7426 -0.4976 -0.1167
 3950SOL    HW112420   6.432   2.691   2.833  1.1720  0.1934 -0.7352
 3950SOL    HW212421   6.523   2.674   2.952  1.2891 -1.3255 -1.0160
 3951SOL     OW12422   2.321   1.496   4.758 -0.0686  0.2098 -0.4002
 3951SOL    HW112423   2.240   1.448   4.772 -0.9468  1.9844  0.9444
 3951SOL    HW212424   2.297   1.570   4.703  0.4837  1.0701  0.4732
 3952SOL     OW12425   6.726   4.059   7.024  0.5821 -0.0657 -0.0854
 3952SOL    HW112426   6.800   4.005   7.052  1.0114  0.4599 -0.1855
 3952SOL    HW212427   6.670   4.000   6.975  0.3360 -0.7538  0.9955
 3953SOL     OW12428   1.071   1.591   0.730  0.0636  0.3061  0.1635
 3953SOL    HW112429   1.014   1.515   0.743 -2.3477  1.9193 -0.4375
 3953SOL    HW212430   1.153   1.553   0.698 -1.1954 -2.0158 -0.5631
 3954SOL     OW12431   1.840   6.354   7.396 -0.2328  0.0563  0.1538
 3954SOL    HW112432   1.802   6.354   7.484 -0.3943  1.2991  0.0953
 3954SOL    HW212433   1.778   6.402   7.343  0.0305 -0.3953 -0.5762
 3955SOL     OW12434   6.129   1.349   2.767  0.4184 -0.6038  0.0486
 3955SOL    HW112435   6.075   1.411   2.818  1.2409  0.9142 -0.8494
 3955SOL    HW212436   6.182   1.405   2.711  0.7479 -2.1831 -1.2708
 3956SOL     OW12437   1.420   4.975   1.841  0.6736  0.0903  0.2499
 3956SOL    HW112438   1.443   4.958   1.750 -2.9337  0.2344 -0.8105
 3956SOL    HW212439   1.471   5.053   1.864  1.6080  0.0924 -1.6375
 3957SOL     OW12440   2.179   7.084   6.035 -0.0597 -0.1179  0.2508
 3957SOL    HW112441   2.220   7.166   6.062 -0.1285 -0.1935  0.5959
 3957SOL    HW212442   2.246   7.017   6.048  0.6698  0.1180 -1.8669
 3958SOL     OW12443   5.817   4.141   2.673  0.6384 -0.2093  0.2730
 3958SOL    HW112444   5.898   4.098   2.701  0.6597 -0.0072  0.5244
 3958SOL    HW212445   5.778   4.079   2.611  2.0506  0.6292 -1.5677
 3959SOL     OW12446   0.522   0.207   1.007 -0.2676  0.4533 -0.6823
 3959SOL    HW112447   0.449   0.201   1.069 -0.6682 -3.1978 -1.2581
 3959SOL    HW212448   0.600   0.189   1.060 -0.2271  0.6062 -0.6901
 3960SOL     OW12449   4.675   0.114   6.032  0.1615 -0.2926  0.1801
 3960SOL    HW112450   4.667   0.129   5.938 -2.3744  1.7854  0.6172
 3960SOL    HW212451   4.677   0.201   6.071 -0.5268 -1.0833  2.1339
 3961SOL     OW12452   1.598   2.210   4.244 -0.0270  0.3203  0.0478
 3961SOL    HW112453   1.621   2.279   4.306 -0.5787  0.2015  0.3948
 3961SOL    HW212454   1.682   2.178   4.212  0.3105 -0.0207  1.1942
 3962SOL     OW12455   1.488   7.135   4.185 -0.0875  0.1667 -0.0781
 3962SOL    HW112456   1.526   7.108   4.269 -0.6370  0.2572  0.2030
 3962SOL    HW212457   1.532   7.217   4.165 -0.7904  0.7581  0.7140
 3963SOL     OW12458   5.929   2.313   3.914 -0.0560 -0.1437 -0.0485
 3963SOL    HW112459   6.005   2.366   3.893  0.3480 -0.5938  0.2443
 3963SOL    HW212460   5.883   2.362   3.982 -0.6049  0.6330 -0.9510
 3964SOL     OW12461   1.218   1.535   0.975  0.1002 -0.2412  0.3254
 3964SOL    HW112462   1.192   1.550   1.066  0.2309 -1.1753  0.5324
 3964SOL    HW212463   1.154   1.583   0.923 -1.1751 -1.2822  0.8711
 3965SOL     OW12464   0.732   4.806   0.612  0.0745  0.2287  0.1628
 3965SOL    HW112465   0.778   4.820   0.695 -1.8248  0.0984  1.2933
 3965SOL    HW212466   0.693   4.719   0.621 -1.2117  0.7332 -0.3140
 3966SOL     OW12467   5.919   6.060   7.258 -0.1014 -0.4614 -0.6556
 3966SOL    HW112468   5.978   6.089   7.188  1.2201  0.3316  0.7465
 3966SOL    HW212469   5.832   6.087   7.228  0.3060 -0.9386 -2.3958
 3967SOL     OW12470   4.618   2.681   2.990  0.1369 -0.7649  0.1527
 3967SOL    HW112471   4.564   2.628   3.049 -0.7633  0.3814  0.4043
 3967SOL    HW212472   4.682   2.723   3.047  0.7759 -1.4623 -0.0311
 3968SOL     OW12473   0.921   3.578   3.529 -0.3591 -0.3032 -0.1540
 3968SOL    HW112474   0.839   3.625   3.517  1.1269  2.4100 -0.6715
 3968SOL    HW212475   0.944   3.593   3.621  0.3530  0.4582 -0.4398
 3969SOL     OW12476   4.585   4.185   1.370  0.0876  0.1255  0.2201
 3969SOL    HW112477   4.655   4.244   1.340  1.3491 -1.4321 -0.0430
 3969SOL    HW212478   4.507   4.240   1.371  0.9738  1.5040 -1.1405
 3970SOL     OW12479   5.285   2.413   4.086 -0.4175  0.3662  0.1008
 3970SOL    HW112480   5.205   2.448   4.126 -0.5142  0.3424 -0.0663
 3970SOL    HW212481   5.286   2.320   4.111 -0.2148  0.4649  0.4607
 3971SOL     OW12482   7.266   3.559   1.595  0.0082 -0.0162 -0.0241
 3971SOL    HW112483   7.298   3.507   1.521  1.2318  2.2213 -1.1804
 3971SOL    HW212484   7.345   3.583   1.643 -0.7356 -1.0579  1.8215
 3972SOL     OW12485   2.055   6.779   5.568 -0.0342 -1.1522 -0.0067
 3972SOL    HW112486   2.048   6.834   5.646  0.0009  0.5763 -1.1579
 3972SOL    HW212487   1.965   6.753   5.549 -0.9371  2.7426 -2.2287
 3973SOL     OW12488   0.423   1.251   7.369  0.1733 -0.0510 -0.1368
 3973SOL    HW112489   0.480   1.303   7.425 -1.3899 -0.1361  1.6281
 3973SOL    HW212490   0.335   1.273   7.398 -0.6048 -1.9371 -0.9214
 3974SOL     OW12491   5.184   7.040   7.093 -0.5432  0.2819  0.1565
 3974SOL    HW112492   5.122   6.985   7.046  0.2231  0.8915 -1.6533
 3974SOL    HW212493   5.149   7.129   7.083  0.6741  0.6581 -1.0717
 3975SOL     OW12494   3.743   6.854   6.216 -0.4455 -0.0284  0.1406
 3975SOL    HW112495   3.818   6.794   6.214 -0.8309 -0.4974 -0.7057
 3975SOL    HW212496   3.775   6.930   6.264  0.2130 -0.6992  0.7927
 3976SOL     OW12497   2.895   2.244   4.552 -0.3708 -0.3500 -0.1989
 3976SOL    HW112498   2.881   2.335   4.526  0.7009 -0.3623 -0.8865
 3976SOL    HW212499   2.880   2.193   4.473 -1.3402 -0.8317  0.2695
 3977SOL     OW12500   6.427   3.767   1.245  0.3067 -0.4366 -1.0354
 3977SOL    HW112501   6.377   3.769   1.327 -0.8345 -0.5232 -1.6992
 3977SOL    HW212502   6.486   3.842   1.251  2.6579 -2.2467  1.2694
 3978SOL     OW12503   4.469   4.165   7.045 -0.5789 -0.2166  0.3304
 3978SOL    HW112504   4.453   4.259   7.040 -1.0226 -0.2644  0.8376
 3978SOL    HW212505   4.552   4.153   6.998 -0.4555  0.4420  0.3669
 3979SOL     OW12506   2.802   6.951   4.911  0.0352  0.5016 -0.5088
 3979SOL    HW112507   2.819   6.999   4.992  1.1674 -1.3267  0.3938
 3979SOL    HW212508   2.708   6.933   4.913  0.0753  0.3849  0.4462
 3980SOL     OW12509   1.241   0.995   6.723 -0.3334  1.1027 -0.0369
 3980SOL    HW112510   1.206   1.050   6.794 -0.8222  1.3518 -0.4636
 3980SOL    HW212511   1.165   0.976   6.668 -0.3644 -0.7309  0.5668
 3981SOL     OW12512   5.666   5.099   2.582  0.2172  0.7032 -0.3537
 3981SOL    HW112513   5.622   5.080   2.499  1.7550 -0.9727 -0.8220
 3981SOL    HW212514   5.693   5.191   2.574 -0.8298  0.9645 -1.1200
 3982SOL     OW12515   1.172   6.318   3.883  0.3490 -0.0390  0.2822
 3982SOL    HW112516   1.243   6.254   3.886 -0.2144 -0.6706  0.3970
 3982SOL    HW212517   1.102   6.274   3.835 -0.1005  0.4424  0.4864
 3983SOL     OW12518   2.660   6.492   3.926  0.3855 -0.2342 -0.0051
 3983SOL    HW112519   2.604   6.418   3.948 -0.3815  0.5253  0.6939
 3983SOL    HW212520   2.749   6.459   3.935  0.0671 -1.4008 -0.9026
 3984SOL     OW12521   2.098   2.064   7.233 -0.3357 -0.1338  0.0719
 3984SOL    HW112522   2.093   2.022   7.319 -0.1149 -1.7379 -0.6644
 3984SOL    HW212523   2.139   2.149   7.250  0.1798 -0.6331  1.4774
 3985SOL     OW12524   1.570   6.261   2.824  0.0027 -0.7108  0.1347
 3985SOL    HW112525   1.510   6.211   2.768  0.1599 -0.3950 -0.3232
 3985SOL    HW212526   1.514   6.323   2.870 -0.0686 -0.6435 -0.0398
 3986SOL     OW12527   1.890   1.854   2.465 -0.2046 -0.9637 -0.0095
 3986SOL    HW112528   1.829   1.853   2.538  0.5117  0.9621  0.6755
 3986SOL    HW212529   1.840   1.889   2.392 -0.6310 -1.9147 -0.1907
 3987SOL     OW12530   4.749   2.990   6.669  0.0087 -0.1008 -0.7416
 3987SOL    HW112531   4.746   3.036   6.753  0.7498  0.5261 -1.0454
 3987SOL    HW212532   4.670   2.937   6.668  0.1488 -0.3672  0.4945
 3988SOL     OW12533   1.187   4.544   1.210  0.1053 -0.1305 -0.6953
 3988SOL    HW112534   1.266   4.581   1.171  1.3537 -0.2722  1.5188
 3988SOL    HW212535   1.208   4.452   1.226 -0.3816 -0.1009  0.1757
 3989SOL     OW12536   2.504   3.804   2.777 -0.2046  0.3594  0.0248
 3989SOL    HW112537   2.567   3.857   2.825 -0.0857 -0.5956  0.9582
 3989SOL    HW212538   2.530   3.713   2.796 -1.4312 -0.0434 -0.1474
 3990SOL     OW12539   2.776   3.062   0.919 -0.6729 -0.1228 -0.3409
 3990SOL    HW112540   2.695   3.099   0.954 -0.7873  1.5799 -2.2409
 3990SOL    HW212541   2.760   3.052   0.825  0.2897 -2.6649 -0.3184
 3991SOL     OW12542   5.375   5.360   4.511 -0.2821 -0.1246 -0.3026
 3991SOL    HW112543   5.309   5.315   4.458  0.4284  0.4816 -1.7607
 3991SOL    HW212544   5.353   5.453   4.503 -0.5232 -0.0449  1.0016
 3992SOL     OW12545   7.002   6.887   7.112  0.1589 -0.1899 -0.0481
 3992SOL    HW112546   7.061   6.912   7.041  1.5266  0.2704  1.1973
 3992SOL    HW212547   6.990   6.967   7.163  0.4252 -0.8405  1.0723
 3993SOL     OW12548   6.724   5.474   2.359  0.1544  0.3381  0.2542
 3993SOL    HW112549   6.738   5.566   2.380  2.0275 -0.1169  1.2224
 3993SOL    HW212550   6.633   5.457   2.384 -0.3835  2.0170 -0.4230
 3994SOL     OW12551   3.146   0.310   3.155 -0.1994  0.5516  0.1601
 3994SOL    HW112552   3.227   0.286   3.110 -0.4293 -1.9253  0.9337
 3994SOL    HW212553   3.172   0.324   3.246 -0.7831 -1.6209  0.7096
 3995SOL     OW12554   1.978   2.252   5.606 -0.0063 -0.3520 -0.0360
 3995SOL    HW112555   1.927   2.214   5.677 -1.1863 -0.3676 -0.8680
 3995SOL    HW212556   1.929   2.329   5.579  0.3427 -0.4197 -0.9187
 3996SOL     OW12557   5.705   1.016   7.302 -0.3025 -0.0814  0.2939
 3996SOL    HW112558   5.616   0.981   7.299  0.3593 -1.9013  0.6919
 3996SOL    HW212559   5.693   1.110   7.316 -2.1431 -0.3295  0.6814
 3997SOL     OW12560   4.891   7.105   1.430  0.2862  0.6560  0.4070
 3997SOL    HW112561   4.986   7.098   1.443  0.2591  0.3412  0.4316
 3997SOL    HW212562   4.861   7.015   1.418  0.0196  0.7722  0.1863
 3998SOL     OW12563   5.436   3.551   7.100 -0.2344  0.1473  0.0502
 3998SOL    HW112564   5.411   3.486   7.035  2.2858 -0.2998 -0.5676
 3998SOL    HW212565   5.439   3.504   7.183  1.6707 -0.5961 -0.4099
 3999SOL     OW12566   2.127   1.139   3.649  0.3231  0.2331  0.3163
 3999SOL    HW112567   2.203   1.171   3.601 -0.6025 -0.1066 -1.4557
 3999SOL    HW212568   2.126   1.045   3.633 -1.5488  0.4890 -1.3676
 4000SOL     OW12569   6.541   6.778   1.020  0.0146 -0.2563  0.0187
 4000SOL    HW112570   6.487   6.753   0.944  0.1023 -0.7229  0.1039
 4000SOL    HW212571   6.625   6.804   0.982 -0.4138  0.9283 -0.1514
 4001SOL     OW12572   6.792   5.725   1.210  0.0470 -0.4042  0.2978
 4001SOL    HW112573   6.702   5.715   1.239 -0.9559 -0.4641 -2.5407
 4001SOL    HW212574   6.844   5.679   1.277 -1.9975 -0.5800  1.8647
 4002SOL     OW12575   5.704   3.482   6.508  0.0737 -0.0795  0.1536
 4002SOL    HW112576   5.633   3.450   6.563 -0.3146  2.6195  1.4222
 4002SOL    HW212577   5.778   3.492   6.568  0.7760 -0.4849 -0.6168
 4003SOL     OW12578   1.128   5.385   6.677  0.6535 -0.3522 -0.4414
 4003SOL    HW112579   1.102   5.335   6.600  0.0343  0.9815 -1.1193
 4003SOL    HW212580   1.072   5.463   6.676 -0.5034 -1.0107  2.2174
 4004SOL     OW12581   4.484   5.780   0.796 -0.3560  0.4841 -0.0344
 4004SOL    HW112582   4.522   5.745   0.877  0.3095  0.1663 -0.4682
 4004SOL    HW212583   4.541   5.745   0.727 -0.1578  1.7769 -0.5448
 4005SOL     OW12584   1.334   4.138   5.428 -0.3260  0.0770  0.1671
 4005SOL    HW112585   1.251   4.098   5.454 -0.3340 -1.8603 -2.3798
 4005SOL    HW212586   1.308   4.215   5.377 -0.6080 -0.6137 -0.7620
 4006SOL     OW12587   5.590   5.005   4.941  0.5962 -0.6093 -0.0605
 4006SOL    HW112588   5.658   4.939   4.928  0.0444 -0.8999 -1.8419
 4006SOL    HW212589   5.627   5.086   4.906  0.1079 -0.7392 -0.9165
 4007SOL     OW12590   5.773   3.559   3.092 -0.2480  0.3925  0.3070
 4007SOL    HW112591   5.849   3.546   3.149 -0.5241  0.5401  0.7143
 4007SOL    HW212592   5.718   3.622   3.139 -0.3554  0.7223 -0.2499
 4008SOL     OW12593   2.153   4.634   1.564 -0.6495  0.2217 -0.0863
 4008SOL    HW112594   2.109   4.713   1.596  0.6127  0.6426  0.6514
 4008SOL    HW212595   2.245   4.657   1.560 -0.4082 -0.7946 -1.1947
 4009SOL     OW12596   4.038   0.084   1.930  0.6102  0.5550  0.0260
 4009SOL    HW112597   4.092   0.019   1.974  0.6623  0.2323 -0.4991
 4009SOL    HW212598   4.007   0.039   1.851  0.7477  1.2060 -0.4043
 4010SOL     OW12599   7.186   5.627   3.096  0.1551 -0.4798  0.0270
 4010SOL    HW112600   7.119   5.561   3.079  0.0942 -1.1157  2.2967
 4010SOL    HW212601   7.140   5.710   3.088 -0.5850 -0.8552  0.2481
 4011SOL     OW12602   2.201   6.603   3.443  0.1457  0.4861  0.0172
 4011SOL    HW112603   2.276   6.543   3.451  0.0071  0.2557 -0.3733
 4011SOL    HW212604   2.202   6.631   3.351 -0.3791  0.3015 -0.0513
 4012SOL     OW12605   6.166   1.047   0.275 -0.7007  0.4849  0.0177
 4012SOL    HW112606   6.105   1.121   0.271 -0.6548  0.5264  0.0901
 4012SOL    HW212607   6.248   1.081   0.242 -0.5084  0.6394  0.6376
 4013SOL     OW12608   0.777   1.218   3.537 -0.3000 -0.5399  0.0716
 4013SOL    HW112609   0.792   1.124   3.527 -0.8508 -0.6398  0.1801
 4013SOL    HW212610   0.857   1.251   3.577 -0.2173 -1.0094  0.2950
 4014SOL     OW12611   3.769   2.766   3.610  0.4444  0.2185  0.4219
 4014SOL    HW112612   3.855   2.800   3.636 -0.0880  0.4247  2.0172
 4014SOL    HW212613   3.743   2.708   3.682 -0.3612 -0.5686 -0.4675
 4015SOL     OW12614   0.140   4.029   5.699 -0.0983  0.3836 -0.6146
 4015SOL    HW112615   0.171   3.994   5.615  0.8068 -0.0041 -0.1320
 4015SOL    HW212616   0.216   4.073   5.737 -0.1993 -0.3064  0.4487
 4016SOL     OW12617   5.618   3.771   3.193  1.1044 -0.1949  0.2716
 4016SOL    HW112618   5.598   3.861   3.170 -0.8341 -0.0639  2.1327
 4016SOL    HW212619   5.533   3.726   3.190  1.1258 -0.8100  3.8680
 4017SOL     OW12620   1.768   2.042   7.419 -0.5077  0.2731 -0.1109
 4017SOL    HW112621   1.794   2.125   7.378  0.2710  0.0811 -0.0172
 4017SOL    HW212622   1.699   2.008   7.362  0.4292  0.0978 -1.1839
 4018SOL     OW12623   3.353   0.578   6.448  0.4014 -0.2648  0.0573
 4018SOL    HW112624   3.409   0.652   6.426  0.1261  0.4188  1.5543
 4018SOL    HW212625   3.385   0.547   6.533 -0.1205 -1.2252 -0.0770
 4019SOL     OW12626   2.133   0.216   4.660  0.2469  0.1764  0.1443
 4019SOL    HW112627   2.045   0.213   4.622 -0.1287  2.6688  0.6793
 4019SOL    HW212628   2.190   0.233   4.585  0.5425 -2.7649 -0.4295
 4020SOL     OW12629   1.578   1.194   5.782  0.2524  0.3659  0.0259
 4020SOL    HW112630   1.537   1.225   5.862  1.1917  0.0787  0.6306
 4020SOL    HW212631   1.518   1.222   5.712 -1.1783 -0.3948  0.8905
 4021SOL     OW12632   1.270   7.315   5.727 -0.5180 -0.1151 -0.2667
 4021SOL    HW112633   1.175   7.323   5.715 -0.6387 -2.0313 -0.9533
 4021SOL    HW212634   1.307   7.355   5.648 -0.7785 -0.0215 -0.3455
 4022SOL     OW12635   1.360   5.529   0.567 -0.1029  0.0528 -0.3194
 4022SOL    HW112636   1.330   5.481   0.644 -0.0946  1.1729  0.3976
 4022SOL    HW212637   1.362   5.463   0.498 -0.3582 -0.9200  0.5665
 4023SOL     OW12638   5.650   0.546   0.704  0.0692 -0.0901  0.3972
 4023SOL    HW112639   5.708   0.480   0.666  0.7020  0.6620  0.0280
 4023SOL    HW212640   5.662   0.536   0.799 -0.2054 -0.8160  0.3620
 4024SOL     OW12641   4.852   0.254   6.822  0.5416  0.1886 -0.0619
 4024SOL    HW112642   4.935   0.265   6.869  0.0531  0.0747  0.8510
 4024SOL    HW212643   4.788   0.304   6.874 -0.1345 -0.4369 -0.2777
 4025SOL     OW12644   3.965   4.701   6.714  0.1132  0.6149 -0.5039
 4025SOL    HW112645   3.955   4.609   6.689 -1.0035  0.7239 -0.5224
 4025SOL    HW212646   3.901   4.748   6.661  1.4409  1.5722 -1.3108
 4026SOL     OW12647   1.309   3.664   0.930  0.7465  0.5011  0.0121
 4026SOL    HW112648   1.280   3.605   1.000  0.2865 -0.4283 -0.9330
 4026SOL    HW212649   1.371   3.723   0.973  0.1192  0.2674  1.3073
 4027SOL     OW12650   4.096   6.839   1.291 -0.0748  0.0200  0.5650
 4027SOL    HW112651   4.111   6.783   1.368  1.2590 -1.5878 -0.7990
 4027SOL    HW212652   4.165   6.905   1.296  0.5556 -0.6126  0.2867
 4028SOL     OW12653   1.523   7.306   1.649 -0.3044  0.2455 -0.4909
 4028SOL    HW112654   1.600   7.319   1.593 -0.0540  0.6666 -0.0536
 4028SOL    HW212655   1.457   7.269   1.590  0.8030 -1.9389 -0.5003
 4029SOL     OW12656   0.058   4.792   6.944 -0.3438  0.3977 -0.3773
 4029SOL    HW112657   0.031   4.740   7.019 -0.5658  0.2979 -0.5238
 4029SOL    HW212658  -0.016   4.851   6.928 -0.6715 -0.1715 -1.0485
 4030SOL     OW12659   2.171   2.839   1.404  0.3100 -0.0085 -0.1782
 4030SOL    HW112660   2.121   2.767   1.367  0.3041 -0.2555  0.3059
 4030SOL    HW212661   2.127   2.918   1.371  0.4929 -0.2185 -0.9455
 4031SOL     OW12662   6.605   4.767   2.318  0.3528  0.1885  0.6163
 4031SOL    HW112663   6.526   4.780   2.370 -0.2855  4.1940 -1.0307
 4031SOL    HW212664   6.575   4.761   2.228  1.8305  1.4177 -0.0126
 4032SOL     OW12665   6.877   7.176   6.499  0.0227  0.0347  0.0055
 4032SOL    HW112666   6.952   7.120   6.477  1.4051  1.5828  0.5563
 4032SOL    HW212667   6.905   7.264   6.474 -1.1042  0.8426  1.4371
 4033SOL     OW12668   0.649   4.204   5.280 -0.4201  0.4334 -0.6480
 4033SOL    HW112669   0.637   4.216   5.186  1.0789  0.6127 -0.8342
 4033SOL    HW212670   0.724   4.259   5.302  0.7383 -1.3870  0.2194
 4034SOL     OW12671   7.153   6.125   2.611 -0.5911  0.0667  0.2108
 4034SOL    HW112672   7.151   6.084   2.525 -2.4009 -2.3816  1.3153
 4034SOL    HW212673   7.203   6.065   2.665 -1.0436  0.6304  1.2871
 4035SOL     OW12674   5.400   1.369   4.941 -0.0295  0.4874 -0.9569
 4035SOL    HW112675   5.407   1.274   4.937 -1.2446  0.2831  0.6844
 4035SOL    HW212676   5.491   1.399   4.938  0.4378 -0.7863 -0.4243
 4036SOL     OW12677   4.718   2.008   5.613  0.1750  0.3796  0.0229
 4036SOL    HW112678   4.771   2.082   5.642  2.4095 -1.9222  2.3555
 4036SOL    HW212679   4.759   1.931   5.654 -2.7493 -2.0439 -1.1863
 4037SOL     OW12680   7.047   0.514   6.277 -0.1084  0.5638  0.3924
 4037SOL    HW112681   7.076   0.601   6.303 -0.1803  0.2424  1.6032
 4037SOL    HW212682   7.067   0.458   6.352  1.2712 -0.7653 -0.9059
 4038SOL     OW12683   3.341   4.155   3.399  0.2556  0.0247  0.3133
 4038SOL    HW112684   3.402   4.098   3.444  0.8949 -0.1184 -0.7024
 4038SOL    HW212685   3.334   4.118   3.311 -0.7252  0.4700  0.1846
 4039SOL     OW12686   3.097   2.669   1.234  0.1269 -0.2566 -0.1008
 4039SOL    HW112687   3.180   2.716   1.244  0.4699 -0.0020 -3.1044
 4039SOL    HW212688   3.031   2.737   1.232  0.2736 -0.1273 -1.2310
 4040SOL     OW12689   2.989   2.869   2.841 -0.9162 -0.4387  0.0722
 4040SOL    HW112690   2.995   2.816   2.920 -1.6169  0.1294  0.5216
 4040SOL    HW212691   3.045   2.945   2.860  0.1468 -1.0340 -0.5972
 4041SOL     OW12692   5.420   2.701   2.485  0.1373 -0.2071 -0.2280
 4041SOL    HW112693   5.392   2.622   2.531 -1.1625  0.2196 -0.2288
 4041SOL    HW212694   5.499   2.729   2.531 -0.3000 -0.6216  0.8161
 4042SOL     OW12695   7.303   3.897   1.794 -0.3640  0.1753  0.1116
 4042SOL    HW112696   7.219   3.886   1.839 -0.5954  1.6608  0.0998
 4042SOL    HW212697   7.302   3.833   1.724 -1.0687 -0.4851  0.7191
 4043SOL     OW12698   2.130   3.977   5.652  0.5603 -0.4608 -0.1291
 4043SOL    HW112699   2.087   3.894   5.631 -0.2811  0.3230 -1.7087
 4043SOL    HW212700   2.181   3.959   5.731  0.6204 -2.5506 -0.5873
 4044SOL     OW12701   5.797   6.994   2.411  0.4964  1.0754  0.3480
 4044SOL    HW112702   5.724   6.940   2.441  0.9914 -0.1795 -0.6221
 4044SOL    HW212703   5.755   7.065   2.362 -0.0952  0.2474 -0.3881
 4045SOL     OW12704   5.870   5.226   0.390 -0.1007 -0.3562 -0.3635
 4045SOL    HW112705   5.806   5.240   0.460 -0.1194  0.2535 -0.4999
 4045SOL    HW212706   5.838   5.280   0.317  0.5714 -0.0442 -0.4359
 4046SOL     OW12707   3.854   2.135   3.723  0.3664  0.1031  0.3532
 4046SOL    HW112708   3.948   2.133   3.743  0.2973  0.0805  0.6808
 4046SOL    HW212709   3.842   2.217   3.675  0.6390 -0.1406 -0.1387
 4047SOL     OW12710   6.622   3.982   1.243  0.0833 -0.0391  0.1114
 4047SOL    HW112711   6.560   4.033   1.190  0.4021 -0.0695 -0.2846
 4047SOL    HW212712   6.631   4.034   1.323  1.8383  1.5219 -1.0251
 4048SOL     OW12713   5.885   5.797   3.778  0.1711 -0.4893 -0.0913
 4048SOL    HW112714   5.842   5.789   3.693 -0.5968  3.0329 -0.2089
 4048SOL    HW212715   5.948   5.869   3.766 -0.0747  0.2158  2.3280
 4049SOL     OW12716   0.564   5.943   4.589 -0.0165  0.0939  0.7446
 4049SOL    HW112717   0.575   6.005   4.661  1.1638  0.1078  0.5721
 4049SOL    HW212718   0.595   5.860   4.625 -0.8867 -0.2443  0.7340
 4050SOL     OW12719   4.862   5.637   0.043  0.9168 -0.3280  0.1323
 4050SOL    HW112720   4.796   5.691   0.087  2.2653  0.0531  1.7974
 4050SOL    HW212721   4.917   5.604   0.114  1.4901 -2.0692 -1.0574
 4051SOL     OW12722   2.248   3.246   6.845 -0.2411 -0.1161 -0.0646
 4051SOL    HW112723   2.209   3.160   6.829 -0.4169 -0.4678  1.9933
 4051SOL    HW212724   2.336   3.226   6.877 -0.6105  0.4105  1.3254
 4052SOL     OW12725   0.026   2.913   6.493  0.4190 -0.0742 -0.0312
 4052SOL    HW112726   0.024   3.009   6.484  0.2698  0.3081  3.0333
 4052SOL    HW212727   0.112   2.888   6.460  0.4676  1.1007 -0.8784
 4053SOL     OW12728   7.164   5.183   2.992 -0.3175  1.0655  0.0136
 4053SOL    HW112729   7.188   5.095   2.963 -0.5559  0.5360  1.3224
 4053SOL    HW212730   7.201   5.242   2.926  2.3414  0.1473  0.5734
 4054SOL     OW12731   5.444   2.434   5.431 -0.0342  0.4743 -0.1536
 4054SOL    HW112732   5.429   2.368   5.499 -2.7625 -0.7959 -1.7794
 4054SOL    HW212733   5.524   2.406   5.386 -0.3650 -0.9421  0.0996
 4055SOL     OW12734   7.050   5.455   3.769 -0.5288 -0.0249  0.3211
 4055SOL    HW112735   7.067   5.415   3.684 -0.3190  1.5157 -0.3830
 4055SOL    HW212736   7.043   5.549   3.751 -2.0780  0.1776  1.7622
 4056SOL     OW12737   1.855   5.130   5.097 -0.4298  0.3481 -0.4853
 4056SOL    HW112738   1.784   5.183   5.132  0.5875  0.4883  1.4706
 4056SOL    HW212739   1.890   5.182   5.024 -0.6229  1.5031  0.2276
 4057SOL     OW12740   6.484   0.003   0.852 -0.1631  0.4729 -0.3397
 4057SOL    HW112741   6.540  -0.028   0.781 -0.1797 -0.0677 -0.1208
 4057SOL    HW212742   6.463  -0.076   0.902 -0.7356  0.7411 -0.1504
 4058SOL     OW12743   0.404   0.234   0.280  0.4657 -0.1057 -0.0508
 4058SOL    HW112744   0.417   0.219   0.373 -1.4436  1.3593  0.5154
 4058SOL    HW212745   0.363   0.153   0.248  1.7046 -0.8615  0.2073
 4059SOL     OW12746   4.238   0.385   4.705 -0.8614 -0.0234 -0.0443
 4059SOL    HW112747   4.159   0.432   4.677 -0.5984  1.0549  0.9707
 4059SOL    HW212748   4.252   0.413   4.795  0.3877 -0.6164 -0.0372
 4060SOL     OW12749   1.072   4.496   6.748  0.1135 -0.5338 -0.1366
 4060SOL    HW112750   1.143   4.454   6.798 -0.7208 -2.3280 -0.3882
 4060SOL    HW212751   0.992   4.464   6.790 -0.6078 -1.7783 -2.3424
 4061SOL     OW12752   7.208   4.526   1.672  0.1651  0.2192  0.4190
 4061SOL    HW112753   7.268   4.574   1.615  0.1111 -2.6595 -2.3207
 4061SOL    HW212754   7.265   4.483   1.735  0.6546  0.1147 -0.0867
 4062SOL     OW12755   3.146   1.244   1.935 -0.2180 -0.1835 -0.3967
 4062SOL    HW112756   3.101   1.184   1.996  0.5453 -0.6966 -0.3208
 4062SOL    HW212757   3.116   1.331   1.961 -2.1448 -0.5694 -1.1601
 4063SOL     OW12758   1.025   7.050   0.090 -0.3398  0.0065  0.4004
 4063SOL    HW112759   1.109   7.009   0.073  1.3568  3.2842  0.1592
 4063SOL    HW212760   0.965   7.010   0.027  1.5736 -0.8383 -0.9423
 4064SOL     OW12761   1.941   4.988   3.500  0.1271  0.0532 -0.4298
 4064SOL    HW112762   1.915   4.904   3.536  0.0328  0.3145  0.1163
 4064SOL    HW212763   2.016   4.967   3.443  0.7180 -0.2759  0.4458
 4065SOL     OW12764   5.308   6.502   1.735  0.2249 -0.2137  0.5845
 4065SOL    HW112765   5.253   6.549   1.798  2.5156  1.3716  1.5562
 4065SOL    HW212766   5.390   6.487   1.782  0.7568 -2.2944 -0.8611
 4066SOL     OW12767   2.569   4.626   6.771 -0.3724  0.2256 -0.0326
 4066SOL    HW112768   2.656   4.629   6.812 -0.6489 -0.0036  0.5714
 4066SOL    HW212769   2.510   4.666   6.835 -0.8575 -0.4083 -0.0751
 4067SOL     OW12770   1.789   4.524   4.067 -0.0291 -0.2441 -0.2576
 4067SOL    HW112771   1.829   4.501   3.983 -1.6433 -0.0089 -1.1382
 4067SOL    HW212772   1.796   4.444   4.119 -0.2851 -0.8777 -1.1571
 4068SOL     OW12773   0.013   2.015   4.137  0.6794 -0.2906 -0.3411
 4068SOL    HW112774  -0.009   2.069   4.061  1.7095 -0.1799 -0.5791
 4068SOL    HW212775   0.037   2.078   4.205  0.5562 -0.4084 -0.1893
 4069SOL     OW12776   1.503   2.382   3.840  0.2276  0.1293  0.3218
 4069SOL    HW112777   1.530   2.459   3.789  1.5899  0.3428  1.3144
 4069SOL    HW212778   1.453   2.419   3.913  2.0957  0.2415  1.5963
 4070SOL     OW12779   1.022   6.350   5.679 -0.0831  0.8330  0.1543
 4070SOL    HW112780   0.935   6.344   5.718  0.0358  0.9749  0.4444
 4070SOL    HW212781   1.078   6.384   5.749  0.1524  0.9963 -0.1069
 4071SOL     OW12782   4.153   1.913   0.012  0.1138 -0.1588  0.7229
 4071SOL    HW112783   4.178   1.825   0.038  0.2941 -0.4015 -0.2479
 4071SOL    HW212784   4.148   1.962   0.094  0.7309 -0.8852  1.2030
 4072SOL     OW12785   5.661   4.744   5.172  0.3964 -0.0210 -0.0879
 4072SOL    HW112786   5.600   4.714   5.106 -0.9515  0.6674  0.8076
 4072SOL    HW212787   5.741   4.765   5.123 -0.3390 -0.1431 -1.3815
 4073SOL     OW12788   6.845   3.199   4.495 -0.0986  0.2377  0.7021
 4073SOL    HW112789   6.788   3.252   4.549 -0.5814  0.7950 -0.3196
 4073SOL    HW212790   6.931   3.204   4.538 -0.6087  0.1079  1.7624
 4074SOL     OW12791   0.119   0.238   2.209 -0.2792 -0.4406  0.4403
 4074SOL    HW112792   0.062   0.219   2.283 -0.8117 -0.1662  0.1009
 4074SOL    HW212793   0.082   0.186   2.137 -0.2469 -0.0678  0.1561
 4075SOL     OW12794   4.534   6.695   1.293  0.1550  0.1494  0.7142
 4075SOL    HW112795   4.481   6.667   1.368  0.9332 -0.1008  1.1814
 4075SOL    HW212796   4.470   6.727   1.229 -0.5246  0.2571  1.4376
 4076SOL     OW12797   0.012   4.110   1.697  0.1092  0.0435 -0.7526
 4076SOL    HW112798  -0.012   4.120   1.605  0.9598 -0.3801 -1.0321
 4076SOL    HW212799  -0.047   4.042   1.730 -0.6341  0.6492 -0.8046
 4077SOL     OW12800   4.071   2.012   7.215  0.1220  0.8360 -0.5124
 4077SOL    HW112801   4.096   1.999   7.306  1.5228  0.0805 -0.9867
 4077SOL    HW212802   3.983   1.974   7.209  1.1364 -1.8012 -0.1028
 4078SOL     OW12803   0.325   3.817   1.950 -0.3990  0.6816 -0.1619
 4078SOL    HW112804   0.230   3.812   1.958 -0.6043  0.1328 -2.3466
 4078SOL    HW212805   0.358   3.748   2.007 -1.3472  0.4388  0.1057
 4079SOL     OW12806   0.287   0.260   2.537 -0.2335 -0.0200  0.2149
 4079SOL    HW112807   0.222   0.329   2.530 -0.7945 -0.4727  0.7915
 4079SOL    HW212808   0.249   0.198   2.599  1.5790  0.6500  2.0965
 4080SOL     OW12809   1.427   2.867   6.576  0.5480 -0.1894  0.1711
 4080SOL    HW112810   1.364   2.843   6.509 -0.5450  0.6789  0.8475
 4080SOL    HW212811   1.456   2.955   6.553  0.6361 -0.1312  0.4880
 4081SOL     OW12812   4.305   1.678   0.116  0.0880  0.3342  0.3298
 4081SOL    HW112813   4.278   1.714   0.200  0.3605 -0.9156  0.9904
 4081SOL    HW212814   4.391   1.717   0.099  0.5772 -0.2971  1.2434
 4082SOL     OW12815   7.432   4.132   6.116 -0.2543  0.0270  0.1123
 4082SOL    HW112816   7.466   4.181   6.042  0.0782 -1.0104 -0.4420
 4082SOL    HW212817   7.447   4.189   6.192  2.2587 -0.1584 -0.1633
 4083SOL     OW12818   7.149   0.425   5.654 -0.1054 -0.3832 -0.0548
 4083SOL    HW112819   7.125   0.365   5.583 -0.9022 -0.5515  0.3486
 4083SOL    HW212820   7.233   0.391   5.686 -0.1233 -0.7618 -0.3985
 4084SOL     OW12821   1.635   4.910   6.429 -0.3080  0.0912  0.0067
 4084SOL    HW112822   1.564   4.849   6.449  0.4326 -0.2387  1.8837
 4084SOL    HW212823   1.618   4.939   6.340 -2.6867 -0.0975  0.3408
 4085SOL     OW12824   5.584   6.852   1.652 -0.2375 -0.4006  0.2411
 4085SOL    HW112825   5.639   6.812   1.719  0.6698  1.0488  0.4044
 4085SOL    HW212826   5.561   6.938   1.688 -0.1992  0.1806 -1.0530
 4086SOL     OW12827   3.330   7.379   5.368  0.5341  0.2980 -0.4595
 4086SOL    HW112828   3.368   7.435   5.435 -1.6501 -1.0355  2.1126
 4086SOL    HW212829   3.358   7.290   5.392  0.1054 -0.1787 -1.6249
 4087SOL     OW12830   5.924   7.171   4.935  1.0522  0.6797  0.4333
 4087SOL    HW112831   5.855   7.236   4.950  1.8869  1.2735  1.8110
 4087SOL    HW212832   5.992   7.192   4.998  1.5968 -1.1909  0.5429
 4088SOL     OW12833   1.982   2.678   0.337 -0.2742 -1.0343 -0.0710
 4088SOL    HW112834   1.943   2.598   0.371 -1.4197 -0.8050 -0.8072
 4088SOL    HW212835   1.918   2.747   0.357  0.4659 -0.3804  0.1021
 4089SOL     OW12836   2.358   3.986   2.214 -0.1120 -0.0660 -0.4540
 4089SOL    HW112837   2.279   4.020   2.173 -0.7461 -1.9449 -0.8708
 4089SOL    HW212838   2.429   4.014   2.156 -0.5374  0.9311 -0.5149
 4090SOL     OW12839   3.117   4.510   4.983 -0.1086  0.4025 -0.6418
 4090SOL    HW112840   3.153   4.519   4.895  0.0961  2.5795 -0.3954
 4090SOL    HW212841   3.193   4.490   5.038  0.5277  3.1300 -0.4040
 4091SOL     OW12842   4.619   4.598   6.124 -0.4645  0.1625  0.0274
 4091SOL    HW112843   4.668   4.677   6.149 -1.3725  0.5473  0.6433
 4091SOL    HW212844   4.530   4.615   6.155 -1.1163 -0.3059 -1.5375
 4092SOL     OW12845   2.729   6.327   4.473 -0.4370 -0.1393 -0.3274
 4092SOL    HW112846   2.774   6.394   4.525  0.9501 -1.7330  0.5881
 4092SOL    HW212847   2.678   6.277   4.537  0.0185 -1.1177 -0.7159
 4093SOL     OW12848   6.015   6.067   2.650  0.4463 -0.0564  0.4371
 4093SOL    HW112849   6.095   6.016   2.640  0.6675  0.3650  0.0564
 4093SOL    HW212850   5.950   6.004   2.681  0.2040 -1.0111 -1.8556
 4094SOL     OW12851   3.823   3.853   5.219  0.0362 -0.0465  0.0356
 4094SOL    HW112852   3.774   3.933   5.201  1.1711  0.3483 -1.5261
 4094SOL    HW212853   3.914   3.881   5.223  0.6582 -1.4511 -2.2308
 4095SOL     OW12854   4.679   1.611   2.346 -0.0136  0.3888  1.1622
 4095SOL    HW112855   4.622   1.680   2.314  0.8369  1.3256  1.6156
 4095SOL    HW212856   4.671   1.613   2.441 -2.3080 -2.2002  1.1597
 4096SOL     OW12857   6.784   2.219   2.322  0.1076  0.5920  0.7439
 4096SOL    HW112858   6.714   2.160   2.296 -1.1539  1.7376  1.4421
 4096SOL    HW212859   6.864   2.176   2.291 -0.9245 -0.4827 -0.5503
 4097SOL     OW12860   4.106   5.249   4.922  0.0571 -0.0403  0.3098
 4097SOL    HW112861   4.042   5.192   4.878  0.0152 -0.7824  1.2799
 4097SOL    HW212862   4.114   5.325   4.865 -1.5730 -0.0023  0.0718
 4098SOL     OW12863   7.004   4.857   1.036 -0.2453 -0.2641  0.2936
 4098SOL    HW112864   7.079   4.834   1.091 -1.3311 -1.2443  1.4250
 4098SOL    HW212865   7.043   4.894   0.957  1.4021  0.1037  1.2235
 4099SOL     OW12866   0.978   1.439   4.624  0.3780  0.6164 -0.1058
 4099SOL    HW112867   0.917   1.505   4.656  0.1560  0.1451  0.4729
 4099SOL    HW212868   1.062   1.484   4.620  0.1296  1.0769 -0.2179
 4100SOL     OW12869   3.080   4.273   6.753 -0.8318  0.2957 -0.1425
 4100SOL    HW112870   3.067   4.368   6.754  0.1994  0.4668 -0.8634
 4100SOL    HW212871   3.110   4.252   6.842 -0.8858  0.6704 -0.0350
 4101SOL     OW12872   2.370   6.105   4.014 -0.0875 -0.2402  0.0075
 4101SOL    HW112873   2.463   6.100   4.038  0.4009  0.6113 -1.5505
 4101SOL    HW212874   2.370   6.105   3.919 -1.7716 -1.1007 -0.0262
 4102SOL     OW12875   0.481   0.744   4.375  0.0921 -0.1875 -0.5628
 4102SOL    HW112876   0.552   0.736   4.439  0.6129 -1.9886 -1.2972
 4102SOL    HW212877   0.524   0.771   4.294 -0.5063  1.6560 -0.3013
 4103SOL     OW12878   2.488   1.672   7.367 -0.7510 -0.7870 -0.3693
 4103SOL    HW112879   2.405   1.681   7.415 -0.8624  0.0084 -0.6952
 4103SOL    HW212880   2.462   1.659   7.276 -0.5182 -0.0020 -0.5550
 4104SOL     OW12881   4.763   3.923   3.378  0.1895  0.2729 -0.1449
 4104SOL    HW112882   4.767   4.006   3.331 -1.0833 -1.2535 -3.2882
 4104SOL    HW212883   4.683   3.882   3.345  0.6665 -2.1129  1.4488
 4105SOL     OW12884   4.580   1.777   0.150 -0.4507 -0.1965 -0.3920
 4105SOL    HW112885   4.600   1.785   0.244 -0.2909  0.6966 -0.4979
 4105SOL    HW212886   4.536   1.859   0.128 -0.2360 -0.2852 -1.1597
 4106SOL     OW12887   3.071   0.552   5.318 -0.3030 -0.2566  0.6190
 4106SOL    HW112888   3.020   0.471   5.310 -0.0555 -0.2544 -1.4890
 4106SOL    HW212889   3.160   0.526   5.294  0.1759  0.2632  1.8031
 4107SOL     OW12890   3.087   5.764   6.030 -0.3325  0.1714 -0.3593
 4107SOL    HW112891   3.073   5.777   5.936 -0.3315  1.1609 -0.2303
 4107SOL    HW212892   3.182   5.776   6.041 -0.4976  1.2691 -0.0573
 4108SOL     OW12893   0.995   7.269   5.709  0.2148 -0.1876 -0.0709
 4108SOL    HW112894   0.966   7.220   5.632  2.1042 -1.5432 -0.0140
 4108SOL    HW212895   0.940   7.347   5.711 -1.4392 -1.2477 -1.4458
 4109SOL     OW12896   4.167   2.775   2.734 -0.2960  0.2188  0.2313
 4109SOL    HW112897   4.087   2.795   2.782 -1.1918  0.3388 -1.2488
 4109SOL    HW212898   4.151   2.808   2.646 -0.3914 -3.6840 -1.3990
 4110SOL     OW12899   7.270   3.199   4.206  0.1202 -0.0785 -0.4056
 4110SOL    HW112900   7.297   3.222   4.118 -0.5135  0.5686 -0.4347
 4110SOL    HW212901   7.335   3.241   4.263  1.4460 -1.7493 -0.5742
 4111SOL     OW12902   5.497   5.217   6.038 -0.0302 -0.6410  0.2768
 4111SOL    HW112903   5.535   5.189   6.120 -0.3651 -1.3213  0.2050
 4111SOL    HW212904   5.571   5.226   5.978  0.0030 -2.4300 -0.0071
 4112SOL     OW12905   0.620   3.026   4.466 -0.3844 -0.6033 -0.0407
 4112SOL    HW112906   0.682   2.964   4.504 -0.7233 -1.0797 -0.2567
 4112SOL    HW212907   0.668   3.109   4.463  0.3567 -1.0364 -0.5040
 4113SOL     OW12908   6.759   5.498   2.071 -0.1508 -0.4024  0.2203
 4113SOL    HW112909   6.760   5.481   2.165 -1.3960 -0.5729  0.2234
 4113SOL    HW212910   6.850   5.519   2.049 -0.2283  1.9378  1.8571
 4114SOL     OW12911   3.746   2.807   3.251  0.4060 -0.3331 -0.1360
 4114SOL    HW112912   3.699   2.841   3.175  0.1692  1.0069  0.5932
 4114SOL    HW212913   3.720   2.715   3.256  1.4194 -0.8374 -2.4298
 4115SOL     OW12914   0.657   7.089   3.537 -0.3719  0.4247 -0.0827
 4115SOL    HW112915   0.698   7.170   3.567 -1.4930  1.1919 -0.5656
 4115SOL    HW212916   0.578   7.081   3.590  0.4237 -1.1113  0.9329
 4116SOL     OW12917   1.999   0.650   2.437  0.1837 -0.3205 -0.1734
 4116SOL    HW112918   2.001   0.746   2.439  2.1906 -0.3264  1.1819
 4116SOL    HW212919   2.042   0.627   2.354 -0.4381 -0.0642 -0.5752
 4117SOL     OW12920   3.598   2.542   4.468 -0.5147 -0.0612 -0.4171
 4117SOL    HW112921   3.577   2.521   4.559 -0.2305 -0.2033 -0.3861
 4117SOL    HW212922   3.584   2.637   4.462  0.4921  0.1278  0.0499
 4118SOL     OW12923   4.580   2.875   2.360  0.6536 -0.8644 -0.5080
 4118SOL    HW112924   4.618   2.788   2.364  2.4261 -0.1036  0.5375
 4118SOL    HW212925   4.557   2.896   2.450 -0.7089 -0.6143 -0.8842
 4119SOL     OW12926   7.395   7.174   5.671 -0.3445  0.2505  0.3733
 4119SOL    HW112927   7.464   7.117   5.637 -0.4815 -0.9849  2.0410
 4119SOL    HW212928   7.442   7.244   5.717 -0.1577 -0.3205  1.0817
 4120SOL     OW12929   7.251   6.511   1.351 -0.1037  0.3973 -0.2789
 4120SOL    HW112930   7.207   6.592   1.377 -1.2768 -0.1593 -0.4644
 4120SOL    HW212931   7.328   6.507   1.407  0.4169  2.0451 -0.8442
 4121SOL     OW12932   5.928   7.068   5.265 -0.0166  0.0238 -0.2957
 4121SOL    HW112933   6.003   7.086   5.321 -1.1959 -0.3646  1.4685
 4121SOL    HW212934   5.886   7.152   5.253  0.4568  0.1756 -0.9669
 4122SOL     OW12935   3.680   2.019   0.270  0.1214  0.8306 -0.4832
 4122SOL    HW112936   3.642   1.940   0.309 -0.6993  2.5191  2.3719
 4122SOL    HW212937   3.765   2.028   0.313  1.0648  0.5402 -2.2014
 4123SOL     OW12938   3.852   1.871   5.326  0.1283 -0.3039 -0.4791
 4123SOL    HW112939   3.837   1.859   5.419  0.2543  0.3244 -0.3701
 4123SOL    HW212940   3.920   1.808   5.303  1.4943  0.8366  0.2705
 4124SOL     OW12941   0.324   0.399   2.260  0.4334 -0.6798 -0.2633
 4124SOL    HW112942   0.244   0.352   2.236 -1.1352  1.0205  1.2926
 4124SOL    HW212943   0.353   0.356   2.341 -0.2604  0.1485  0.4430
 4125SOL     OW12944   2.632   6.726   0.587  0.3568 -0.2023  0.2410
 4125SOL    HW112945   2.588   6.701   0.669 -0.3240  1.5644  0.4589
 4125SOL    HW212946   2.725   6.730   0.610  0.2038 -0.0189  0.8453
 4126SOL     OW12947   5.812   7.078   6.861 -0.1553  0.1628 -0.1512
 4126SOL    HW112948   5.848   7.167   6.850  1.2602 -0.2889  0.5547
 4126SOL    HW212949   5.863   7.024   6.800 -0.4440 -0.2995  0.0186
 4127SOL     OW12950   4.888   5.055   2.364 -0.2806 -0.1322 -0.0290
 4127SOL    HW112951   4.936   4.974   2.381 -1.3805 -0.5616  1.2166
 4127SOL    HW212952   4.929   5.120   2.421  0.3564  0.1098 -0.7482
 4128SOL     OW12953   7.375   0.872   1.281 -0.0587  0.2228 -0.3111
 4128SOL    HW112954   7.456   0.829   1.255 -0.2453 -0.8703  0.8001
 4128SOL    HW212955   7.364   0.848   1.373 -1.3276  0.8605 -0.2730
 4129SOL     OW12956   7.082   0.674   1.184 -0.1424 -0.1550 -0.3611
 4129SOL    HW112957   7.018   0.730   1.227  2.3323  2.0418  0.7181
 4129SOL    HW212958   7.130   0.632   1.256  0.9732 -0.1250 -1.0582
 4130SOL     OW12959   4.961   4.392   7.094  0.2099 -0.3811 -0.0768
 4130SOL    HW112960   4.993   4.332   7.161 -1.1320 -1.5642 -0.4481
 4130SOL    HW212961   4.867   4.400   7.111 -0.1720 -0.7212 -1.7892
 4131SOL     OW12962   1.425   4.765   5.390  0.2401  0.5954  0.0469
 4131SOL    HW112963   1.374   4.821   5.449 -0.1295  0.8334 -0.4901
 4131SOL    HW212964   1.377   4.768   5.307 -0.0489 -0.8811  0.1198
 4132SOL     OW12965   4.229   2.232   3.036 -0.1318  0.0664  0.2569
 4132SOL    HW112966   4.314   2.273   3.025 -0.1484 -0.2397 -1.2564
 4132SOL    HW212967   4.201   2.257   3.124  0.8524  1.3996  0.2167
 4133SOL     OW12968   3.446   5.638   2.380  0.0710 -0.1251 -0.3117
 4133SOL    HW112969   3.426   5.648   2.287  0.5477 -0.0231 -0.4046
 4133SOL    HW212970   3.401   5.711   2.422 -2.1518 -1.4977 -0.1557
 4134SOL     OW12971   5.866   4.606   0.575  0.3742  0.4530 -0.4102
 4134SOL    HW112972   5.901   4.519   0.595 -0.6853  0.2476  0.6563
 4134SOL    HW212973   5.872   4.654   0.657 -0.1959  0.9879 -0.6702
 4135SOL     OW12974   2.932   1.526   1.606  0.3055 -0.0166 -0.3323
 4135SOL    HW112975   3.025   1.509   1.617  0.2114  0.4982  1.5360
 4135SOL    HW212976   2.927   1.620   1.586  0.1069  0.2891  1.1075
 4136SOL     OW12977   2.615   7.256   3.220 -0.2260  0.2766  0.0750
 4136SOL    HW112978   2.617   7.347   3.249 -0.7985 -0.1516  1.5445
 4136SOL    HW212979   2.695   7.218   3.256 -0.0250  0.1574 -0.4764
 4137SOL     OW12980   1.711   4.775   5.297  0.1648  0.8191 -0.5596
 4137SOL    HW112981   1.714   4.733   5.211 -1.3779 -1.5678  0.4430
 4137SOL    HW212982   1.618   4.777   5.320  0.6792 -1.5261  2.2983
 4138SOL     OW12983   7.006   1.032   7.365 -0.0936 -0.0534 -1.1589
 4138SOL    HW112984   7.030   1.035   7.457 -0.1516 -0.5494 -1.1254
 4138SOL    HW212985   6.940   1.101   7.355 -1.1982 -0.9873 -0.4967
 4139SOL     OW12986   5.746   6.432   5.522 -0.0869 -0.3860 -0.1808
 4139SOL    HW112987   5.828   6.482   5.517 -0.7720  0.7550 -0.4014
 4139SOL    HW212988   5.697   6.475   5.592 -0.5044 -1.0537 -0.0656
 4140SOL     OW12989   1.371   3.193   6.051  0.0612  0.3153  0.5097
 4140SOL    HW112990   1.388   3.130   5.981 -2.1668 -0.9206  0.9820
 4140SOL    HW212991   1.430   3.266   6.033  2.8723 -1.9203 -0.0041
 4141SOL     OW12992   6.256   0.114   0.189 -0.1109 -0.5584  0.1062
 4141SOL    HW112993   6.302   0.119   0.106 -0.1328  0.5579  0.1417
 4141SOL    HW212994   6.315   0.154   0.252 -0.5803 -0.3073  0.3955
 4142SOL     OW12995   0.268   4.574   3.974  0.8825  0.1762  0.4037
 4142SOL    HW112996   0.291   4.653   3.925  0.5810  0.6921  1.0847
 4142SOL    HW212997   0.173   4.577   3.981  0.9535  0.3612  1.4248
 4143SOL     OW12998   4.350   3.185   2.739 -0.4539 -0.5953 -0.0749
 4143SOL    HW112999   4.341   3.091   2.723 -0.8685 -0.4362 -0.8127
 4143SOL    HW213000   4.420   3.191   2.804  1.3682 -1.2756 -1.8682
 4144SOL     OW13001   1.285   5.397   7.194 -0.4546 -1.1622  0.4203
 4144SOL    HW113002   1.231   5.323   7.222  0.6995 -2.1273  0.2092
 4144SOL    HW213003   1.287   5.390   7.098 -0.5846 -0.6717  0.3797
 4145SOL     OW13004   2.956   4.522   6.154  0.4421  0.1230  0.7885
 4145SOL    HW113005   2.908   4.440   6.156  0.6888 -0.1057 -1.2675
 4145SOL    HW213006   3.046   4.497   6.178  0.5660 -0.2639 -0.0451
 4146SOL     OW13007   6.421   5.141   1.738  0.1326 -0.3777  0.9206
 4146SOL    HW113008   6.340   5.124   1.691  1.1976 -0.5061 -0.9858
 4146SOL    HW213009   6.490   5.131   1.672  1.5789  1.4327  2.0439
 4147SOL     OW13010   7.194   7.159   3.454  0.3823  0.0658  0.2365
 4147SOL    HW113011   7.126   7.215   3.417  0.7638  0.0632 -0.4855
 4147SOL    HW213012   7.205   7.089   3.390  0.5153 -0.3685  0.7231
 4148SOL     OW13013   1.022   0.110   2.466 -0.2819 -0.0103 -0.3004
 4148SOL    HW113014   1.014   0.016   2.448 -0.3371  0.0882 -0.7828
 4148SOL    HW213015   1.097   0.139   2.415 -0.4449  0.2709 -0.3827
 4149SOL     OW13016   4.165   2.126   3.767 -0.1130 -0.0530  0.4145
 4149SOL    HW113017   4.170   2.212   3.725 -1.0207 -0.9663 -1.6788
 4149SOL    HW213018   4.197   2.065   3.701 -0.0422 -1.4070  1.6481
 4150SOL     OW13019   0.469   5.613   7.007 -0.1776  0.2226 -0.2106
 4150SOL    HW113020   0.535   5.545   6.993  0.5811  0.5605  1.3923
 4150SOL    HW213021   0.401   5.571   7.059 -0.4924  0.2742 -0.5768
 4151SOL     OW13022   5.167   5.847   6.652  0.4127 -0.4151  0.2694
 4151SOL    HW113023   5.193   5.935   6.625 -1.5011 -0.0604 -0.6090
 4151SOL    HW213024   5.123   5.860   6.736  0.3010 -0.5628  0.2344
 4152SOL     OW13025   3.921   6.215   6.609 -0.2086 -0.1384  0.2231
 4152SOL    HW113026   3.942   6.230   6.701 -0.1560 -0.5864  0.2862
 4152SOL    HW213027   3.999   6.172   6.574  0.2945  1.1595 -0.3460
 4153SOL     OW13028   6.071   6.192   3.450 -0.2949  0.2929  0.8086
 4153SOL    HW113029   5.998   6.239   3.409 -0.9436 -0.6027  0.9136
 4153SOL    HW213030   6.149   6.220   3.401 -0.9300 -0.0535 -0.4336
 4154SOL     OW13031   4.590   2.343   6.093 -0.3597 -0.0124 -0.2522
 4154SOL    HW113032   4.542   2.316   6.015  0.4321 -1.6904 -0.1932
 4154SOL    HW213033   4.677   2.365   6.061 -0.1338 -0.3730  0.1166
 4155SOL     OW13034   3.626   4.928   6.087 -0.2775  0.3559 -0.4323
 4155SOL    HW113035   3.601   4.983   6.014 -1.3708  0.5100  0.0474
 4155SOL    HW213036   3.663   4.850   6.047 -1.3070  0.2296 -1.1559
 4156SOL     OW13037   0.164   6.191   3.759  0.1966  0.4448 -0.2290
 4156SOL    HW113038   0.195   6.102   3.741  0.7140  0.0185  2.3752
 4156SOL    HW213039   0.072   6.190   3.734 -0.2255 -1.3308  1.1889
 4157SOL     OW13040   6.719   3.259   1.633  0.8533  0.0228  0.6912
 4157SOL    HW113041   6.700   3.299   1.718  1.1538 -1.8111  1.6603
 4157SOL    HW213042   6.788   3.195   1.651  0.7950 -0.5361 -0.9168
 4158SOL     OW13043   3.284   5.443   3.392 -0.0740  0.0428 -0.3359
 4158SOL    HW113044   3.372   5.405   3.398 -0.1158  0.0518  0.6105
 4158SOL    HW213045   3.241   5.415   3.473 -0.5772  0.9321 -0.2797
 4159SOL     OW13046   1.432   7.158   3.031 -0.5363 -0.3416  0.3599
 4159SOL    HW113047   1.408   7.189   2.944  1.5073  0.2741 -0.0566
 4159SOL    HW213048   1.493   7.086   3.014  2.0356  1.4799  1.1264
 4160SOL     OW13049   7.429   0.738   4.468 -0.7717  0.0922  0.5983
 4160SOL    HW113050   7.489   0.664   4.481  0.1971  0.1065 -2.8112
 4160SOL    HW213051   7.349   0.712   4.514  0.6150 -1.5588  2.2401
 4161SOL     OW13052   6.944   1.181   6.270  0.1467 -0.2230  0.9755
 4161SOL    HW113053   7.005   1.175   6.343  0.3155 -1.0972  0.7661
 4161SOL    HW213054   6.861   1.148   6.306 -0.2375  1.0133  1.2763
 4162SOL     OW13055   3.705   3.070   0.111 -0.3759  0.0128 -0.4677
 4162SOL    HW113056   3.728   3.145   0.055  0.9114 -0.5145 -0.6936
 4162SOL    HW213057   3.770   3.003   0.087 -1.5508 -1.2038 -0.3301
 4163SOL     OW13058   2.486   1.397   7.420  0.2596 -0.4430 -0.4179
 4163SOL    HW113059   2.507   1.486   7.393 -2.0374 -0.3999 -2.4152
 4163SOL    HW213060   2.456   1.354   7.340 -1.9005 -1.9783  1.0900
 4164SOL     OW13061   6.580   5.621   1.646 -0.0471 -0.1599 -1.0054
 4164SOL    HW113062   6.495   5.661   1.660 -0.3313 -1.0849  0.1069
 4164SOL    HW213063   6.561   5.528   1.630  0.7685 -0.5014 -0.1123
 4165SOL     OW13064   0.760   4.361   3.694 -0.5553 -0.2539  0.4297
 4165SOL    HW113065   0.802   4.447   3.692  0.1885 -0.5521  1.8644
 4165SOL    HW213066   0.690   4.369   3.758 -2.2891  0.0115 -1.3857
 4166SOL     OW13067   4.310   7.128   4.078  0.9861 -0.0463 -0.0801
 4166SOL    HW113068   4.402   7.143   4.099  2.2574 -3.4922 -2.4015
 4166SOL    HW213069   4.288   7.198   4.017  1.5923  1.5776  1.4838
 4167SOL     OW13070   4.594   1.608   6.695  0.0327  0.3157 -0.0145
 4167SOL    HW113071   4.526   1.549   6.661  1.7647 -1.2146 -1.0528
 4167SOL    HW213072   4.622   1.658   6.619 -0.4608  1.5431  0.5841
 4168SOL     OW13073   4.470   0.719   0.861 -0.1199 -0.3938  0.0372
 4168SOL    HW113074   4.382   0.746   0.833 -0.5370 -0.5606  1.1427
 4168SOL    HW213075   4.468   0.727   0.956  0.8599 -1.0242  0.1203
 4169SOL     OW13076   0.313   0.283   1.632 -0.5364 -0.8141  0.5659
 4169SOL    HW113077   0.311   0.272   1.727 -1.3462 -0.7278  0.5678
 4169SOL    HW213078   0.221   0.278   1.606 -0.4044  0.0727 -0.1104
 4170SOL     OW13079   1.748   4.820   6.128 -0.5451 -0.0564 -0.1451
 4170SOL    HW113080   1.776   4.801   6.217  0.2583 -0.8306 -0.5450
 4170SOL    HW213081   1.655   4.840   6.135  0.0255  2.5965  1.2571
 4171SOL     OW13082   4.069   2.891   7.294  0.2409  0.5516  0.5927
 4171SOL    HW113083   4.115   2.827   7.348 -1.0639  0.9619  2.3106
 4171SOL    HW213084   4.100   2.875   7.205  0.7860 -1.7185  1.1225
 4172SOL     OW13085   1.435   4.605   3.085 -0.0441  0.0161  0.5777
 4172SOL    HW113086   1.527   4.630   3.087 -0.1794  0.8303 -1.1278
 4172SOL    HW213087   1.399   4.653   3.010 -1.3851 -1.8776 -0.0621
 4173SOL     OW13088   0.042   4.261   6.336 -0.4704  0.1918  0.4107
 4173SOL    HW113089   0.013   4.298   6.419 -0.4303 -2.9882  1.9785
 4173SOL    HW213090   0.137   4.253   6.344 -0.4971 -0.4112  0.1826
 4174SOL     OW13091   0.156   5.681   6.618  0.5558  1.2064  0.2725
 4174SOL    HW113092   0.200   5.624   6.555 -0.6192  0.5722 -0.0070
 4174SOL    HW213093   0.222   5.700   6.684  1.0321 -0.3755  0.2860
 4175SOL     OW13094   1.752   0.134   3.599 -0.1877  0.0998  0.5163
 4175SOL    HW113095   1.828   0.118   3.654  0.1104  0.3263  0.1766
 4175SOL    HW213096   1.764   0.075   3.524  0.4172  1.1817 -0.2612
 4176SOL     OW13097   2.235   5.489   2.867  0.1075  0.2851  0.4184
 4176SOL    HW113098   2.140   5.485   2.876  0.0839 -2.3246 -0.0472
 4176SOL    HW213099   2.269   5.455   2.950  0.8325  4.1634  1.8878
 4177SOL     OW13100   1.273   2.164   7.231  0.3415 -0.2206  1.1924
 4177SOL    HW113101   1.304   2.234   7.289  0.9983 -0.5153  1.2114
 4177SOL    HW213102   1.305   2.190   7.144 -1.2839  0.6061  0.8137
 4178SOL     OW13103   5.719   4.438   1.600  0.1978  0.1736  0.3039
 4178SOL    HW113104   5.653   4.375   1.571  0.2153 -1.1028  2.8367
 4178SOL    HW213105   5.672   4.521   1.607  0.2521  0.7324 -3.4404
 4179SOL     OW13106   6.546   5.256   4.069  0.4226  0.2334 -0.0559
 4179SOL    HW113107   6.516   5.223   4.154 -1.4597  2.1329  0.0845
 4179SOL    HW213108   6.542   5.180   4.011 -2.0068 -0.2790  0.6699
 4180SOL     OW13109   6.556   0.330   0.613 -0.1579  0.0816  0.3984
 4180SOL    HW113110   6.501   0.406   0.634  0.3577  0.0763  1.8990
 4180SOL    HW213111   6.569   0.286   0.697  2.3850  0.2414  0.1677
 4181SOL     OW13112   6.741   3.337   3.283 -0.3656  0.4417  0.2445
 4181SOL    HW113113   6.755   3.379   3.368  1.2512  1.1903 -0.3752
 4181SOL    HW213114   6.648   3.353   3.264 -0.8364  0.0303  1.9616
 4182SOL     OW13115   4.849   0.606   3.607 -0.3250  0.5976  0.1604
 4182SOL    HW113116   4.801   0.689   3.609 -1.4217 -0.0111  1.6020
 4182SOL    HW213117   4.926   0.623   3.554 -1.2067  2.1620 -0.6768
 4183SOL     OW13118   6.879   2.471   2.041  0.2394 -0.0520 -0.0417
 4183SOL    HW113119   6.833   2.388   2.056  1.5286 -1.1544 -1.8084
 4183SOL    HW213120   6.876   2.516   2.125 -1.0844 -1.5886  0.7785
 4184SOL     OW13121   6.525   0.814   5.632  0.3777  0.5415 -0.1285
 4184SOL    HW113122   6.615   0.784   5.641  0.5798 -0.1632 -3.4988
 4184SOL    HW213123   6.491   0.814   5.722  3.4969  0.2495  1.1713
 4185SOL     OW13124   6.562   3.384   2.909 -0.6835 -0.0149  0.0449
 4185SOL    HW113125   6.571   3.415   2.999 -0.7440  0.4034 -0.0918
 4185SOL    HW213126   6.468   3.388   2.891 -0.6717 -0.0943 -0.0374
 4186SOL     OW13127   3.104   4.534   3.261 -0.2051  0.5277  0.2611
 4186SOL    HW113128   3.077   4.520   3.352  1.7838 -1.9741  0.5862
 4186SOL    HW213129   3.103   4.446   3.222 -0.2702  1.4420 -1.9430
 4187SOL     OW13130   1.358   3.143   1.224 -0.0918 -0.5230  0.1860
 4187SOL    HW113131   1.412   3.072   1.188 -0.3015 -1.0198  0.8256
 4187SOL    HW213132   1.418   3.218   1.230  0.6006 -1.1305  1.1075
 4188SOL     OW13133   5.226   5.689   2.353  0.3175 -0.3133 -0.0035
 4188SOL    HW113134   5.231   5.724   2.264 -0.2828 -0.5123 -0.1232
 4188SOL    HW213135   5.251   5.763   2.409  0.0449  0.0171 -0.3082
 4189SOL     OW13136   3.934   5.204   4.627 -0.5978  0.2113 -0.5207
 4189SOL    HW113137   3.901   5.214   4.538  0.2085  1.4322 -0.7013
 4189SOL    HW213138   4.029   5.201   4.617 -0.5292 -0.4549  0.2367
 4190SOL     OW13139   0.629   2.093   5.232  0.2526 -0.0143 -0.3472
 4190SOL    HW113140   0.688   2.161   5.266  0.8639 -1.2331  1.1552
 4190SOL    HW213141   0.590   2.054   5.310 -1.2107 -0.4336 -1.2480
 4191SOL     OW13142   2.082   2.756   6.054 -0.3030 -0.1602 -0.0714
 4191SOL    HW113143   2.102   2.707   6.134 -1.3329 -0.0461  0.2732
 4191SOL    HW213144   2.063   2.688   5.989 -1.5070 -0.2355  0.3447
 4192SOL     OW13145   1.539   2.902   3.477 -0.1668  0.4448  0.1615
 4192SOL    HW113146   1.540   2.890   3.572  1.0792  1.5873  0.3338
 4192SOL    HW213147   1.613   2.851   3.445  0.5126  1.4669  0.0403
 4193SOL     OW13148   3.339   0.617   4.837 -0.1785  0.7248  0.0591
 4193SOL    HW113149   3.297   0.540   4.797  0.8029  0.4020 -0.3726
 4193SOL    HW213150   3.399   0.649   4.770  0.8670  0.6879  0.9558
 4194SOL     OW13151   5.508   5.985   3.578 -0.0212 -0.2266 -0.5376
 4194SOL    HW113152   5.425   6.021   3.608 -0.0365 -0.9112  0.2759
 4194SOL    HW213153   5.539   5.931   3.651  1.0549 -0.1198 -0.8918
 4195SOL     OW13154   3.724   3.069   4.772 -0.4176  0.0466  0.2204
 4195SOL    HW113155   3.721   3.100   4.863 -0.0835 -1.7140  0.8623
 4195SOL    HW213156   3.723   2.974   4.779 -1.2387 -0.1248 -1.6685
 4196SOL     OW13157   4.225   5.699   0.738 -0.0400  0.2062 -0.4447
 4196SOL    HW113158   4.221   5.611   0.701 -0.3488 -0.0407  0.1673
 4196SOL    HW213159   4.313   5.705   0.776  0.5124  0.6874 -1.7560
 4197SOL     OW13160   5.891   5.428   6.483  0.2781  0.3324  0.0284
 4197SOL    HW113161   5.861   5.409   6.572 -0.4171  2.4671  0.3042
 4197SOL    HW213162   5.895   5.342   6.441 -0.1987 -0.6473  1.8516
 4198SOL     OW13163   4.115   2.426   7.112 -0.1420  0.2999  0.2942
 4198SOL    HW113164   4.115   2.342   7.065  0.7042  0.4868 -0.0508
 4198SOL    HW213165   4.207   2.443   7.130 -0.3114  1.1503  0.3795
 4199SOL     OW13166   1.286   3.150   4.603  0.1052  0.4188  0.3839
 4199SOL    HW113167   1.230   3.128   4.528  1.8783 -0.2220 -0.8311
 4199SOL    HW213168   1.356   3.203   4.565  1.8101 -1.0683  1.2696
 4200SOL     OW13169   5.700   3.714   4.432  0.3519  0.1920 -0.6290
 4200SOL    HW113170   5.649   3.720   4.513  2.8546 -1.6990  1.2412
 4200SOL    HW213171   5.647   3.659   4.374 -0.6702  0.0553  0.4010
 4201SOL     OW13172   2.527   6.710   2.162  0.2734 -0.0939  0.1430
 4201SOL    HW113173   2.453   6.707   2.100 -0.7927  0.1143  1.3756
 4201SOL    HW213174   2.578   6.632   2.141 -0.7982 -0.7400 -0.1396
 4202SOL     OW13175   1.082   6.122   1.414  0.1068  0.9022  0.2298
 4202SOL    HW113176   1.178   6.123   1.417  0.0867  0.4439  1.5692
 4202SOL    HW213177   1.061   6.149   1.325  1.4488  2.3963  0.3244
 4203SOL     OW13178   6.628   1.323   0.775  0.0540 -0.2729 -0.7995
 4203SOL    HW113179   6.679   1.330   0.856  0.2992 -0.7025 -0.9124
 4203SOL    HW213180   6.551   1.272   0.800  0.2453 -0.6118 -0.8816
 4204SOL     OW13181   1.274   4.700   2.887 -0.0836  0.0095 -0.0412
 4204SOL    HW113182   1.250   4.610   2.906  0.0711  0.2434  1.3505
 4204SOL    HW213183   1.231   4.752   2.955 -0.0694  0.9730 -0.7492
 4205SOL     OW13184   6.404   2.950   2.970 -0.1075  0.4125 -0.2154
 4205SOL    HW113185   6.487   2.906   2.988  2.3749  4.5975 -0.1347
 4205SOL    HW213186   6.375   2.913   2.887  3.4613  0.7319 -1.7986
 4206SOL     OW13187   2.828   3.162   2.220 -0.0075  0.8044 -0.4498
 4206SOL    HW113188   2.911   3.118   2.206 -0.0025 -0.0501  1.7529
 4206SOL    HW213189   2.852   3.252   2.243  0.3813  0.4263  0.7049
 4207SOL     OW13190   0.327   6.010   3.999 -0.4883  0.2291 -0.0800
 4207SOL    HW113191   0.309   5.981   4.089  0.3267  0.8346  0.2900
 4207SOL    HW213192   0.259   6.075   3.981  0.5048  1.5848  0.8516
 4208SOL     OW13193   0.835   0.357   0.220  0.1993  0.2177  0.1532
 4208SOL    HW113194   0.846   0.263   0.233 -2.3111  0.0323  1.5004
 4208SOL    HW213195   0.890   0.398   0.286  1.0959 -0.2787 -0.2678
 4209SOL     OW13196   1.714   1.627   0.724  0.0057 -0.0292  0.1956
 4209SOL    HW113197   1.644   1.645   0.662  0.0456  0.3498  0.2538
 4209SOL    HW213198   1.738   1.536   0.708 -0.3104 -0.0786 -0.0129
 4210SOL     OW13199   6.927   2.912   5.641  0.3704 -0.5965  0.3617
 4210SOL    HW113200   6.920   3.006   5.620 -2.7100 -1.1231 -1.6931
 4210SOL    HW213201   6.958   2.872   5.560  1.6026 -1.4237  1.2059
 4211SOL     OW13202   6.418   6.347   0.623  0.0717  0.2991  0.5073
 4211SOL    HW113203   6.333   6.324   0.585 -0.7705  2.4996  0.9418
 4211SOL    HW213204   6.417   6.308   0.710  0.3003 -1.2429 -0.1501
 4212SOL     OW13205   6.241   3.532   6.481 -0.1561 -0.1426  0.3728
 4212SOL    HW113206   6.325   3.547   6.438 -0.8490  0.2228 -0.9073
 4212SOL    HW213207   6.208   3.620   6.502  0.9357 -0.3031  3.3383
 4213SOL     OW13208   7.162   0.140   7.242  0.1631 -0.1336 -0.3863
 4213SOL    HW113209   7.235   0.182   7.288 -0.7962 -1.4933  2.6863
 4213SOL    HW213210   7.193   0.052   7.222 -0.4083 -0.5319  0.4210
 4214SOL     OW13211   0.629   4.477   1.693 -0.3235  0.2300  0.2995
 4214SOL    HW113212   0.585   4.524   1.764 -0.2971  0.6856  0.0242
 4214SOL    HW213213   0.612   4.531   1.615  1.0605  0.6367  0.2547
 4215SOL     OW13214   2.183   0.281   1.716  0.3624  0.0401  0.0051
 4215SOL    HW113215   2.094   0.316   1.714  0.6358  0.9180  1.7352
 4215SOL    HW213216   2.224   0.316   1.636 -0.7128 -0.0796 -0.6198
 4216SOL     OW13217   0.603   6.516   4.354 -0.1654  0.1139  0.0314
 4216SOL    HW113218   0.694   6.497   4.330 -0.9498 -1.8606 -1.6297
 4216SOL    HW213219   0.589   6.607   4.326  0.8171 -0.1141 -1.3011
 4217SOL     OW13220   7.018   1.643   3.680  0.6864 -0.1444  0.1407
 4217SOL    HW113221   7.029   1.731   3.643  1.2851 -1.1164 -2.1904
 4217SOL    HW213222   7.101   1.625   3.723  0.8459  0.1594 -0.0345
 4218SOL     OW13223   7.369   0.119   2.664 -0.1226  0.3397  0.4426
 4218SOL    HW113224   7.397   0.042   2.714 -0.0537  0.0212 -0.0759
 4218SOL    HW213225   7.331   0.177   2.729 -0.8551 -0.4556  0.7462
 4219SOL     OW13226   5.435   4.899   1.816  0.7641 -0.3540 -0.0738
 4219SOL    HW113227   5.488   4.936   1.745  0.6436 -0.9207 -0.4688
 4219SOL    HW213228   5.440   4.964   1.886  0.8893  0.2141 -0.5987
 4220SOL     OW13229   3.837   4.861   4.579 -0.6131 -0.0079 -0.3809
 4220SOL    HW113230   3.797   4.860   4.666 -0.6781 -0.7142 -0.4121
 4220SOL    HW213231   3.864   4.951   4.567 -1.8358  0.4119 -0.1885
 4221SOL     OW13232   1.384   7.005   5.344  0.5863 -0.8448  0.8055
 4221SOL    HW113233   1.307   7.048   5.380  0.5383 -0.1205 -0.1210
 4221SOL    HW213234   1.387   6.920   5.388  0.0603 -0.3261  1.8575
 4222SOL     OW13235   1.507   3.948   3.662  0.4721  0.2599 -0.1910
 4222SOL    HW113236   1.474   3.998   3.736  0.4902  0.3519 -0.2452
 4222SOL    HW213237   1.483   3.857   3.681 -1.8779  0.5772 -1.3134
 4223SOL     OW13238   1.389   4.897   4.758  0.2692 -0.3365  0.1437
 4223SOL    HW113239   1.319   4.956   4.731  0.7542  0.8345  1.3222
 4223SOL    HW213240   1.455   4.955   4.797  1.0318 -1.6032  0.7838
 4224SOL     OW13241   5.965   4.512   5.263 -0.0092  0.1142  0.2306
 4224SOL    HW113242   5.972   4.470   5.349  1.4574  1.3678  0.7650
 4224SOL    HW213243   6.012   4.595   5.272 -0.9263  0.8827 -1.4243
 4225SOL     OW13244   2.194   6.071   1.423 -0.3189 -1.0100  0.1481
 4225SOL    HW113245   2.147   6.021   1.356  0.0731 -2.4695  0.9321
 4225SOL    HW213246   2.155   6.045   1.506 -0.3428  0.2777  0.5722
 4226SOL     OW13247   6.239   3.288   0.847 -0.4109  0.2619  0.2151
 4226SOL    HW113248   6.293   3.357   0.884 -1.2982  0.4075  1.2712
 4226SOL    HW213249   6.301   3.231   0.801  0.6585  0.3979  1.4347
 4227SOL     OW13250   7.142   1.105   3.080  0.2035  0.4591  0.3225
 4227SOL    HW113251   7.220   1.072   3.035 -0.2233  2.0807 -1.7504
 4227SOL    HW213252   7.069   1.076   3.026 -0.7971 -1.6468  2.6134
 4228SOL     OW13253   5.679   2.611   5.092  0.0225 -0.2722 -0.0166
 4228SOL    HW113254   5.739   2.567   5.031 -0.5791 -0.9453 -0.1269
 4228SOL    HW213255   5.612   2.546   5.112 -0.6933  0.4771  0.0886
 4229SOL     OW13256   0.474   5.741   4.835  0.0773  0.0833 -0.2220
 4229SOL    HW113257   0.561   5.702   4.842 -0.0774 -0.3682 -0.7620
 4229SOL    HW213258   0.445   5.752   4.926  1.0070  0.9594 -0.0078
 4230SOL     OW13259   2.597   4.592   4.272  0.3309 -0.3744  0.0519
 4230SOL    HW113260   2.692   4.583   4.281  0.6563  1.6444 -0.7642
 4230SOL    HW213261   2.580   4.571   4.180  0.0372 -0.4156  0.1147
 4231SOL     OW13262   3.783   5.264   5.817 -0.0662  0.0643 -0.3651
 4231SOL    HW113263   3.834   5.245   5.896 -0.6421 -0.3910 -0.0955
 4231SOL    HW213264   3.848   5.294   5.753  0.8077 -1.9638 -0.5256
 4232SOL     OW13265   1.968   7.377   6.221 -0.0029 -0.3397  0.0941
 4232SOL    HW113266   1.899   7.315   6.244 -0.5269 -1.0914 -3.0382
 4232SOL    HW213267   2.025   7.379   6.297 -1.9512 -1.8478  1.7066
 4233SOL     OW13268   7.038   0.273   2.289  0.2401  0.3881  0.2315
 4233SOL    HW113269   6.977   0.202   2.312  0.6135  0.1541  0.5042
 4233SOL    HW213270   7.115   0.228   2.255  0.9555  0.6041  1.5148
 4234SOL     OW13271   2.332   1.192   3.452 -0.2724  0.4318  0.1076
 4234SOL    HW113272   2.387   1.125   3.412 -0.4357 -0.2329  0.9581
 4234SOL    HW213273   2.391   1.266   3.466  0.7890 -0.7139  2.1671
 4235SOL     OW13274   0.901   0.454   7.017  0.0821  0.0032  0.1392
 4235SOL    HW113275   0.868   0.401   7.090 -0.1380  1.2519  0.9817
 4235SOL    HW213276   0.836   0.525   7.008 -0.1192 -0.3491 -1.5533
 4236SOL     OW13277   1.981   3.837   4.321 -0.2152  0.4707 -0.3841
 4236SOL    HW113278   2.061   3.836   4.373 -1.2423  1.9550  1.3616
 4236SOL    HW213279   1.958   3.745   4.309  0.3175  0.0620  1.4472
 4237SOL     OW13280   6.797   3.937   6.097  0.1891  0.1224 -0.0080
 4237SOL    HW113281   6.845   4.010   6.138  0.2103 -0.3378  0.8118
 4237SOL    HW213282   6.865   3.874   6.075  0.2316  0.5758 -1.2266
 4238SOL     OW13283   2.628   2.711   1.489  0.4087 -0.2642  0.0622
 4238SOL    HW113284   2.710   2.761   1.492 -0.8430  1.8131  1.3107
 4238SOL    HW213285   2.629   2.670   1.402  2.2834  0.5175 -0.3413
 4239SOL     OW13286   3.524   2.085   1.968  0.2094  0.0747 -0.0519
 4239SOL    HW113287   3.563   2.125   1.890 -1.4505 -0.6218 -1.3009
 4239SOL    HW213288   3.453   2.145   1.993 -0.1992 -0.4390  0.0375
 4240SOL     OW13289   2.089   5.508   3.459  0.3785 -0.3659  0.2572
 4240SOL    HW113290   2.075   5.578   3.523 -1.0169  0.5934 -1.0389
 4240SOL    HW213291   2.123   5.552   3.382  1.2198 -1.3965  0.0148
 4241SOL     OW13292   0.243   6.824   4.374 -0.1657  0.2024 -0.0104
 4241SOL    HW113293   0.191   6.829   4.294 -0.3561 -1.4524 -0.0280
 4241SOL    HW213294   0.202   6.886   4.433 -1.7514 -0.5314 -0.2813
 4242SOL     OW13295   5.783   0.808   4.319  0.3881  0.2972  0.0514
 4242SOL    HW113296   5.833   0.740   4.363 -1.4339 -0.5085  1.0019
 4242SOL    HW213297   5.820   0.890   4.352  0.7257 -0.2811  1.1469
 4243SOL     OW13298   3.279   7.289   5.759 -0.0553  0.6095 -0.3613
 4243SOL    HW113299   3.190   7.259   5.741  0.3648 -0.3893 -0.8492
 4243SOL    HW213300   3.325   7.211   5.789  0.3350  1.3878  1.1738
 4244SOL     OW13301   3.697   4.793   0.873  0.1670  0.1049 -0.3807
 4244SOL    HW113302   3.635   4.829   0.936  0.9432  0.7710  0.0066
 4244SOL    HW213303   3.717   4.865   0.814 -1.7076 -0.8806 -2.3667
 4245SOL     OW13304   4.074   6.942   6.952 -0.1185  0.1820  0.1069
 4245SOL    HW113305   4.060   7.021   7.003 -2.7082  2.3209 -3.5178
 4245SOL    HW213306   3.990   6.896   6.955  0.0315 -0.2215 -1.2133
 4246SOL     OW13307   6.071   3.037   3.688 -0.2362 -0.2294  0.4267
 4246SOL    HW113308   5.980   3.063   3.674 -0.2128  0.2530  1.1213
 4246SOL    HW213309   6.122   3.117   3.672  0.0174 -0.3531  0.6084
 4247SOL     OW13310   5.198   5.206   1.179  0.2452 -0.3893  0.7513
 4247SOL    HW113311   5.112   5.230   1.211 -1.0984 -1.7622 -1.5710
 4247SOL    HW213312   5.252   5.199   1.258 -1.8054  0.2778  2.2910
 4248SOL     OW13313   1.232   5.263   1.785 -0.2570 -0.4250  0.3565
 4248SOL    HW113314   1.204   5.327   1.719  1.1335 -1.5821 -1.4507
 4248SOL    HW213315   1.216   5.178   1.745  0.8209 -1.1756  1.4310
 4249SOL     OW13316   6.207   6.113   2.044 -0.7495  0.5518 -0.4477
 4249SOL    HW113317   6.258   6.185   2.009 -2.5130  1.9521 -0.2641
 4249SOL    HW213318   6.244   6.035   2.004  2.0840  1.3735  0.3650
 4250SOL     OW13319   1.421   2.042   6.660 -0.2426  1.0855  0.4815
 4250SOL    HW113320   1.345   2.085   6.622 -2.5104  1.5730  4.9130
 4250SOL    HW213321   1.400   1.949   6.657  0.7245  0.8882 -1.4479
 4251SOL     OW13322   3.325   6.332   7.290 -0.3557  0.6303  0.1588
 4251SOL    HW113323   3.305   6.405   7.233  0.8693  1.9047  1.2916
 4251SOL    HW213324   3.420   6.335   7.301 -0.3279 -0.8875  0.5599
 4252SOL     OW13325   7.074   2.716   3.606 -0.0136 -0.4422  0.4214
 4252SOL    HW113326   6.982   2.695   3.623 -0.2323 -0.1394 -0.3300
 4252SOL    HW213327   7.108   2.747   3.690 -0.1269 -2.1512  1.1365
 4253SOL     OW13328   1.618   3.985   0.576 -0.0431  0.2748 -0.8150
 4253SOL    HW113329   1.579   3.909   0.533 -0.2737  0.2605 -0.5807
 4253SOL    HW213330   1.713   3.973   0.564  0.0209 -0.8844  0.5961
 4254SOL     OW13331   6.822   2.077   3.521  0.1430 -0.4372  0.4108
 4254SOL    HW113332   6.730   2.099   3.505 -0.1272 -0.8229  1.3788
 4254SOL    HW213333   6.819   1.991   3.562  1.0226 -1.0455 -0.7604
 4255SOL     OW13334   0.394   3.719   3.656  0.6341  0.3070 -0.1590
 4255SOL    HW113335   0.323   3.742   3.716 -0.9563  0.9459 -2.1674
 4255SOL    HW213336   0.466   3.776   3.681 -0.8224  2.3425 -0.4026
 4256SOL     OW13337   3.191   6.032   2.448  0.3451 -0.1796 -0.0504
 4256SOL    HW113338   3.222   6.111   2.404 -0.6792 -0.7488 -1.9056
 4256SOL    HW213339   3.101   6.052   2.474  0.6519 -0.1597  1.0488
 4257SOL     OW13340   0.897   2.192   2.142 -0.9743  0.2704  0.3517
 4257SOL    HW113341   0.819   2.248   2.146 -1.9534 -0.9239 -0.9545
 4257SOL    HW213342   0.863   2.106   2.116  0.9348  0.1018 -1.8872
 4258SOL     OW13343   5.773   5.409   6.142 -0.0800 -0.2921 -0.0570
 4258SOL    HW113344   5.682   5.423   6.170 -0.0576 -3.1947  1.7838
 4258SOL    HW213345   5.767   5.397   6.047 -1.7081 -0.8966  0.0911
 4259SOL     OW13346   5.943   0.520   2.976  0.1891 -0.0763  0.8268
 4259SOL    HW113347   5.919   0.485   3.062  1.0402 -0.6629  0.8382
 4259SOL    HW213348   6.038   0.514   2.974  0.2800  1.2951  0.4038
 4260SOL     OW13349   6.717   2.458   2.906  0.3790 -0.9964  0.2134
 4260SOL    HW113350   6.705   2.382   2.848  0.2353 -0.8689  0.0745
 4260SOL    HW213351   6.647   2.518   2.881  0.8414 -0.5678 -0.0872
 4261SOL     OW13352   4.474   2.597   6.162  0.2556  0.0120  0.6972
 4261SOL    HW113353   4.497   2.623   6.251  2.3935  1.6263 -0.2308
 4261SOL    HW213354   4.518   2.512   6.150  0.2372 -0.0504  1.0509
 4262SOL     OW13355   0.165   5.230   3.494  0.0863 -0.0912 -0.6124
 4262SOL    HW113356   0.082   5.270   3.517  0.7796  1.3681 -0.5636
 4262SOL    HW213357   0.221   5.242   3.570  0.1562 -1.7068 -0.3632
 4263SOL     OW13358   3.920   1.117   0.658  0.4827  0.2229 -0.2727
 4263SOL    HW113359   3.913   1.130   0.563 -0.1764  1.8810 -0.0243
 4263SOL    HW213360   3.974   1.039   0.667  0.3606 -0.1104 -2.0189
 4264SOL     OW13361   4.359   4.864   3.137  0.1595  0.3347 -0.4008
 4264SOL    HW113362   4.280   4.812   3.149 -0.1828  0.8245 -0.5146
 4264SOL    HW213363   4.332   4.954   3.158  1.1410  0.2484  1.4115
 4265SOL     OW13364   2.054   1.273   0.826 -0.0029 -0.4246  0.3899
 4265SOL    HW113365   2.083   1.327   0.752 -1.8099 -0.5654 -0.4699
 4265SOL    HW213366   2.010   1.199   0.785 -0.6760 -0.7273  1.6177
 4266SOL     OW13367   2.690   4.800   4.493  0.2448  0.0529 -0.2613
 4266SOL    HW113368   2.602   4.796   4.532  0.7583  0.1901  0.9306
 4266SOL    HW213369   2.731   4.718   4.519  0.6352  0.1974 -0.4194
 4267SOL     OW13370   4.947   6.370   3.445  0.0766 -0.1233  0.1449
 4267SOL    HW113371   4.863   6.324   3.453  0.1818 -0.4120 -0.3209
 4267SOL    HW213372   4.982   6.340   3.361  0.5350  0.1813  0.2238
 4268SOL     OW13373   4.803   2.034   4.786 -0.2455 -0.8864  0.0761
 4268SOL    HW113374   4.863   2.041   4.711  0.6987 -2.6682  0.5926
 4268SOL    HW213375   4.859   2.039   4.863 -1.1668  0.5592  0.6928
 4269SOL     OW13376   3.238   1.923   6.212 -0.3585 -0.3371 -0.3866
 4269SOL    HW113377   3.278   1.889   6.132 -1.3552 -0.8743 -0.6814
 4269SOL    HW213378   3.209   1.845   6.260 -1.6174  0.0295 -0.5006
 4270SOL     OW13379   5.130   2.010   3.143 -0.0592 -0.1189 -0.7706
 4270SOL    HW113380   5.123   2.024   3.238  0.0366  0.2608 -0.8155
 4270SOL    HW213381   5.108   1.918   3.130  0.2592 -0.2589 -0.3419
 4271SOL     OW13382   1.103   3.771   5.816 -0.0462 -0.1909 -0.1417
 4271SOL    HW113383   1.110   3.717   5.737 -1.8167 -0.1428 -0.3503
 4271SOL    HW213384   1.069   3.711   5.883 -1.2618  0.4576 -0.1672
 4272SOL     OW13385   2.201   4.846   5.110 -0.2385 -0.2575 -0.1954
 4272SOL    HW113386   2.106   4.838   5.117 -0.4584 -0.9639 -2.8391
 4272SOL    HW213387   2.216   4.937   5.083  0.0731  0.5252  2.3910
 4273SOL     OW13388   4.390   4.852   2.650 -0.4065  0.3584 -0.1335
 4273SOL    HW113389   4.459   4.899   2.603  0.7189 -0.7360  0.3723
 4273SOL    HW213390   4.364   4.782   2.590  1.5799 -1.5279  1.0857
 4274SOL     OW13391   7.052   0.552   3.719  0.0157 -0.6319 -0.2733
 4274SOL    HW113392   7.067   0.514   3.632  0.0160 -1.0878 -0.0808
 4274SOL    HW213393   7.140   0.568   3.753  0.0565 -1.5242  0.0921
 4275SOL     OW13394   6.325   1.629   2.176 -0.0729 -0.4063 -0.8708
 4275SOL    HW113395   6.363   1.542   2.192  0.5720 -0.4051 -2.3029
 4275SOL    HW213396   6.396   1.680   2.137 -0.9087  0.2775 -1.5389
 4276SOL     OW13397   1.212   6.636   2.482  0.1559  0.4489 -0.4713
 4276SOL    HW113398   1.143   6.655   2.419  0.4553  0.4771 -0.7930
 4276SOL    HW213399   1.282   6.697   2.461 -0.2042  1.2896  0.6679
 4277SOL     OW13400   6.663   5.612   6.088  0.1643 -0.1804  0.2059
 4277SOL    HW113401   6.694   5.667   6.016  0.6838 -0.0386  0.5317
 4277SOL    HW213402   6.667   5.523   6.052  0.5360 -0.1221  0.0981
 4278SOL     OW13403   1.235   3.189   0.593 -0.2702 -0.0830  0.7377
 4278SOL    HW113404   1.159   3.170   0.538  1.0684  0.7481 -1.5322
 4278SOL    HW213405   1.298   3.119   0.573  0.7173  0.9241  0.2040
 4279SOL     OW13406   0.535   6.050   1.527 -0.2310 -0.4366 -0.7037
 4279SOL    HW113407   0.590   6.068   1.451  1.3468  1.7573  0.8387
 4279SOL    HW213408   0.456   6.009   1.490  2.1200 -3.3937 -3.0661
 4280SOL     OW13409   6.292   6.157   3.973 -0.2489  0.4154  0.2772
 4280SOL    HW113410   6.222   6.163   4.039  1.2443 -1.5501  2.2014
 4280SOL    HW213411   6.363   6.209   4.010 -0.1930  1.2884 -1.0141
 4281SOL     OW13412   5.981   0.449   2.293  0.0589  0.4949 -0.1213
 4281SOL    HW113413   5.952   0.526   2.342  0.3766  1.2283 -1.0653
 4281SOL    HW213414   6.076   0.445   2.308  0.2235  0.9659 -1.0016
 4282SOL     OW13415   6.967   7.030   5.022  0.1711  0.2581  0.1458
 4282SOL    HW113416   6.925   7.002   5.103 -1.9692 -1.7366 -1.4864
 4282SOL    HW213417   6.896   7.068   4.970  1.6995  2.5410 -0.4269
 4283SOL     OW13418   3.997   0.309   2.670 -0.1282  0.1813  0.3615
 4283SOL    HW113419   3.919   0.268   2.632  0.6076  0.5189 -1.6144
 4283SOL    HW213420   3.976   0.317   2.763 -1.4719 -1.9503  0.3294
 4284SOL     OW13421   1.447   5.668   6.751  0.2460  0.0188  0.0888
 4284SOL    HW113422   1.481   5.674   6.662  0.9048 -0.4136  0.3036
 4284SOL    HW213423   1.412   5.579   6.757  1.6611 -0.5302  0.7474
 4285SOL     OW13424   3.849   2.200   6.362 -0.2929  0.6683  0.5355
 4285SOL    HW113425   3.934   2.172   6.330 -0.6204  1.1589 -0.8564
 4285SOL    HW213426   3.868   2.269   6.425  0.3655 -0.0739  1.1718
 4286SOL     OW13427   4.887   0.465   3.067  0.4232 -0.0275 -0.0758
 4286SOL    HW113428   4.871   0.412   2.990  0.0355  0.5848 -0.4256
 4286SOL    HW213429   4.982   0.477   3.069  0.9311 -3.1062  1.6286
 4287SOL     OW13430   2.104   0.889   3.535  0.6404 -0.2893  0.4236
 4287SOL    HW113431   2.033   0.825   3.522  0.8107 -0.4926  0.4836
 4287SOL    HW213432   2.182   0.835   3.544  0.9136 -0.0383 -0.3745
 4288SOL     OW13433   4.693   4.413   3.061  0.1037  0.7147  0.4187
 4288SOL    HW113434   4.670   4.475   3.131  1.9944  1.1915  0.6717
 4288SOL    HW213435   4.690   4.327   3.103 -1.1368  0.7445  0.4330
 4289SOL     OW13436   6.105   3.486   0.264 -0.0114 -0.1061 -0.2487
 4289SOL    HW113437   6.065   3.436   0.335 -0.2351 -0.0834 -0.3603
 4289SOL    HW213438   6.179   3.531   0.306 -0.0606 -0.2002 -0.0602
 4290SOL     OW13439   4.118   3.954   5.271 -0.3134  0.0647  0.1509
 4290SOL    HW113440   4.125   4.014   5.346 -0.4728  1.0008 -0.5597
 4290SOL    HW213441   4.089   4.010   5.199  0.6826 -0.6562 -0.8342
 4291SOL     OW13442   1.325   0.658   1.454 -0.0646 -0.7556  0.4582
 4291SOL    HW113443   1.404   0.666   1.401 -0.9200  4.7079 -0.5471
 4291SOL    HW213444   1.268   0.601   1.404  2.6328 -4.0517  0.7342
 4292SOL     OW13445   0.361   2.861   3.334  0.7793  0.7081 -0.0288
 4292SOL    HW113446   0.308   2.864   3.255 -0.2186 -0.8473  0.5288
 4292SOL    HW213447   0.451   2.862   3.303  0.4275 -1.4644 -1.3342
 4293SOL     OW13448   4.477   2.856   1.298 -0.3350 -0.2837  0.7756
 4293SOL    HW113449   4.499   2.897   1.381 -1.0347 -0.1748  0.9204
 4293SOL    HW213450   4.392   2.813   1.315 -0.2215 -0.7149  0.2737
 4294SOL     OW13451   1.854   1.257   4.306 -0.2563 -0.4287  0.4779
 4294SOL    HW113452   1.870   1.222   4.393  0.1593 -0.6900  0.2987
 4294SOL    HW213453   1.934   1.304   4.284 -0.0011 -1.1594 -0.1481
 4295SOL     OW13454   1.941   4.632   6.299  0.1764 -0.2073 -0.1852
 4295SOL    HW113455   2.012   4.686   6.263 -0.0861 -0.6249 -1.3744
 4295SOL    HW213456   1.975   4.543   6.297 -0.8592 -0.6052 -2.1126
 4296SOL     OW13457   5.207   3.534   4.350 -0.7084 -0.6772 -0.0521
 4296SOL    HW113458   5.164   3.471   4.292 -0.0259 -1.9844  0.7968
 4296SOL    HW213459   5.149   3.540   4.426 -0.1231 -1.3139  0.4507
 4297SOL     OW13460   6.621   1.946   1.058  0.2821  0.0181 -0.4044
 4297SOL    HW113461   6.711   1.932   1.028  0.2756 -0.2594 -0.2972
 4297SOL    HW213462   6.569   1.951   0.978  0.3416 -0.1740 -0.4549
 4298SOL     OW13463   1.889   2.068   7.072  0.3216 -0.8033  0.1856
 4298SOL    HW113464   1.950   2.040   7.140 -0.5691 -1.5126  0.7174
 4298SOL    HW213465   1.851   2.149   7.105  1.0016 -0.3326 -0.1702
 4299SOL     OW13466   2.566   6.219   4.662 -0.4956  0.2695 -0.1049
 4299SOL    HW113467   2.543   6.276   4.736  0.4678  0.3617  0.1328
 4299SOL    HW213468   2.483   6.207   4.615 -0.7703  1.7223 -0.0595
 4300SOL     OW13469   0.439   2.429   6.418 -1.1280 -0.4839  0.0198
 4300SOL    HW113470   0.512   2.485   6.392 -1.1503  0.2490  1.4121
 4300SOL    HW213471   0.385   2.485   6.475 -1.6489 -1.6373  0.7041
 4301SOL     OW13472   1.811   7.201   1.447 -0.1601  0.2946  0.4972
 4301SOL    HW113473   1.838   7.265   1.513 -2.5576  0.5588  1.3206
 4301SOL    HW213474   1.799   7.120   1.497 -0.5674  0.1109  0.0983
 4302SOL     OW13475   6.110   3.432   1.343 -0.0938  0.2457 -0.0931
 4302SOL    HW113476   6.103   3.458   1.251 -1.7777 -0.1705 -0.1104
 4302SOL    HW213477   6.069   3.345   1.347  0.6177 -0.0659  0.9250
 4303SOL     OW13478   2.021   5.842   4.905  0.8849 -0.0762  0.1305
 4303SOL    HW113479   1.995   5.833   4.814  1.8304 -0.8774 -0.0782
 4303SOL    HW213480   2.032   5.937   4.917 -0.6901  0.1639 -0.1462
 4304SOL     OW13481   5.150   7.089   3.071  0.0265 -0.2203 -0.1677
 4304SOL    HW113482   5.164   7.058   3.161  2.2544  1.6362  0.2430
 4304SOL    HW213483   5.087   7.160   3.080  0.5883  0.2676  0.0440
 4305SOL     OW13484   0.904   4.896   2.674  0.6622  0.1621  0.1499
 4305SOL    HW113485   0.835   4.881   2.610  0.8996  1.1580 -0.3627
 4305SOL    HW213486   0.950   4.812   2.680  0.8031  0.1246 -1.1954
 4306SOL     OW13487   0.174   5.088   0.176 -0.1229 -0.0960  0.5971
 4306SOL    HW113488   0.137   5.156   0.231  0.2303 -0.3470  1.1562
 4306SOL    HW213489   0.101   5.057   0.123 -0.9771 -1.2418  2.3333
 4307SOL     OW13490   0.771   0.948   3.481  0.3169 -0.1615 -0.6900
 4307SOL    HW113491   0.757   0.946   3.387 -1.3827 -0.2782 -0.4710
 4307SOL    HW213492   0.682   0.946   3.518  0.9604 -0.3869  0.9092
 4308SOL     OW13493   1.913   0.041   5.391 -0.2164  0.2506 -0.0372
 4308SOL    HW113494   2.008   0.037   5.401 -0.1513  0.5751 -0.4930
 4308SOL    HW213495   1.882   0.085   5.470  0.2034  1.9571 -0.7847
 4309SOL     OW13496   3.202   5.576   2.620 -0.2424 -0.2602 -0.6793
 4309SOL    HW113497   3.242   5.662   2.609  1.6638 -0.6127  2.3289
 4309SOL    HW213498   3.115   5.594   2.655 -0.8340  0.4134 -2.3814
 4310SOL     OW13499   2.264   4.585   4.990 -0.4163  0.5649 -0.2760
 4310SOL    HW113500   2.216   4.667   4.997 -0.7142  0.5056 -1.3919
 4310SOL    HW213501   2.325   4.598   4.917 -0.2400 -0.0875 -0.2547
 4311SOL     OW13502   1.389   7.378   6.918  0.1138  0.4766 -0.4574
 4311SOL    HW113503   1.329   7.412   6.985 -0.2926  0.2077 -0.6810
 4311SOL    HW213504   1.331   7.340   6.852  0.3414  2.8169 -2.1457
 4312SOL     OW13505   3.439   5.139   5.600  0.0235  0.1955  0.0131
 4312SOL    HW113506   3.435   5.138   5.504  2.4563  1.0891 -0.1625
 4312SOL    HW213507   3.456   5.048   5.624 -0.2947  0.0176 -0.4061
 4313SOL     OW13508   5.465   5.182   3.806  0.8537  0.4896  0.2541
 4313SOL    HW113509   5.455   5.261   3.753  1.7139  1.0219  0.8530
 4313SOL    HW213510   5.487   5.215   3.894  1.2581 -0.4190  0.5062
 4314SOL     OW13511   0.115   4.436   4.498  0.4068 -0.0009  0.1444
 4314SOL    HW113512   0.109   4.522   4.455  3.5843  0.6760  0.7977
 4314SOL    HW213513   0.156   4.380   4.433  0.9762 -0.2315  0.6991
 4315SOL     OW13514   6.866   6.516   3.716 -0.0286 -0.0266 -0.4078
 4315SOL    HW113515   6.886   6.424   3.705  0.2766  0.2320 -2.3134
 4315SOL    HW213516   6.774   6.524   3.690  0.1046  0.2941 -0.7891
 4316SOL     OW13517   3.600   5.104   4.401  0.4959 -0.1631  0.2586
 4316SOL    HW113518   3.667   5.169   4.421  1.5664 -0.7060 -1.3802
 4316SOL    HW213519   3.517   5.148   4.421  1.2076  1.5912 -0.4328
 4317SOL     OW13520   2.142   4.083   2.022  0.4596 -0.2304  1.0544
 4317SOL    HW113521   2.207   4.138   1.979 -0.3062 -0.1078  0.0279
 4317SOL    HW213522   2.070   4.076   1.959  0.5216 -2.3986  1.1494
 4318SOL     OW13523   2.979   2.205   5.004  0.8910 -0.1340  0.5519
 4318SOL    HW113524   2.941   2.166   4.925 -0.7585  0.9731  0.7471
 4318SOL    HW213525   2.925   2.171   5.076  1.8020 -0.4102  1.1288
 4319SOL     OW13526   5.613   0.312   2.999 -0.6769 -0.6240  0.2463
 4319SOL    HW113527   5.574   0.390   3.039 -0.3315 -0.4713  0.2980
 4319SOL    HW213528   5.670   0.276   3.067  0.3479 -0.0467 -0.2711
 4320SOL     OW13529   0.905   2.394   1.655  0.2995 -0.1588 -0.9883
 4320SOL    HW113530   0.878   2.303   1.637  1.4326 -0.4938 -1.0696
 4320SOL    HW213531   0.996   2.398   1.626  0.7010  0.6154  0.3040
 4321SOL     OW13532   7.284   3.187   3.352 -1.0102 -0.1486  0.2369
 4321SOL    HW113533   7.369   3.185   3.396 -0.6012  1.2335 -0.4072
 4321SOL    HW213534   7.295   3.130   3.276 -0.2774  0.8098 -0.4145
 4322SOL     OW13535   5.442   6.250   3.352  0.3542  0.3067  0.0084
 4322SOL    HW113536   5.378   6.318   3.368 -1.4823 -1.5072  0.8842
 4322SOL    HW213537   5.501   6.254   3.428 -0.7232 -0.1044  0.8866
 4323SOL     OW13538   4.311   1.042   2.994  0.1088 -0.1573  0.1550
 4323SOL    HW113539   4.257   1.012   2.921  2.0017  0.3113 -1.5521
 4323SOL    HW213540   4.391   0.990   2.987  0.4807  0.1470  1.7144
 4324SOL     OW13541   1.836   0.052   5.952  0.3821 -0.4401  0.3852
 4324SOL    HW113542   1.831  -0.040   5.976 -0.2980 -0.3290  0.6918
 4324SOL    HW213543   1.926   0.064   5.921 -0.1596 -1.7661 -1.9748
 4325SOL     OW13544   5.349   1.250   0.361  0.0142  0.1330 -0.3192
 4325SOL    HW113545   5.438   1.285   0.353  0.1838  0.6613  2.7233
 4325SOL    HW213546   5.345   1.215   0.450 -2.7093 -0.2399 -0.5175
 4326SOL     OW13547   1.022   2.587   1.359  1.0150  0.1388 -0.0359
 4326SOL    HW113548   1.016   2.578   1.264  1.1540 -0.7181  0.0361
 4326SOL    HW213549   0.931   2.593   1.387  0.9761  0.5333 -0.2270
 4327SOL     OW13550   2.491   3.079   4.405 -0.0199 -0.4423 -0.6226
 4327SOL    HW113551   2.576   3.043   4.377 -0.4108 -0.5168 -1.7442
 4327SOL    HW213552   2.443   3.003   4.437  0.9022 -0.1701  1.5619
 4328SOL     OW13553   5.065   2.147   6.646  0.0759 -0.0584  0.5455
 4328SOL    HW113554   5.017   2.228   6.628  0.7201  0.5029  1.3222
 4328SOL    HW213555   5.076   2.146   6.741 -0.1846 -1.2197  0.5776
 4329SOL     OW13556   5.143   2.303   5.824  0.1117 -0.4327  0.3868
 4329SOL    HW113557   5.167   2.395   5.825 -0.5290 -0.2328 -0.8932
 4329SOL    HW213558   5.178   2.268   5.906  1.5621  0.6359  0.2600
 4330SOL     OW13559   3.746   5.791   1.526 -0.4200 -0.1555  0.5642
 4330SOL    HW113560   3.777   5.724   1.465  1.0370  3.7970 -3.6535
 4330SOL    HW213561   3.825   5.818   1.573 -0.2267  0.7076 -0.2094
 4331SOL     OW13562   0.319   3.933   1.059 -0.5357 -0.1192 -0.1674
 4331SOL    HW113563   0.404   3.910   1.097  0.3946  0.3114 -1.9149
 4331SOL    HW213564   0.301   4.021   1.092  0.8696  0.7633 -1.6684
 4332SOL     OW13565   6.560   3.048   6.153 -0.2014 -0.0165 -0.6806
 4332SOL    HW113566   6.505   3.125   6.165 -1.5904 -1.2770  1.8803
 4332SOL    HW213567   6.631   3.059   6.216 -1.4076 -1.5677  1.0668
 4333SOL     OW13568   6.628   3.445   0.370 -0.6334  0.0140 -0.2646
 4333SOL    HW113569   6.642   3.538   0.389  0.1146 -0.4011  1.4010
 4333SOL    HW213570   6.713   3.404   0.385 -0.8172 -0.8894 -1.5131
 4334SOL     OW13571   4.203   1.977   5.087 -0.1988 -0.0733 -0.2477
 4334SOL    HW113572   4.181   1.894   5.044 -0.7904  0.2139 -0.5120
 4334SOL    HW213573   4.217   2.038   5.015 -2.1624  0.6632 -0.0804
 4335SOL     OW13574   0.495   1.112   3.078  0.3848  0.1476 -0.0424
 4335SOL    HW113575   0.542   1.045   3.128 -1.0702  0.1044  1.3358
 4335SOL    HW213576   0.467   1.066   2.998  1.5576 -0.1599 -0.3051
 4336SOL     OW13577   4.574   7.087   0.276 -0.5561  0.0111 -0.1883
 4336SOL    HW113578   4.621   7.153   0.226 -0.7761  0.1469 -0.2172
 4336SOL    HW213579   4.590   7.110   0.368  0.1909 -0.4841 -0.1924
 4337SOL     OW13580   5.048   5.192   5.134 -0.7377  0.4167 -0.2914
 4337SOL    HW113581   4.984   5.254   5.170 -0.8580 -0.5792  1.3436
 4337SOL    HW213582   5.132   5.239   5.138 -1.2052  1.4052 -1.5975
 4338SOL     OW13583   6.147   4.525   0.062  0.4294 -0.4229 -0.2204
 4338SOL    HW113584   6.165   4.606   0.110 -1.9866  0.8982 -1.3063
 4338SOL    HW213585   6.185   4.540  -0.025 -1.4847  0.3765 -0.9836
 4339SOL     OW13586   6.558   1.759   3.168  0.1595 -0.3615 -0.1332
 4339SOL    HW113587   6.505   1.711   3.232  1.2661 -0.7635  0.5071
 4339SOL    HW213588   6.500   1.829   3.136 -0.7483 -0.7908  0.5337
 4340SOL     OW13589   7.364   2.857   6.930 -0.4796  0.2964 -0.0568
 4340SOL    HW113590   7.344   2.794   6.861 -0.0474  0.2068 -0.1050
 4340SOL    HW213591   7.279   2.887   6.961 -0.7075 -0.7227  0.3434
 4341SOL     OW13592   3.458   1.574   3.654  0.4056 -0.3225  0.4607
 4341SOL    HW113593   3.474   1.566   3.560  0.4751 -1.5724  0.5559
 4341SOL    HW213594   3.500   1.496   3.692 -0.3764 -0.2911  1.4270
 4342SOL     OW13595   2.239   2.645   6.291 -0.2535  0.4580  0.5060
 4342SOL    HW113596   2.304   2.584   6.326 -0.1294  1.0015  1.2386
 4342SOL    HW213597   2.276   2.732   6.308 -0.5765  0.7570 -0.2374
 4343SOL     OW13598   4.130   5.608   1.454 -0.4087  0.2598 -0.2515
 4343SOL    HW113599   4.111   5.701   1.448 -2.9671 -0.0053  1.6692
 4343SOL    HW213600   4.125   5.589   1.548 -2.2508 -2.1805 -0.7516
 4344SOL     OW13601   4.832   3.607   0.301  0.4695 -0.0913 -0.5033
 4344SOL    HW113602   4.811   3.560   0.381 -0.2123 -0.9164 -1.1485
 4344SOL    HW213603   4.772   3.682   0.301 -0.9298 -1.1547 -1.1715
 4345SOL     OW13604   3.611   2.501   4.071 -0.1664  0.4697  0.0443
 4345SOL    HW113605   3.523   2.470   4.094 -0.7371  2.4420  0.7021
 4345SOL    HW213606   3.670   2.436   4.109 -1.2877  0.0161  1.0691
 4346SOL     OW13607   3.289   1.142   2.496  0.2328  0.0293  0.5864
 4346SOL    HW113608   3.301   1.052   2.465  0.6104  0.3525 -0.2118
 4346SOL    HW213609   3.252   1.131   2.584  3.2912 -0.9487  1.8634
 4347SOL     OW13610   6.077   7.378   0.040 -0.0520  0.5514 -0.4350
 4347SOL    HW113611   6.002   7.369   0.099  0.6540 -3.4520  0.1312
 4347SOL    HW213612   6.141   7.430   0.089 -0.3413 -0.8105  1.4739
 4348SOL     OW13613   5.033   2.045   4.035 -0.6078 -0.1247 -0.2993
 4348SOL    HW113614   4.967   2.102   3.994 -0.6125 -1.0234 -1.5834
 4348SOL    HW213615   4.995   1.958   4.030  0.6176 -0.6357 -0.9095
 4349SOL     OW13616   2.197   5.422   4.031 -0.2879 -0.1502 -0.3489
 4349SOL    HW113617   2.197   5.407   4.126  1.9088  0.8739 -0.1228
 4349SOL    HW213618   2.191   5.335   3.993 -3.8726 -0.4822  0.6102
 4350SOL     OW13619   5.192   2.459   7.002  0.4997 -0.3324  0.8157
 4350SOL    HW113620   5.264   2.448   6.940 -1.1298 -0.4530 -1.1718
 4350SOL    HW213621   5.123   2.502   6.951 -0.8484 -0.2654  2.6170
 4351SOL     OW13622   6.725   2.377   2.538  0.8659  0.4425  0.8604
 4351SOL    HW113623   6.674   2.310   2.584 -2.5117  2.1959  0.0098
 4351SOL    HW213624   6.745   2.339   2.453  1.9514 -0.6585  1.5881
 4352SOL     OW13625   3.916   6.098   5.900  0.0976 -0.1822 -0.1800
 4352SOL    HW113626   3.879   6.086   5.812 -0.6537  0.0414  0.0894
 4352SOL    HW213627   3.964   6.181   5.894  1.1852 -0.8288 -0.7287
 4353SOL     OW13628   2.789   5.902   6.939  0.1370 -0.0221 -0.1643
 4353SOL    HW113629   2.757   5.992   6.930  0.8470  0.1532 -1.0187
 4353SOL    HW213630   2.771   5.861   6.854  1.5401 -0.1131 -0.4342
 4354SOL     OW13631   0.857   7.288   4.913 -0.4419  0.2493 -0.5772
 4354SOL    HW113632   0.883   7.380   4.904  0.1509  0.0662 -0.8185
 4354SOL    HW213633   0.801   7.272   4.837 -0.7481  0.4813 -0.3996
 4355SOL     OW13634   0.525   4.930   5.746 -0.4503  0.1166  0.1753
 4355SOL    HW113635   0.522   5.007   5.690  0.8044 -0.3080 -0.5198
 4355SOL    HW213636   0.462   4.948   5.816 -0.9048  1.3243 -0.5189
 4356SOL     OW13637   5.137   1.023   6.923 -0.4932 -0.2110 -0.0784
 4356SOL    HW113638   5.128   1.117   6.909 -0.0249 -0.2593 -0.7380
 4356SOL    HW213639   5.070   0.984   6.866 -1.1019 -0.2641  0.6479
 4357SOL     OW13640   5.291   5.715   3.038 -0.3308 -0.7795 -0.4129
 4357SOL    HW113641   5.318   5.705   2.947  1.8117  1.1618 -0.0972
 4357SOL    HW213642   5.371   5.701   3.088 -0.8910  0.6010  0.9635
 4358SOL     OW13643   6.336   3.120   4.079  0.7179  0.4733 -0.4294
 4358SOL    HW113644   6.260   3.170   4.050  1.5639  1.0630 -1.7296
 4358SOL    HW213645   6.341   3.135   4.173  0.8783  2.7970 -0.7495
 4359SOL     OW13646   6.958   7.242   5.328  0.1269  0.4149  0.3500
 4359SOL    HW113647   7.041   7.210   5.295  0.7346  2.0158  0.2274
 4359SOL    HW213648   6.975   7.262   5.420  0.4002  2.2718 -0.0536
 4360SOL     OW13649   6.981   1.160   1.717  0.0832  0.6108  0.0103
 4360SOL    HW113650   6.938   1.245   1.707 -0.7328  0.1042 -0.9483
 4360SOL    HW213651   7.074   1.178   1.707 -0.0110  1.5027  0.6236
 4361SOL     OW13652   3.048   3.472   6.940  0.6854  0.3015 -0.0327
 4361SOL    HW113653   2.986   3.520   6.995 -0.4340 -0.7139 -0.3579
 4361SOL    HW213654   3.009   3.385   6.931  1.6054 -0.0137 -1.1996
 4362SOL     OW13655   5.338   4.035   5.405 -0.0175 -0.3170  0.3858
 4362SOL    HW113656   5.332   4.019   5.311  0.3698 -0.8334  0.4458
 4362SOL    HW213657   5.323   4.129   5.414  0.1072 -0.2356 -0.2050
 4363SOL     OW13658   6.539   6.573   5.997  0.0890  0.0398 -1.1206
 4363SOL    HW113659   6.497   6.487   5.991 -1.0486  0.6502 -2.2740
 4363SOL    HW213660   6.626   6.560   5.961 -0.6455 -0.2924 -2.8764
 4364SOL     OW13661   4.946   1.466   2.754 -0.4392 -0.1699 -0.7092
 4364SOL    HW113662   5.041   1.471   2.746 -0.5045  0.9642 -0.9343
 4364SOL    HW213663   4.919   1.408   2.683 -0.0800  1.1546 -1.9729
 4365SOL     OW13664   2.232   0.042   3.891  0.2920 -0.1175 -0.5548
 4365SOL    HW113665   2.297   0.090   3.841  1.0781 -0.7161 -0.1241
 4365SOL    HW213666   2.150   0.090   3.877  1.1230  1.5368  0.1566
 4366SOL     OW13667   3.274   4.481   3.558 -0.2745  0.2007  0.6904
 4366SOL    HW113668   3.262   4.553   3.620  0.7323  0.4210  0.6341
 4366SOL    HW213669   3.185   4.449   3.543 -0.8649  2.0685 -0.0622
 4367SOL     OW13670   1.756   5.179   2.990  0.2548  0.2056  0.4003
 4367SOL    HW113671   1.824   5.161   2.925  0.9061 -0.1126  1.1441
 4367SOL    HW213672   1.715   5.260   2.961  0.0069 -0.3449 -0.8312
 4368SOL     OW13673   6.199   0.481   6.831 -0.1288 -0.2359  0.0495
 4368SOL    HW113674   6.160   0.482   6.744  1.4418  2.2664 -0.7157
 4368SOL    HW213675   6.252   0.401   6.832 -0.4497 -0.4855 -1.1317
 4369SOL     OW13676   1.228   6.499   2.735  0.1807 -0.1828  0.1412
 4369SOL    HW113677   1.221   6.526   2.644  0.9468  2.0436  0.6757
 4369SOL    HW213678   1.138   6.501   2.768  0.1827  1.8523  0.1314
 4370SOL     OW13679   4.357   1.890   6.883 -0.1700  0.4452 -0.2157
 4370SOL    HW113680   4.425   1.882   6.949  0.0976  2.2905 -0.1982
 4370SOL    HW213681   4.403   1.922   6.805 -0.5252 -1.4249 -1.2473
 4371SOL     OW13682   5.823   2.105   1.795 -0.5313 -0.5107  0.7368
 4371SOL    HW113683   5.917   2.093   1.788 -0.2582  0.9750  1.4908
 4371SOL    HW213684   5.786   2.019   1.775  0.9066 -0.8085 -0.8246
 4372SOL     OW13685   0.470   0.132   6.336  0.1011 -0.3607 -0.0134
 4372SOL    HW113686   0.389   0.165   6.298  0.6751 -1.4102 -2.2785
 4372SOL    HW213687   0.523   0.105   6.262  3.1971  1.5905  1.2615
 4373SOL     OW13688   2.213   6.609   2.342  0.5750  0.0648  1.2203
 4373SOL    HW113689   2.207   6.694   2.299 -0.7881 -0.6138  0.0001
 4373SOL    HW213690   2.276   6.560   2.289  0.5337 -0.0468  1.2743
 4374SOL     OW13691   1.456   6.876   2.932 -0.2890  0.7162  0.1926
 4374SOL    HW113692   1.456   6.851   2.840  0.6689  0.6365  0.2084
 4374SOL    HW213693   1.537   6.839   2.967 -0.5880  0.8536  1.0374
 4375SOL     OW13694   3.159   4.169   5.858  0.4281 -0.1991 -0.2201
 4375SOL    HW113695   3.194   4.198   5.942  1.5088 -0.0598 -0.6968
 4375SOL    HW213696   3.186   4.077   5.852  0.9025 -0.0435 -0.6653
 4376SOL     OW13697   3.592   6.322   4.261 -0.1769 -0.0090  0.1283
 4376SOL    HW113698   3.650   6.258   4.301 -1.0255 -1.1481 -0.4091
 4376SOL    HW213699   3.541   6.358   4.334 -0.5433 -0.8457  0.2918
 4377SOL     OW13700   3.435   3.783   6.043  0.1621 -0.0439 -0.7916
 4377SOL    HW113701   3.372   3.738   6.098  0.5899  0.5979  0.2390
 4377SOL    HW213702   3.518   3.777   6.090  0.3843  1.1613 -0.9800
 4378SOL     OW13703   1.367   3.824   1.288  0.1320 -0.0969  0.1482
 4378SOL    HW113704   1.277   3.792   1.289  0.4654 -1.1056  1.8277
 4378SOL    HW213705   1.366   3.903   1.342  0.2733 -0.2116  0.3229
 4379SOL     OW13706   7.172   2.107   1.725 -0.2650  0.3414 -0.2416
 4379SOL    HW113707   7.215   2.192   1.728  0.3899  0.0878 -1.4862
 4379SOL    HW213708   7.238   2.045   1.756 -0.2706  0.1368 -0.6271
 4380SOL     OW13709   6.898   6.915   2.708  0.1754 -0.0647 -0.0973
 4380SOL    HW113710   6.967   6.977   2.735  0.5901 -0.2921 -0.6278
 4380SOL    HW213711   6.819   6.950   2.749  0.9443 -1.0181  2.4342
 4381SOL     OW13712   6.823   5.018   3.514 -0.3506  0.3828  0.0190
 4381SOL    HW113713   6.914   4.990   3.527 -0.7709 -1.0790 -0.0004
 4381SOL    HW213714   6.771   4.957   3.567 -1.3098  1.3891  0.2750
 4382SOL     OW13715   2.025   3.847   3.748 -0.1121  0.2800  0.3035
 4382SOL    HW113716   1.945   3.886   3.783 -0.5856 -0.6563  0.2905
 4382SOL    HW213717   2.005   3.754   3.740  0.7278  0.1466 -0.4057
 4383SOL     OW13718   2.581   2.778   2.299  1.0852 -0.6387  0.6317
 4383SOL    HW113719   2.576   2.685   2.321 -1.2904 -0.2484  2.1202
 4383SOL    HW213720   2.538   2.822   2.373 -0.3254  1.4108 -1.2764
 4384SOL     OW13721   7.388   5.405   2.139  0.0647 -0.2185 -0.1688
 4384SOL    HW113722   7.309   5.436   2.094  0.1573  0.8617  0.3881
 4384SOL    HW213723   7.459   5.458   2.102  0.4763 -0.9234 -0.3979
 4385SOL     OW13724   0.350   5.233   7.427 -0.0865  0.0651  0.2477
 4385SOL    HW113725   0.303   5.202   7.504 -1.6247  0.1633 -0.6181
 4385SOL    HW213726   0.317   5.321   7.412 -0.9156 -0.4825 -1.3528
 4386SOL     OW13727   4.023   3.282   5.764  0.0687 -0.2688 -0.0374
 4386SOL    HW113728   3.968   3.219   5.811  0.7399 -0.4473  0.5182
 4386SOL    HW213729   4.091   3.306   5.827  0.2518  0.4478 -0.5000
 4387SOL     OW13730   2.046   7.291   3.558 -0.1686 -0.1671  0.2062
 4387SOL    HW113731   2.072   7.363   3.615 -0.7394  0.7362 -0.6373
 4387SOL    HW213732   1.996   7.232   3.615  1.2952 -0.5199  1.1802
 4388SOL     OW13733   4.478   4.919   2.203  0.4860  0.1152 -0.2166
 4388SOL    HW113734   4.489   4.953   2.114 -1.8707 -1.5764 -1.2687
 4388SOL    HW213735   4.519   4.832   2.201  0.3527  0.0350  0.3404
 4389SOL     OW13736   6.240   7.070   6.354 -0.1050  0.0806  0.1733
 4389SOL    HW113737   6.204   7.079   6.266 -0.1917 -1.1407  0.0649
 4389SOL    HW213738   6.292   7.149   6.367  2.0201 -0.8562 -1.9818
 4390SOL     OW13739   6.372   6.997   6.093 -0.0248  0.2796  0.1087
 4390SOL    HW113740   6.412   7.081   6.068 -0.3604  0.4318  0.0773
 4390SOL    HW213741   6.413   6.975   6.176 -0.0850  0.5812  0.2205
 4391SOL     OW13742   0.855   0.678   2.509  0.0045  0.6244 -0.4310
 4391SOL    HW113743   0.851   0.652   2.417  0.4495  2.8645 -1.1355
 4391SOL    HW213744   0.766   0.665   2.542  0.1607 -1.5177 -0.7515
 4392SOL     OW13745   1.356   0.974   5.646 -0.1638  0.0031  0.1937
 4392SOL    HW113746   1.387   1.064   5.638  0.6234 -0.0955  1.7590
 4392SOL    HW213747   1.431   0.926   5.682 -0.0907 -1.6003 -1.8406
 4393SOL     OW13748   3.646   5.704   1.913 -0.3164  0.0934 -0.0773
 4393SOL    HW113749   3.586   5.629   1.908  0.0924 -0.3089  0.8304
 4393SOL    HW213750   3.728   5.666   1.943  0.4342  0.6245 -1.4052
 4394SOL     OW13751   0.305   4.795   3.797 -1.0056  0.1962 -0.4813
 4394SOL    HW113752   0.357   4.874   3.786 -1.2734  0.5590  0.7132
 4394SOL    HW213753   0.242   4.797   3.725 -0.4567  0.6286 -0.9524
 4395SOL     OW13754   0.181   5.628   4.096  0.4357  0.1313  0.0962
 4395SOL    HW113755   0.230   5.685   4.156 -0.4772 -1.1624  2.1801
 4395SOL    HW213756   0.098   5.673   4.082 -1.1246 -1.4300  3.3614
 4396SOL     OW13757   2.402   3.029   7.411  0.0656  0.2224  0.1903
 4396SOL    HW113758   2.322   3.047   7.461 -0.2605 -1.7263  0.4546
 4396SOL    HW213759   2.381   2.950   7.361  1.7408 -0.1857  0.0806
 4397SOL     OW13760   3.854   5.616   3.322 -0.5082 -0.2027  0.8312
 4397SOL    HW113761   3.759   5.607   3.314 -0.4689  0.3698 -0.5571
 4397SOL    HW213762   3.866   5.677   3.395 -1.4022  2.7547 -1.2794
 4398SOL     OW13763   4.310   4.631   4.816  0.2506 -0.1081 -0.3985
 4398SOL    HW113764   4.246   4.595   4.755 -0.4625 -0.2766  0.4241
 4398SOL    HW213765   4.352   4.702   4.767 -1.2899  0.6981 -0.6470
 4399SOL     OW13766   3.075   5.084   2.339 -0.0311 -0.9251  0.0061
 4399SOL    HW113767   3.056   5.122   2.425  0.8292 -2.2499  0.8026
 4399SOL    HW213768   2.989   5.055   2.307 -0.5989  0.9483 -0.2998
 4400SOL     OW13769   5.492   4.897   2.721  0.4230 -0.1957 -0.0276
 4400SOL    HW113770   5.553   4.953   2.674  0.9049 -1.7299 -1.3335
 4400SOL    HW213771   5.405   4.933   2.701  0.7676  0.7151  0.0744
 4401SOL     OW13772   2.054   1.502   4.190  0.2070 -0.2314  0.2153
 4401SOL    HW113773   2.122   1.526   4.127 -1.2652 -0.9855 -1.7683
 4401SOL    HW213774   1.985   1.566   4.177  0.9225  1.3160  3.1027
 4402SOL     OW13775   5.841   2.536   5.763 -0.1752  0.1378 -0.8629
 4402SOL    HW113776   5.860   2.442   5.760 -0.3099  0.1310 -2.0102
 4402SOL    HW213777   5.746   2.542   5.760 -0.1841  0.2945 -0.2384
 4403SOL     OW13778   6.313   6.667   5.585 -0.0706 -0.1025  0.2371
 4403SOL    HW113779   6.258   6.702   5.515  1.0351  0.8397 -0.1992
 4403SOL    HW213780   6.295   6.573   5.586  0.9538 -0.4029 -2.3302
 4404SOL     OW13781   4.732   2.127   2.324  0.1303  0.5903  0.0812
 4404SOL    HW113782   4.737   2.221   2.304 -1.9152  1.1550  1.8076
 4404SOL    HW213783   4.814   2.107   2.369  0.5569  1.5722 -0.2415
 4405SOL     OW13784   6.173   2.526   0.424 -0.0383  0.1897 -0.4499
 4405SOL    HW113785   6.196   2.547   0.333 -0.7474  0.8675 -0.4902
 4405SOL    HW213786   6.144   2.435   0.421 -0.0287  0.1996 -0.9057
 4406SOL     OW13787   4.765   4.836   2.582  0.1713 -0.1745  0.2698
 4406SOL    HW113788   4.858   4.849   2.569  0.1642 -1.2436 -1.0423
 4406SOL    HW213789   4.723   4.902   2.527  0.1596 -0.6243 -0.2679
 4407SOL     OW13790   3.619   5.182   4.908 -0.0708 -0.5006  0.1918
 4407SOL    HW113791   3.525   5.192   4.922 -0.2240 -1.8358  0.3173
 4407SOL    HW213792   3.634   5.212   4.819 -0.4860  0.3939  0.4108
 4408SOL     OW13793   7.386   7.370   3.605  0.0490 -0.1572  0.0578
 4408SOL    HW113794   7.389   7.379   3.510  2.6396  1.4306  0.1707
 4408SOL    HW213795   7.427   7.285   3.622 -0.3614 -0.4160 -0.2253
 4409SOL     OW13796   3.974   1.963   6.624 -0.1036  0.5357 -0.7659
 4409SOL    HW113797   4.032   1.981   6.550 -0.9673  1.3786 -1.2457
 4409SOL    HW213798   3.951   2.049   6.658 -0.2972  0.1729  0.0414
 4410SOL     OW13799   5.207   1.295   1.009 -0.0528 -0.2279 -0.4188
 4410SOL    HW113800   5.167   1.222   0.963 -0.9457  0.1495 -0.2633
 4410SOL    HW213801   5.224   1.261   1.098 -0.7644 -0.1485 -0.2511
 4411SOL     OW13802   0.535   7.218   1.870 -0.2253  0.4783  0.1702
 4411SOL    HW113803   0.582   7.278   1.928  0.3788  1.5073 -1.3187
 4411SOL    HW213804   0.570   7.132   1.891 -0.0721  0.8101  1.3592
 4412SOL     OW13805   4.867   2.388   3.056  0.5554  0.5779  0.0424
 4412SOL    HW113806   4.953   2.402   3.016  0.6342 -1.0954 -0.4402
 4412SOL    HW213807   4.864   2.294   3.074 -0.7377  0.7940  1.1009
 4413SOL     OW13808   5.247   1.929   6.606 -0.4742  0.4987 -0.2588
 4413SOL    HW113809   5.320   1.984   6.636 -0.1397  1.4835 -2.5969
 4413SOL    HW213810   5.170   1.963   6.651 -0.0702  2.1183 -0.7174
 4414SOL     OW13811   6.483   3.798   5.485  0.3823  0.1515 -0.0255
 4414SOL    HW113812   6.413   3.748   5.442 -0.7852  0.2223  1.7140
 4414SOL    HW213813   6.493   3.756   5.570  0.3900  1.9752  0.9042
 4415SOL     OW13814   6.533   6.015   6.999 -0.2050  0.3954 -0.4958
 4415SOL    HW113815   6.451   5.969   7.012  0.4757 -0.3831  1.3048
 4415SOL    HW213816   6.538   6.029   6.904 -1.1312 -1.9599 -0.9548
 4416SOL     OW13817   2.532   1.923   2.071  0.0154  0.2324  0.2047
 4416SOL    HW113818   2.461   1.866   2.044  0.2358  0.2106 -0.3490
 4416SOL    HW213819   2.532   1.919   2.166 -0.6843  0.1899  0.2066
 4417SOL     OW13820   7.269   6.323   2.865  0.5314  0.5329 -0.3292
 4417SOL    HW113821   7.326   6.401   2.866  2.1722 -0.5085 -2.8194
 4417SOL    HW213822   7.228   6.325   2.778 -0.8187 -0.4385  0.2682
 4418SOL     OW13823   7.244   0.099   2.210  0.3492 -0.3881  0.1465
 4418SOL    HW113824   7.198   0.015   2.212  2.3963 -1.5643  0.2728
 4418SOL    HW213825   7.299   0.098   2.288  0.3719  1.1205  0.1815
 4419SOL     OW13826   7.379   1.672   4.468  0.0533 -0.0362 -0.4975
 4419SOL    HW113827   7.355   1.678   4.376  1.2168  0.8273 -0.7693
 4419SOL    HW213828   7.475   1.665   4.468  0.2043  1.3996  0.6714
 4420SOL     OW13829   3.213   5.350   2.036  0.7880  1.5080 -0.5581
 4420SOL    HW113830   3.276   5.281   2.055 -1.6028 -0.6748  0.0896
 4420SOL    HW213831   3.195   5.391   2.121 -2.0118 -1.0750  0.2518
 4421SOL     OW13832   3.314   5.077   4.776 -0.1000 -0.3268 -0.3367
 4421SOL    HW113833   3.244   5.066   4.712 -0.8171 -0.5567  0.4702
 4421SOL    HW213834   3.340   5.169   4.768 -0.1322 -0.3714 -1.0005
 4422SOL     OW13835   3.002   4.440   3.534  0.2674  0.0510  0.1809
 4422SOL    HW113836   2.983   4.365   3.590 -1.2944 -0.3645 -0.8637
 4422SOL    HW213837   2.940   4.508   3.562 -0.1115  0.0469 -0.6143
 4423SOL     OW13838   5.473   0.119   0.764 -0.1895 -0.2230  0.6013
 4423SOL    HW113839   5.416   0.049   0.731  0.7727  0.1487 -2.1014
 4423SOL    HW213840   5.442   0.198   0.720  2.0889  0.0528 -0.6763
 4424SOL     OW13841   3.407   4.009   6.830  0.2621 -0.3394 -0.4859
 4424SOL    HW113842   3.460   4.058   6.892  1.3816 -1.0716 -0.8259
 4424SOL    HW213843   3.351   3.954   6.884 -0.5396  0.8231 -0.1137
 4425SOL     OW13844   2.589   0.286   1.473 -0.0879  0.4022 -0.5910
 4425SOL    HW113845   2.583   0.245   1.560  1.7454 -0.8451 -1.0052
 4425SOL    HW213846   2.641   0.365   1.488 -0.9687  0.9570 -0.3448
 4426SOL     OW13847   0.304   6.100   0.841 -0.2742  0.1110  0.2201
 4426SOL    HW113848   0.331   6.060   0.924  2.0515  1.1587  0.0352
 4426SOL    HW213849   0.209   6.088   0.839 -0.3462 -0.3579  2.7996
 4427SOL     OW13850   0.998   1.930   0.999  0.1187  0.5932  0.2856
 4427SOL    HW113851   0.955   2.015   0.992  2.6691  2.0668  1.2190
 4427SOL    HW213852   1.023   1.908   0.909 -1.3413  0.3250 -0.0875
 4428SOL     OW13853   2.418   2.329   0.596 -0.2504  0.6727 -0.1673
 4428SOL    HW113854   2.379   2.243   0.612  0.4720  0.4541  0.5288
 4428SOL    HW213855   2.361   2.371   0.532 -0.2802 -0.5647 -0.9797
 4429SOL     OW13856   5.961   3.900   1.247 -0.0246  0.0725  0.2722
 4429SOL    HW113857   5.909   3.975   1.276  0.3243 -0.3264  2.0202
 4429SOL    HW213858   5.904   3.825   1.260 -0.7699  0.0643 -2.4860
 4430SOL     OW13859   0.197   3.750   5.005  0.0176  0.6579 -0.4459
 4430SOL    HW113860   0.106   3.723   5.019  0.4239  0.4206  2.4297
 4430SOL    HW213861   0.245   3.668   4.996 -0.0232  0.7853 -2.0117
 4431SOL     OW13862   4.692   0.620   5.582  0.7091  1.0158 -0.2503
 4431SOL    HW113863   4.644   0.581   5.656  1.5478  0.8836  0.2364
 4431SOL    HW213864   4.695   0.550   5.516  1.2980  0.6027  0.2059
 4432SOL     OW13865   1.628   0.584   7.070  0.2968 -0.3072 -0.0400
 4432SOL    HW113866   1.611   0.571   7.164 -0.2647 -2.3631 -0.3734
 4432SOL    HW213867   1.639   0.495   7.036 -0.4261  0.3479 -2.0873
 4433SOL     OW13868   0.374   1.806   6.100  0.3610  0.1448 -0.0043
 4433SOL    HW113869   0.451   1.792   6.156  0.9892  1.8694 -0.3772
 4433SOL    HW213870   0.408   1.852   6.024 -0.7321 -0.8999 -1.1548
 4434SOL     OW13871   6.529   2.599   4.860 -0.5449  0.0477  0.1206
 4434SOL    HW113872   6.484   2.594   4.776 -2.0209 -3.9774  0.9008
 4434SOL    HW213873   6.606   2.544   4.849 -1.0154 -0.9495  1.4214
 4435SOL     OW13874   7.225   4.862   1.210 -0.0722  0.0757  0.2552
 4435SOL    HW113875   7.312   4.888   1.241  0.0659  1.7989 -1.4328
 4435SOL    HW213876   7.165   4.912   1.265  0.1012  1.0112 -0.3835
 4436SOL     OW13877   3.933   6.155   5.271  0.7364  0.7925 -0.1695
 4436SOL    HW113878   4.019   6.197   5.276  1.3276 -0.2301 -1.2731
 4436SOL    HW213879   3.892   6.192   5.192  0.6416  0.4327 -0.2935
 4437SOL     OW13880   4.751   1.894   5.219 -0.0597 -0.0546  0.7722
 4437SOL    HW113881   4.804   1.839   5.277  1.9344  0.4608 -0.4754
 4437SOL    HW213882   4.814   1.952   5.177 -1.7088  0.9549 -0.4175
 4438SOL     OW13883   3.095   5.838   6.975 -0.0794  0.4063 -0.4399
 4438SOL    HW113884   3.006   5.828   7.007 -0.5413  0.4865 -1.6827
 4438SOL    HW213885   3.139   5.890   7.043 -0.5064 -0.9783  0.9808
 4439SOL     OW13886   6.249   0.234   3.657  0.3857 -0.3122  0.4541
 4439SOL    HW113887   6.167   0.237   3.705 -0.7029  0.5177 -1.3313
 4439SOL    HW213888   6.241   0.157   3.600  1.5833 -1.2009  1.4242
 4440SOL     OW13889   6.917   6.571   1.200  0.3003 -0.4453 -0.1945
 4440SOL    HW113890   6.855   6.615   1.258  0.3901  3.1542 -2.5728
 4440SOL    HW213891   6.873   6.489   1.176 -2.2598  0.6671  0.4189
 4441SOL     OW13892   6.570   6.118   5.903 -0.0728 -0.2902  0.2194
 4441SOL    HW113893   6.540   6.209   5.909  1.9746  0.4422  0.2191
 4441SOL    HW213894   6.491   6.067   5.889 -1.4377  1.3588  1.5006
 4442SOL     OW13895   7.394   5.876   2.356 -0.4412 -0.9897  0.0383
 4442SOL    HW113896   7.354   5.883   2.270  1.1577  0.1294 -0.6514
 4442SOL    HW213897   7.365   5.790   2.389 -2.0117 -0.9259 -1.0890
 4443SOL     OW13898   1.599   2.547   5.788 -1.1311  0.4151  0.4079
 4443SOL    HW113899   1.556   2.587   5.864 -1.1108  0.6650  0.2890
 4443SOL    HW213900   1.592   2.453   5.804 -0.3901  0.4728  1.1326
 4444SOL     OW13901   5.928   2.171   5.790  0.4571  0.1455 -0.2448
 4444SOL    HW113902   5.919   2.130   5.704 -0.4641 -0.4442  0.1214
 4444SOL    HW213903   6.014   2.213   5.787  0.3142  0.4030 -1.5593
 4445SOL     OW13904   2.307   1.916   2.959  0.4120 -0.9253  0.0501
 4445SOL    HW113905   2.216   1.943   2.964  0.9304  1.3667 -1.3896
 4445SOL    HW213906   2.341   1.927   3.048 -0.6958 -1.9131  0.6184
 4446SOL     OW13907   1.867   3.811   1.886 -0.0590  0.0971 -0.2764
 4446SOL    HW113908   1.912   3.808   1.801 -0.6006 -1.4880 -0.5485
 4446SOL    HW213909   1.930   3.773   1.947 -1.1294 -2.7562 -0.7743
 4447SOL     OW13910   4.812   0.181   3.966 -0.4069  0.0258 -0.0332
 4447SOL    HW113911   4.902   0.156   3.984 -0.6048  0.0675  1.1325
 4447SOL    HW213912   4.818   0.261   3.914  0.2390  0.4431  0.6601
 4448SOL     OW13913   7.428   6.477   4.377  0.0326  0.0246  0.3138
 4448SOL    HW113914   7.516   6.504   4.404 -0.7049  1.9344  1.0094
 4448SOL    HW213915   7.432   6.474   4.281  0.3704  2.0892  0.2194
 4449SOL     OW13916   0.267   4.160   1.180 -0.5081  0.0303 -0.1498
 4449SOL    HW113917   0.301   4.243   1.214 -0.8400 -0.5074  1.6228
 4449SOL    HW213918   0.185   4.184   1.136  0.8468  0.9980 -2.2996
 4450SOL     OW13919   6.282   3.870   5.728 -0.7401  0.5015  0.3372
 4450SOL    HW113920   6.348   3.802   5.743  1.2463  2.2194 -0.0726
 4450SOL    HW213921   6.245   3.849   5.642 -0.8841 -0.6006  0.6537
 4451SOL     OW13922   1.518   5.819   1.154 -0.1467 -0.0793  0.1382
 4451SOL    HW113923   1.588   5.801   1.216 -0.5658  1.0704  0.9830
 4451SOL    HW213924   1.443   5.770   1.187  0.7102 -3.0795 -1.9352
 4452SOL     OW13925   5.954   2.116   4.421 -0.1178  0.4566 -0.6343
 4452SOL    HW113926   6.032   2.063   4.404 -0.6037 -0.3901 -0.3078
 4452SOL    HW213927   5.885   2.052   4.437 -0.9017  1.1945 -1.0008
 4453SOL     OW13928   5.036   1.262   6.155 -0.3121  0.1078 -0.0974
 4453SOL    HW113929   5.050   1.332   6.092  1.1889  0.4680  0.6037
 4453SOL    HW213930   5.073   1.184   6.114  0.6737  0.3442  0.3274
 4454SOL     OW13931   7.004   5.460   5.933 -0.0398 -0.2217  0.0999
 4454SOL    HW113932   7.023   5.554   5.930 -1.4410  0.1518  1.5113
 4454SOL    HW213933   7.087   5.418   5.910  1.3197  1.3427  1.8052
 4455SOL     OW13934   7.290   1.999   4.830 -0.3635  0.2944  0.1202
 4455SOL    HW113935   7.284   1.938   4.757 -2.6020  0.9746 -0.3398
 4455SOL    HW213936   7.384   2.007   4.847  0.0823 -1.6931 -1.1030
 4456SOL     OW13937   6.954   3.674   3.197  0.7648  0.1198  0.5516
 4456SOL    HW113938   6.926   3.762   3.223 -2.3415 -0.7876  0.5598
 4456SOL    HW213939   6.935   3.670   3.104 -0.0203 -0.8548  0.7463
 4457SOL     OW13940   7.143   5.294   0.768  0.0533 -1.0955  0.0643
 4457SOL    HW113941   7.066   5.295   0.825  0.9656  0.0013  1.3396
 4457SOL    HW213942   7.107   5.276   0.681 -1.6151 -0.8689  0.6528
 4458SOL     OW13943   3.054   5.990   5.559  0.0630  0.3857  0.1233
 4458SOL    HW113944   3.037   6.056   5.493  2.0812  2.1400  1.2426
 4458SOL    HW213945   3.127   5.939   5.524 -0.0542  0.1543  0.2123
 4459SOL     OW13946   2.606   6.198   3.145  0.0129  0.5088 -0.2104
 4459SOL    HW113947   2.606   6.256   3.221 -0.2106  0.1329  0.0824
 4459SOL    HW213948   2.697   6.196   3.115 -0.0180  1.1952 -0.3724
 4460SOL     OW13949   4.569   3.527   5.290  0.2447 -0.0917 -0.0650
 4460SOL    HW113950   4.598   3.495   5.375  0.4794 -0.4099 -0.2593
 4460SOL    HW213951   4.479   3.555   5.304  0.9484  1.8622  0.7950
 4461SOL     OW13952   5.201   5.584   7.036 -0.8898  0.5887 -0.1321
 4461SOL    HW113953   5.185   5.583   6.942 -0.1892 -0.3467 -0.2559
 4461SOL    HW213954   5.119   5.552   7.075 -0.9957  0.4611 -0.4601
 4462SOL     OW13955   4.619   4.788   5.255 -0.3138 -0.5459  0.4415
 4462SOL    HW113956   4.586   4.699   5.266  0.6639 -1.1110 -0.9596
 4462SOL    HW213957   4.714   4.778   5.244 -0.4028  0.4268 -1.8636
 4463SOL     OW13958   0.159   1.951   0.273 -0.1995 -0.7562 -0.1541
 4463SOL    HW113959   0.240   1.968   0.320 -0.3427 -1.1477  0.2341
 4463SOL    HW213960   0.187   1.912   0.190  0.1879  1.7977 -1.3342
 4464SOL     OW13961   6.433   2.257   5.304 -0.4664 -0.0554 -0.4190
 4464SOL    HW113962   6.456   2.255   5.212 -2.0545  1.9492 -0.9283
 4464SOL    HW213963   6.440   2.349   5.329 -0.6018 -0.4715  1.3215
 4465SOL     OW13964   4.636   5.493   3.367 -0.0647 -0.0011  0.5324
 4465SOL    HW113965   4.705   5.451   3.418 -0.6287 -0.1975  1.1463
 4465SOL    HW213966   4.569   5.425   3.357  0.0640  0.0036 -0.5534
 4466SOL     OW13967   3.851   2.962   6.559 -0.8212  0.6334  0.0700
 4466SOL    HW113968   3.883   2.991   6.644  0.0133 -2.1908  0.8229
 4466SOL    HW213969   3.930   2.951   6.505 -1.1815  0.7516 -0.4913
 4467SOL     OW13970   2.952   2.274   6.736  0.5488  0.2587  0.2791
 4467SOL    HW113971   3.026   2.215   6.721  1.6583  1.3634  1.2162
 4467SOL    HW213972   2.991   2.362   6.735 -0.6525  0.8284  1.3506
 4468SOL     OW13973   6.361   1.158   2.144  0.2076  0.3532  0.0520
 4468SOL    HW113974   6.452   1.139   2.121  0.7863  1.3682  1.3311
 4468SOL    HW213975   6.339   1.093   2.211 -0.6058 -0.9665 -1.4452
 4469SOL     OW13976   7.308   7.020   2.353  0.1543 -0.3586 -0.3352
 4469SOL    HW113977   7.306   7.026   2.258 -0.2069  2.5563 -0.2273
 4469SOL    HW213978   7.240   7.080   2.382 -0.9298 -2.4714  1.7875
 4470SOL     OW13979   3.058   0.161   5.062 -0.0140 -0.3122 -0.3739
 4470SOL    HW113980   3.033   0.233   5.120 -1.4386 -0.3254 -0.9202
 4470SOL    HW213981   3.063   0.084   5.119  0.0176 -0.0578 -0.0329
 4471SOL     OW13982   2.661   5.356   0.832  0.3114  0.1180  0.2831
 4471SOL    HW113983   2.696   5.402   0.908 -0.5931 -0.2829  0.9519
 4471SOL    HW213984   2.627   5.274   0.866 -1.9813  0.7970 -0.1839
 4472SOL     OW13985   7.256   2.926   0.158 -0.5848  0.2222 -0.4328
 4472SOL    HW113986   7.264   3.021   0.162  0.6450  0.1164  0.2350
 4472SOL    HW213987   7.188   2.905   0.223 -0.5212  0.6118 -0.2358
 4473SOL     OW13988   5.588   3.730   3.973 -0.2450 -0.4661 -0.1673
 4473SOL    HW113989   5.503   3.689   3.990 -0.0648 -0.5475  0.5777
 4473SOL    HW213990   5.566   3.818   3.940 -0.6251 -0.0012  1.2736
 4474SOL     OW13991   7.377   6.494   1.108  0.4319 -0.0026 -0.3561
 4474SOL    HW113992   7.338   6.503   1.194  0.9407 -1.1080  0.0071
 4474SOL    HW213993   7.413   6.581   1.089  1.6767 -0.1153  1.2296
 4475SOL     OW13994   5.982   6.790   1.385 -0.4163  0.0252 -0.5815
 4475SOL    HW113995   5.921   6.838   1.329 -1.6273 -1.5693 -0.6827
 4475SOL    HW213996   5.956   6.813   1.474 -1.7486 -1.2774 -0.6020
 4476SOL     OW13997   0.474   4.793   6.481  0.0596 -0.0784  0.1942
 4476SOL    HW113998   0.380   4.779   6.494  0.0510 -1.9566 -1.3015
 4476SOL    HW213999   0.481   4.884   6.453 -1.5308 -0.3020 -1.0988
 4477SOL     OW14000   3.819   3.384   5.193  0.5046 -0.2296 -0.7508
 4477SOL    HW114001   3.850   3.339   5.272  1.0968  0.6155 -0.4842
 4477SOL    HW214002   3.775   3.462   5.225  2.4376  1.1592 -1.2640
 4478SOL     OW14003   1.114   5.777   0.344 -0.1028 -1.0810 -0.1516
 4478SOL    HW114004   1.177   5.834   0.301 -0.4448  1.1426  2.0410
 4478SOL    HW214005   1.159   5.693   0.352  1.3925 -0.4287 -1.3210
 4479SOL     OW14006   3.307   3.770   4.229  0.3149  0.1849  0.5460
 4479SOL    HW114007   3.328   3.762   4.136 -1.9476  0.0726 -0.0051
 4479SOL    HW214008   3.381   3.728   4.273  1.2843 -0.0553 -1.1963
 4480SOL     OW14009   4.073   5.464   0.674 -0.0425 -0.7021  0.6598
 4480SOL    HW114010   4.002   5.527   0.664 -1.4269 -2.0356  1.6241
 4480SOL    HW214011   4.044   5.387   0.625 -0.4061 -2.1111  2.9303
 4481SOL     OW14012   1.440   4.453   3.751 -0.0514  0.0543 -0.6778
 4481SOL    HW114013   1.535   4.440   3.749  0.1371  1.2923 -0.4292
 4481SOL    HW214014   1.404   4.371   3.716  1.1051 -0.4065 -0.8342
 4482SOL     OW14015   1.734   2.427   4.368 -0.1651  1.1519  0.0088
 4482SOL    HW114016   1.829   2.429   4.357 -0.3016  0.3219 -1.4429
 4482SOL    HW214017   1.706   2.517   4.351  0.2865  1.2527 -0.2077
 4483SOL     OW14018   0.220   1.570   4.509  0.5842  0.1169  0.3110
 4483SOL    HW114019   0.156   1.515   4.555 -1.1223  0.9386 -0.9429
 4483SOL    HW214020   0.305   1.541   4.541 -0.4085 -1.1278  1.9628
 4484SOL     OW14021   4.143   2.154   7.009  0.5178 -0.1809  0.3909
 4484SOL    HW114022   4.119   2.100   7.084  2.6480  2.3775  3.1582
 4484SOL    HW214023   4.230   2.123   6.984  1.0231  0.8349  0.8743
 4485SOL     OW14024   1.641   7.269   2.787 -0.4456 -0.7672 -0.0782
 4485SOL    HW114025   1.699   7.196   2.806 -2.3209 -1.8290  2.0915
 4485SOL    HW214026   1.651   7.328   2.861 -1.9262 -0.8888  0.2564
 4486SOL     OW14027   0.383   5.842   6.090  0.1898  0.0085  0.2613
 4486SOL    HW114028   0.403   5.753   6.062 -1.1546 -0.5306  0.9487
 4486SOL    HW214029   0.287   5.846   6.094  0.1954  1.6208 -0.1840
 4487SOL     OW14030   6.504   5.670   0.960 -0.0508 -0.2893  0.2959
 4487SOL    HW114031   6.489   5.737   0.893 -1.1160  0.7517  1.5204
 4487SOL    HW214032   6.536   5.719   1.036 -0.5994 -1.1899  1.1375
 4488SOL     OW14033   5.549   6.344   2.575 -0.0886  0.1436  0.3531
 4488SOL    HW114034   5.551   6.322   2.668  1.6977  0.6571  0.4787
 4488SOL    HW214035   5.601   6.424   2.568  1.5706 -0.9746 -1.3245
 4489SOL     OW14036   4.855   1.620   0.951  0.2878 -0.0917 -0.4384
 4489SOL    HW114037   4.846   1.690   0.886 -0.6587  1.0733  0.8735
 4489SOL    HW214038   4.919   1.654   1.014  1.1445 -1.1688 -0.7077
 4490SOL     OW14039   3.837   2.491   2.563 -0.2292 -0.5699  0.8123
 4490SOL    HW114040   3.767   2.548   2.532  0.7146 -0.5770 -1.4940
 4490SOL    HW214041   3.805   2.402   2.546  1.0758 -0.5643 -2.2788
 4491SOL     OW14042   3.300   0.480   0.918 -0.4090 -0.1736 -0.2065
 4491SOL    HW114043   3.345   0.432   0.987 -0.2214 -0.4367 -0.5121
 4491SOL    HW214044   3.348   0.563   0.912  0.4412 -0.6991 -0.9594
 4492SOL     OW14045   5.176   0.123   3.335  0.2907  0.6857 -0.3141
 4492SOL    HW114046   5.137   0.182   3.399  0.1772  1.9786 -1.5409
 4492SOL    HW214047   5.233   0.178   3.282 -0.4669 -0.0947 -2.0296
 4493SOL     OW14048   6.291   3.171   3.447 -0.9985  0.1137 -0.0260
 4493SOL    HW114049   6.280   3.089   3.495 -1.9358 -0.3436 -0.9929
 4493SOL    HW214050   6.385   3.187   3.449 -0.7912 -1.0219  0.1287
 4494SOL     OW14051   3.394   2.311   1.224 -0.7349 -0.2494 -0.5387
 4494SOL    HW114052   3.407   2.224   1.186 -0.1159 -0.0747 -0.7352
 4494SOL    HW214053   3.310   2.340   1.188 -0.0803 -0.0105 -1.9743
 4495SOL     OW14054   6.484   3.015   5.497  0.2051 -0.2618  0.6155
 4495SOL    HW114055   6.407   2.966   5.527 -0.2075 -1.1323 -1.6672
 4495SOL    HW214056   6.539   3.022   5.575 -2.0316  0.1595  2.2566
 4496SOL     OW14057   0.324   6.210   5.300 -0.2617  0.3140 -0.2412
 4496SOL    HW114058   0.281   6.241   5.380  1.8325 -0.2437  1.1650
 4496SOL    HW214059   0.307   6.116   5.297  0.3488  0.1918  0.0064
 4497SOL     OW14060   1.249   6.342   3.211  0.2434 -0.2119  0.0193
 4497SOL    HW114061   1.223   6.313   3.299 -0.9085 -2.5796 -1.0197
 4497SOL    HW214062   1.297   6.423   3.226 -0.7232 -0.0410  2.7540
 4498SOL     OW14063   1.627   2.282   2.146  0.8655  0.7317 -0.2791
 4498SOL    HW114064   1.723   2.284   2.144  0.8680  2.4960 -0.4465
 4498SOL    HW214065   1.601   2.341   2.075 -0.3406  0.4004 -0.1240
 4499SOL     OW14066   0.575   4.857   6.750 -0.0420  0.0798  0.0056
 4499SOL    HW114067   0.618   4.778   6.783 -0.0210  0.3511  0.6386
 4499SOL    HW214068   0.555   4.837   6.658  0.8433 -0.2911 -0.1134
 4500SOL     OW14069   6.797   4.265   2.536 -0.5431  0.0712  0.7788
 4500SOL    HW114070   6.780   4.356   2.512 -1.5531 -0.0778  0.8989
 4500SOL    HW214071   6.875   4.269   2.591 -1.6662  1.0968  2.3983
 4501SOL     OW14072   7.045   0.118   5.912  0.3241  0.0618 -0.1048
 4501SOL    HW114073   7.090   0.080   5.837  2.1154  1.4199  0.2087
 4501SOL    HW214074   7.108   0.181   5.949 -1.4521  1.2929  1.0055
 4502SOL     OW14075   3.591   0.596   5.929 -0.2955 -0.3149 -0.0544
 4502SOL    HW114076   3.575   0.586   6.023  1.5367 -1.8504  0.1716
 4502SOL    HW214077   3.504   0.601   5.890 -1.1109 -0.2967  1.6669
 4503SOL     OW14078   0.453   5.252   5.296 -0.2988  0.5080 -0.0355
 4503SOL    HW114079   0.366   5.292   5.293 -0.9278 -0.3315  2.9801
 4503SOL    HW214080   0.510   5.324   5.325 -0.4625  0.4973  0.3273
 4504SOL     OW14081   3.991   3.597   0.784  0.3654 -0.3849 -0.0695
 4504SOL    HW114082   4.021   3.521   0.833  0.4757 -0.2741  0.0367
 4504SOL    HW214083   4.069   3.652   0.775 -0.1458  0.7153  1.6766
 4505SOL     OW14084   4.099   3.674   6.083 -0.4580 -0.4846  0.0568
 4505SOL    HW114085   4.094   3.767   6.061  3.1601 -0.5984 -2.0757
 4505SOL    HW214086   4.010   3.641   6.067 -1.0675  1.9873 -2.5712
 4506SOL     OW14087   1.828   2.897   6.086  0.3682 -0.9591 -0.2260
 4506SOL    HW114088   1.776   2.895   6.005  0.8074  4.2625 -1.0148
 4506SOL    HW214089   1.911   2.856   6.062  0.8713  1.2933 -2.9808
 4507SOL     OW14090   6.609   6.512   4.522  0.1258  0.4609  0.0256
 4507SOL    HW114091   6.589   6.477   4.608  1.6214  2.4469  1.2719
 4507SOL    HW214092   6.547   6.469   4.463 -2.0418  0.2468  2.3180
 4508SOL     OW14093   3.781   3.915   3.219 -0.2429 -0.0477  0.0209
 4508SOL    HW114094   3.823   3.993   3.183 -0.9101 -0.2341 -1.2110
 4508SOL    HW214095   3.697   3.909   3.174 -1.0983 -0.3530  1.5681
 4509SOL     OW14096   3.457   3.349   6.544 -0.1285 -0.2017  0.1387
 4509SOL    HW114097   3.461   3.288   6.618 -0.4162 -1.3847 -0.7931
 4509SOL    HW214098   3.534   3.328   6.492 -0.5216 -0.1449 -0.4748
 4510SOL     OW14099   7.381   5.057   0.039 -0.1446 -0.6627 -0.0730
 4510SOL    HW114100   7.346   5.049   0.127  1.9176  0.0786  0.8958
 4510SOL    HW214101   7.361   5.146   0.012  0.1222 -0.5529  0.0859
 4511SOL     OW14102   3.277   5.989   4.046  1.1749  0.0017 -0.1072
 4511SOL    HW114103   3.308   5.899   4.048  0.6080 -0.2257 -0.9682
 4511SOL    HW214104   3.181   5.982   4.049  1.1267  0.5868 -0.0083
 4512SOL     OW14105   1.606   6.640   5.665 -0.0850 -0.3158 -0.2799
 4512SOL    HW114106   1.674   6.573   5.660  1.2112  0.7048  1.8986
 4512SOL    HW214107   1.549   6.612   5.736 -0.0758  0.3795  0.0192
 4513SOL     OW14108   4.982   7.301   2.958  0.5684 -0.4420  0.0790
 4513SOL    HW114109   5.077   7.313   2.946  0.1286  3.2895 -1.0046
 4513SOL    HW214110   4.951   7.269   2.873  0.5392  1.6516 -0.7649
 4514SOL     OW14111   0.759   2.545   1.493  0.0224  0.3699 -0.5809
 4514SOL    HW114112   0.793   2.475   1.548 -2.4221 -1.0602 -0.7233
 4514SOL    HW214113   0.719   2.500   1.418 -1.4952  1.8731 -0.7520
 4515SOL     OW14114   6.083   4.570   1.774 -0.4172 -0.6591  0.5707
 4515SOL    HW114115   6.035   4.492   1.800  0.3677 -1.9494 -1.6103
 4515SOL    HW214116   6.016   4.639   1.769 -1.1465 -1.1801  2.3226
 4516SOL     OW14117   6.404   6.012   1.371  0.5573 -0.0427 -0.1925
 4516SOL    HW114118   6.330   6.063   1.336  0.2776 -0.5134 -0.2969
 4516SOL    HW214119   6.412   6.040   1.462  0.7964  0.6319 -0.4130
 4517SOL     OW14120   5.529   3.615   1.831 -0.6202  0.2155  0.4855
 4517SOL    HW114121   5.437   3.613   1.856 -0.5641  0.6613  0.7357
 4517SOL    HW214122   5.572   3.664   1.901 -0.6421  2.6054 -1.0632
 4518SOL     OW14123   0.705   1.714   2.058 -0.7103 -0.0855 -0.0650
 4518SOL    HW114124   0.769   1.703   1.987 -0.4584  1.0657 -0.0411
 4518SOL    HW214125   0.650   1.636   2.053  0.3738 -0.8606 -0.4160
 4519SOL     OW14126   3.755   4.859   3.060  0.3575 -0.1590 -0.2222
 4519SOL    HW114127   3.684   4.916   3.030  0.4951  0.6872  1.0049
 4519SOL    HW214128   3.823   4.919   3.089  0.3329 -0.9234  1.5090
 4520SOL     OW14129   7.039   1.031   0.954 -0.1536 -0.0541 -0.3391
 4520SOL    HW114130   7.065   1.051   0.864 -1.2808 -1.4482 -0.9951
 4520SOL    HW214131   6.990   0.950   0.948 -2.2667  1.0151  1.2150
 4521SOL     OW14132   0.918   3.969   2.034 -0.2551  0.2280 -0.3219
 4521SOL    HW114133   0.848   4.009   1.984  1.3249  0.7915 -2.2223
 4521SOL    HW214134   0.962   4.042   2.078  0.9213  0.3005 -1.5522
 4522SOL     OW14135   6.753   1.071   1.340 -0.1981  0.2680  0.0657
 4522SOL    HW114136   6.718   1.154   1.308 -1.0079  0.9289  2.4761
 4522SOL    HW214137   6.678   1.011   1.336 -0.1364  0.1861  0.1415
 4523SOL     OW14138   7.213   1.098   6.417 -0.2999 -0.0655  0.1796
 4523SOL    HW114139   7.238   1.093   6.509 -0.8937 -0.9038  0.3068
 4523SOL    HW214140   7.242   1.015   6.380 -0.3319  0.1445 -0.3305
 4524SOL     OW14141   0.446   1.309   1.279  0.0557  0.3798 -0.1355
 4524SOL    HW114142   0.523   1.283   1.331  1.6213 -1.0684 -2.9487
 4524SOL    HW214143   0.482   1.359   1.206 -1.7846  0.3204 -1.1353
 4525SOL     OW14144   3.806   5.401   2.634 -0.1955 -0.5823 -0.7915
 4525SOL    HW114145   3.801   5.306   2.642 -1.7099 -0.3789  1.6167
 4525SOL    HW214146   3.744   5.423   2.565 -1.3796 -1.2518  0.0177
 4526SOL     OW14147   5.258   0.818   5.417  0.6358  0.1313  0.1043
 4526SOL    HW114148   5.347   0.810   5.384  1.0526 -0.2601  1.2587
 4526SOL    HW214149   5.250   0.748   5.482 -0.9196 -0.5909 -0.8307
 4527SOL     OW14150   6.883   0.813   1.332 -0.0235 -0.0432 -0.7456
 4527SOL    HW114151   6.927   0.842   1.412  0.5026  0.9914 -1.3852
 4527SOL    HW214152   6.837   0.890   1.300  0.8832 -0.0389 -2.1553
 4528SOL     OW14153   1.429   5.379   0.347  0.1062  0.1471  0.2067
 4528SOL    HW114154   1.436   5.296   0.393  0.4724  0.2042  0.2520
 4528SOL    HW214155   1.476   5.365   0.265 -1.4542 -0.3134 -0.6649
 4529SOL     OW14156   5.766   5.805   5.396  0.3265 -0.0676  0.0798
 4529SOL    HW114157   5.681   5.764   5.413 -0.9826  2.6463  0.6159
 4529SOL    HW214158   5.817   5.788   5.476 -2.1293  3.7045  2.8064
 4530SOL     OW14159   1.099   7.380   1.853  0.0350 -0.0085 -0.0558
 4530SOL    HW114160   1.145   7.362   1.935  0.6305 -0.2878 -0.4443
 4530SOL    HW214161   1.077   7.293   1.819 -0.7240  0.1176  0.0846
 4531SOL     OW14162   4.731   6.179   2.053 -0.3613 -0.3740  0.1011
 4531SOL    HW114163   4.681   6.144   2.127  0.0036 -2.4870 -0.5700
 4531SOL    HW214164   4.686   6.259   2.028 -0.7042  0.1978  2.3596
 4532SOL     OW14165   7.168   0.720   0.013  0.0814 -0.2334  0.3038
 4532SOL    HW114166   7.166   0.758  -0.075 -0.1804 -1.2288 -0.1465
 4532SOL    HW214167   7.261   0.720   0.037  0.1513  0.0835  0.0446
 4533SOL     OW14168   2.643   1.894   3.061 -0.4762  0.0079  0.0103
 4533SOL    HW114169   2.608   1.805   3.049 -0.7788  0.1865 -0.4671
 4533SOL    HW214170   2.709   1.903   2.992 -0.0373 -0.0437  0.4160
 4534SOL     OW14171   7.048   1.328   6.531 -0.5938 -0.1844 -0.0244
 4534SOL    HW114172   7.073   1.341   6.440 -1.2592  0.0089 -0.1886
 4534SOL    HW214173   6.957   1.359   6.536 -0.7362 -0.6571  0.5861
 4535SOL     OW14174   6.237   6.083   7.072 -0.3679 -0.1887 -0.0571
 4535SOL    HW114175   6.261   6.038   7.154  0.1983  0.2342  0.0152
 4535SOL    HW214176   6.219   6.173   7.099 -1.1222 -0.2713 -0.2614
 4536SOL     OW14177   1.720   2.404   0.109  0.2062  0.0271 -0.0250
 4536SOL    HW114178   1.715   2.404   0.205  1.4973 -1.0951  0.0693
 4536SOL    HW214179   1.813   2.392   0.090  0.0543  0.9485 -1.4386
 4537SOL     OW14180   1.844   7.432   3.383 -0.2688 -0.1458 -0.1768
 4537SOL    HW114181   1.786   7.363   3.350 -1.8754  0.7279  0.7157
 4537SOL    HW214182   1.932   7.399   3.365 -0.9952 -2.1320 -0.3813
 4538SOL     OW14183   6.127   1.656   6.643 -0.0829 -0.3737  0.0440
 4538SOL    HW114184   6.163   1.609   6.567  0.8647 -1.2613  1.0028
 4538SOL    HW214185   6.033   1.639   6.639 -0.1676  0.2394 -1.3418
 4539SOL     OW14186   5.615   5.190   0.953 -0.3339 -0.7275 -0.2196
 4539SOL    HW114187   5.547   5.246   0.916 -1.4659 -1.6646  0.4026
 4539SOL    HW214188   5.579   5.159   1.036  0.1118 -2.6430 -0.7037
 4540SOL     OW14189   0.583   6.762   4.018  0.2402 -0.3195 -0.3464
 4540SOL    HW114190   0.569   6.680   3.970 -0.3971  0.7808 -2.1204
 4540SOL    HW214191   0.502   6.775   4.067 -0.9204  0.7392 -2.4401
 4541SOL     OW14192   0.412   3.936   6.893  0.3798  0.4307  0.0944
 4541SOL    HW114193   0.397   3.861   6.951 -0.8815 -0.6599 -1.5733
 4541SOL    HW214194   0.353   4.003   6.925 -0.6497 -0.3254 -0.1739
 4542SOL     OW14195   2.460   3.758   5.740 -0.2270  0.3513 -0.0832
 4542SOL    HW114196   2.518   3.687   5.769  1.6252  1.4919 -0.7842
 4542SOL    HW214197   2.417   3.723   5.662 -1.2776 -0.8545  0.9822
 4543SOL     OW14198   6.340   0.972   1.761  0.7915  0.3784  0.1084
 4543SOL    HW114199   6.246   0.989   1.760  0.7569  0.2736  1.0069
 4543SOL    HW214200   6.381   1.059   1.763  0.6504  0.4552  2.5448
 4544SOL     OW14201   5.615   5.970   4.530 -0.6253 -0.2736  0.0557
 4544SOL    HW114202   5.583   5.914   4.601 -0.6996 -1.7627 -1.0924
 4544SOL    HW214203   5.674   6.032   4.572 -0.6890 -1.1079  1.4159
 4545SOL     OW14204   1.522   7.434   5.857 -0.6978 -0.4940  0.7667
 4545SOL    HW114205   1.437   7.470   5.883 -1.0884 -1.8336  1.4777
 4545SOL    HW214206   1.585   7.477   5.915 -0.7129  1.3395 -0.5127
 4546SOL     OW14207   6.898   4.203   2.133  0.1253  0.0026 -0.4517
 4546SOL    HW114208   6.895   4.131   2.197  1.9485 -0.9444 -1.3484
 4546SOL    HW214209   6.823   4.258   2.155 -1.6622 -2.4329 -0.0335
 4547SOL     OW14210   3.390   2.692   1.119 -0.2416  0.2935 -0.5012
 4547SOL    HW114211   3.383   2.775   1.167  1.0907  0.0267  0.1817
 4547SOL    HW214212   3.483   2.670   1.122 -0.4061 -0.6268 -1.7139
 4548SOL     OW14213   3.781   4.937   6.955  0.0912  0.0940 -0.0839
 4548SOL    HW114214   3.864   4.981   6.935 -0.8920  2.3267  0.4250
 4548SOL    HW214215   3.783   4.927   7.050 -0.4341  0.6544 -0.0103
 4549SOL     OW14216   2.329   3.177   2.646  0.7034 -0.1336  0.2278
 4549SOL    HW114217   2.338   3.241   2.575  1.3417 -1.2505 -0.7365
 4549SOL    HW214218   2.236   3.155   2.646  0.5160  0.6064  0.4232
 4550SOL     OW14219   1.653   6.269   6.741 -0.4395 -0.1609 -0.6350
 4550SOL    HW114220   1.685   6.183   6.715 -0.1364  0.0964 -1.1179
 4550SOL    HW214221   1.696   6.286   6.825  0.4179  0.0238 -1.1025
 4551SOL     OW14222   2.258   1.143   7.175  0.0710 -0.3042  0.4037
 4551SOL    HW114223   2.274   1.068   7.232  0.9065 -0.2785  0.2095
 4551SOL    HW214224   2.336   1.198   7.183 -0.5476  0.5799  0.5865
 4552SOL     OW14225   5.958   6.859   3.538 -0.1469  0.1729  0.2188
 4552SOL    HW114226   5.955   6.861   3.442  0.4328  0.8413  0.2051
 4552SOL    HW214227   6.051   6.852   3.559 -0.3849 -2.3083  0.7334
 4553SOL     OW14228   7.359   5.482   0.894  0.4697  0.0325  0.6830
 4553SOL    HW114229   7.326   5.397   0.924 -1.4274  0.0975 -1.0610
 4553SOL    HW214230   7.287   5.520   0.843  2.9314  0.5877 -2.6496
 4554SOL     OW14231   6.150   7.336   3.050 -0.1198 -0.3533 -0.2603
 4554SOL    HW114232   6.177   7.246   3.066 -0.5487 -0.0669  2.4658
 4554SOL    HW214233   6.060   7.329   3.019 -0.7183 -0.8366  1.5067
 4555SOL     OW14234   0.826   0.032   3.791 -0.3334  0.2113 -0.4465
 4555SOL    HW114235   0.749  -0.021   3.812  0.5474 -0.9319  0.0156
 4555SOL    HW214236   0.796   0.090   3.721 -1.5697 -0.3012 -0.3774
 4556SOL     OW14237   3.777   4.560   7.215  0.1529  0.1803  0.5494
 4556SOL    HW114238   3.821   4.600   7.140 -1.4760 -3.2115 -2.5378
 4556SOL    HW214239   3.713   4.626   7.243 -0.7054  0.8894 -2.6056
 4557SOL     OW14240   2.778   1.255   7.069  0.4768  0.2744 -0.5272
 4557SOL    HW114241   2.751   1.298   6.988 -1.0306  2.2187  0.9051
 4557SOL    HW214242   2.866   1.288   7.086  0.3416  0.7693 -0.7760
 4558SOL     OW14243   0.879   0.138   6.092 -0.1175  0.6742 -0.1353
 4558SOL    HW114244   0.953   0.081   6.071  0.0570  1.2803 -1.2675
 4558SOL    HW214245   0.893   0.215   6.037 -1.5329  0.8393 -0.2880
 4559SOL     OW14246   2.251   4.532   2.080 -0.4473 -0.1943 -0.1838
 4559SOL    HW114247   2.313   4.597   2.115  0.6287 -1.3395  0.1080
 4559SOL    HW214248   2.195   4.511   2.155 -1.3594  1.0142 -0.5083
 4560SOL     OW14249   1.109   4.755   0.553 -0.3421 -0.6605 -0.0461
 4560SOL    HW114250   1.180   4.740   0.491 -0.5887 -0.2490 -0.4383
 4560SOL    HW214251   1.085   4.847   0.540 -0.4355 -0.5834  0.6212
 4561SOL     OW14252   6.034   2.251   4.811  0.0438 -0.0995 -0.3000
 4561SOL    HW114253   6.037   2.295   4.726 -0.3276  0.1122 -0.2075
 4561SOL    HW214254   5.958   2.193   4.805 -0.6822  0.7595  0.2831
 4562SOL     OW14255   6.284   0.002   4.887 -0.2924 -0.0968 -0.1517
 4562SOL    HW114256   6.368  -0.042   4.874  2.0827  4.1844 -1.2785
 4562SOL    HW214257   6.251   0.017   4.798 -0.7586  0.8173  0.1634
 4563SOL     OW14258   6.947   2.691   4.957 -0.4399  0.1163 -0.6019
 4563SOL    HW114259   6.912   2.755   4.895 -1.7376  1.2530  1.2057
 4563SOL    HW214260   7.042   2.692   4.942 -0.2723  3.2637 -0.0000
 4564SOL     OW14261   6.581   5.431   3.504 -0.2070  0.1664  0.1995
 4564SOL    HW114262   6.638   5.480   3.444  0.9044  0.2904  1.3031
 4564SOL    HW214263   6.497   5.426   3.458  0.4643  0.6472 -1.1564
 4565SOL     OW14264   4.325   2.584   2.547  0.4656  0.3508 -0.0469
 4565SOL    HW114265   4.335   2.531   2.626  2.9833  0.0065 -0.5245
 4565SOL    HW214266   4.282   2.664   2.577  0.4982 -0.1768  1.4806
 4566SOL     OW14267   1.838   1.132   5.953 -0.0203 -0.3216  0.1471
 4566SOL    HW114268   1.856   1.067   5.885 -0.1372  1.3773 -1.5888
 4566SOL    HW214269   1.824   1.214   5.906 -0.8482  0.8024  2.1868
 4567SOL     OW14270   4.838   0.404   6.277 -0.1446  0.7375 -0.0428
 4567SOL    HW114271   4.798   0.459   6.344 -0.4401 -0.8681  1.1619
 4567SOL    HW214272   4.779   0.410   6.202 -2.0155 -0.5805  1.2596
 4568SOL     OW14273   3.344   2.387   4.514  0.1965 -0.3087 -0.1213
 4568SOL    HW114274   3.366   2.294   4.519  0.4500 -0.2238  0.3723
 4568SOL    HW214275   3.413   2.426   4.461 -0.1318 -0.4652 -0.6778
 4569SOL     OW14276   5.286   6.389   1.305 -0.2381 -0.5497  0.5289
 4569SOL    HW114277   5.346   6.444   1.356  0.5614 -2.0674  1.2843
 4569SOL    HW214278   5.311   6.404   1.214  0.1149  0.1678  0.7406
 4570SOL     OW14279   0.520   2.934   4.884  0.1223  0.1868 -0.2520
 4570SOL    HW114280   0.572   2.917   4.962  0.2471  0.9332 -0.1623
 4570SOL    HW214281   0.484   2.849   4.859  1.6092 -0.4054 -0.4774
 4571SOL     OW14282   0.568   0.661   2.552  0.1390  0.7273 -0.3531
 4571SOL    HW114283   0.567   0.697   2.640  0.3547 -0.1458  0.0184
 4571SOL    HW214284   0.566   0.566   2.565 -0.7391  0.5943 -1.2956
 4572SOL     OW14285   6.043   3.715   1.507  0.1211  0.1178 -0.3491
 4572SOL    HW114286   6.120   3.768   1.486  0.0923  0.8924  1.3464
 4572SOL    HW214287   5.994   3.767   1.571 -0.8591 -1.1676  0.0021
 4573SOL     OW14288   1.445   3.456   6.065  0.1836 -0.0195  0.1681
 4573SOL    HW114289   1.450   3.460   6.160 -1.6396 -0.1473  0.2954
 4573SOL    HW214290   1.518   3.511   6.035 -0.3033  1.5294  1.6497
 4574SOL     OW14291   2.919   6.937   1.719  0.2084  0.0530 -0.1082
 4574SOL    HW114292   2.892   6.937   1.627 -0.9065 -1.6507  0.1768
 4574SOL    HW214293   2.841   6.962   1.768  0.4473 -0.2881  0.4562
 4575SOL     OW14294   3.820   5.280   4.358 -0.1577  0.0951  0.1493
 4575SOL    HW114295   3.792   5.361   4.315  1.3282 -0.0761 -1.2011
 4575SOL    HW214296   3.870   5.233   4.292  1.1634 -0.7716  1.6835
 4576SOL     OW14297   5.502   5.274   0.339  0.3435  0.3546  0.1920
 4576SOL    HW114298   5.539   5.248   0.424  0.7966 -0.3276 -0.2060
 4576SOL    HW214299   5.512   5.369   0.336  2.3121  0.1733 -0.0089
 4577SOL     OW14300   0.045   0.937   6.233 -0.3557  0.1954  0.2247
 4577SOL    HW114301   0.081   0.998   6.297  0.6306  0.4542 -0.5606
 4577SOL    HW214302  -0.007   0.991   6.174 -0.3950  0.1141  0.1842
 4578SOL     OW14303   4.022   2.920   1.325 -0.6180  0.2375 -0.6614
 4578SOL    HW114304   3.986   2.952   1.243 -1.2239  1.4074  0.0415
 4578SOL    HW214305   3.947   2.914   1.384 -0.1934 -0.6049 -0.1923
 4579SOL     OW14306   7.428   3.620   5.412 -0.1325  0.1209 -0.2234
 4579SOL    HW114307   7.383   3.545   5.450  1.2393 -0.4227  0.3983
 4579SOL    HW214308   7.521   3.600   5.422  0.3267  2.5944  1.4421
 4580SOL     OW14309   2.341   3.306   5.123  0.1763  0.9783 -0.2268
 4580SOL    HW114310   2.431   3.293   5.153 -0.1316 -0.4903  0.1013
 4580SOL    HW214311   2.304   3.218   5.117 -1.7895  1.6355  1.3366
 4581SOL     OW14312   6.530   5.448   5.025 -0.3674 -0.1433  0.2282
 4581SOL    HW114313   6.594   5.511   5.060 -0.5074  0.8318 -1.1966
 4581SOL    HW214314   6.476   5.499   4.964 -1.1440 -1.4265 -0.2084
 4582SOL     OW14315   1.656   3.690   1.574  0.5223  0.3491 -0.2284
 4582SOL    HW114316   1.742   3.660   1.602 -0.1442 -0.7568  0.6917
 4582SOL    HW214317   1.620   3.617   1.523  0.5833  1.2575 -1.6351
 4583SOL     OW14318   2.788   3.756   3.273  0.4930  0.2219 -0.0281
 4583SOL    HW114319   2.809   3.722   3.359  1.6671  0.7107 -0.1040
 4583SOL    HW214320   2.692   3.750   3.267  0.4929 -0.8330  0.8624
 4584SOL     OW14321   3.966   7.414   0.332 -0.3675 -0.0346 -0.1761
 4584SOL    HW114322   4.055   7.445   0.351 -0.0681 -0.9599 -0.0495
 4584SOL    HW214323   3.970   7.320   0.344 -1.2781 -0.1308 -0.5557
 4585SOL     OW14324   7.417   4.924   5.227 -0.7391 -0.1392 -0.5656
 4585SOL    HW114325   7.500   4.970   5.226 -0.7173 -0.1475  0.3043
 4585SOL    HW214326   7.399   4.908   5.320  0.3590 -3.8958 -0.8623
 4586SOL     OW14327   3.195   0.214   1.923 -0.6290  0.1917  0.1691
 4586SOL    HW114328   3.257   0.240   1.991 -0.9710  1.0061  0.1754
 4586SOL    HW214329   3.130   0.161   1.969 -0.6464  0.4165  0.4057
 4587SOL     OW14330   3.504   4.105   6.195  0.3429 -0.6807 -0.0236
 4587SOL    HW114331   3.596   4.112   6.220  0.0712  1.6355  0.5248
 4587SOL    HW214332   3.494   4.014   6.165  2.7312 -1.0423  0.1050
 4588SOL     OW14333   5.128   2.259   1.224  0.1715 -0.2128  0.0382
 4588SOL    HW114334   5.198   2.267   1.289 -0.9852 -2.4216  1.7038
 4588SOL    HW214335   5.053   2.301   1.265 -1.0782 -3.2365  1.0833
 4589SOL     OW14336   0.736   7.012   7.051  0.0121  0.6902 -0.2418
 4589SOL    HW114337   0.814   6.972   7.011  0.7718  0.4626  1.3905
 4589SOL    HW214338   0.771   7.071   7.118 -1.2173  0.4076  0.6898
 4590SOL     OW14339   7.099   0.922   2.521 -0.1502  0.1300  0.4020
 4590SOL    HW114340   7.088   0.983   2.595  0.6304  2.0475 -0.9869
 4590SOL    HW214341   7.117   0.978   2.446 -1.3270 -1.7366 -1.3704
 4591SOL     OW14342   3.808   5.317   3.101 -0.2380 -0.6197 -0.1244
 4591SOL    HW114343   3.751   5.385   3.064  1.7751  0.4844 -1.3948
 4591SOL    HW214344   3.752   5.240   3.108 -1.8895  0.4002 -1.2695
 4592SOL     OW14345   0.629   6.126   4.398  0.4257  0.2537  0.5938
 4592SOL    HW114346   0.706   6.174   4.428 -0.2787  1.7972  0.0387
 4592SOL    HW214347   0.609   6.065   4.470  2.9276 -1.2063  0.1756
 4593SOL     OW14348   5.485   1.078   0.767  0.1709  0.4644 -0.2621
 4593SOL    HW114349   5.467   0.985   0.753  0.9044  0.3996 -0.8470
 4593SOL    HW214350   5.499   1.087   0.861 -0.4485  0.0848 -0.1316
 4594SOL     OW14351   1.661   6.718   2.977  0.3249 -0.3421 -0.0838
 4594SOL    HW114352   1.662   6.666   2.896  1.9456 -1.5278  0.6516
 4594SOL    HW214353   1.727   6.677   3.032 -0.4977  0.6785  1.7205
 4595SOL     OW14354   1.248   7.195   6.012  0.2674  0.0672  0.1038
 4595SOL    HW114355   1.312   7.226   5.948  0.5504 -0.2026  0.2533
 4595SOL    HW214356   1.189   7.139   5.962 -0.1845  0.7505 -0.1464
 4596SOL     OW14357   5.882   5.897   2.806  0.9180 -0.2715 -0.4048
 4596SOL    HW114358   5.931   5.815   2.809  1.6057  0.1138  2.5587
 4596SOL    HW214359   5.792   5.871   2.827  1.3868 -0.2152  1.9406
 4597SOL     OW14360   1.549   1.824   6.321  0.0777  0.0116  0.4944
 4597SOL    HW114361   1.504   1.771   6.386  0.9287 -0.6839  0.5438
 4597SOL    HW214362   1.577   1.761   6.254 -0.3239  0.6379 -0.2794
 4598SOL     OW14363   5.062   6.287   3.191  0.2971 -0.0143 -0.0924
 4598SOL    HW114364   5.141   6.239   3.167  0.3493  0.2048 -0.3671
 4598SOL    HW214365   4.990   6.228   3.170  0.4377 -1.0373  2.0436
 4599SOL     OW14366   1.294   5.957   5.102  0.1514  0.1036 -0.0427
 4599SOL    HW114367   1.226   5.941   5.167 -0.4596  0.2175 -0.6415
 4599SOL    HW214368   1.360   5.890   5.118 -0.2423 -0.1846  0.3600
 4600SOL     OW14369   0.538   7.300   5.475 -0.2240 -0.4774 -0.3002
 4600SOL    HW114370   0.548   7.299   5.570 -1.2580  0.6219 -0.1441
 4600SOL    HW214371   0.444   7.312   5.461  0.0805  0.9442 -1.4155
 4601SOL     OW14372   3.661   3.745   0.669  0.3147  0.5184 -0.0923
 4601SOL    HW114373   3.727   3.801   0.629  1.5412 -1.6130 -1.2305
 4601SOL    HW214374   3.581   3.765   0.622  1.4806 -1.1423 -3.0622
 4602SOL     OW14375   6.181   0.129   3.992 -0.0131  0.1389  0.0706
 4602SOL    HW114376   6.151   0.092   3.909 -0.8504 -0.4616  0.6283
 4602SOL    HW214377   6.241   0.063   4.026  2.9791  1.7965 -1.5553
 4603SOL     OW14378   5.800   2.438   1.820 -0.9577 -0.0450  0.1301
 4603SOL    HW114379   5.885   2.455   1.859 -0.0303  0.7215 -2.0361
 4603SOL    HW214380   5.795   2.343   1.812  0.1611 -0.0587 -0.6099
 4604SOL     OW14381   3.071   2.186   2.639  0.3545 -0.2551  0.0173
 4604SOL    HW114382   3.122   2.198   2.559  0.5076  2.1546  0.3945
 4604SOL    HW214383   3.118   2.118   2.687  1.6574 -0.0125 -0.8572
 4605SOL     OW14384   4.383   0.218   6.690 -0.4380  0.5024 -0.2481
 4605SOL    HW114385   4.373   0.132   6.731  0.9790  0.4174 -0.0390
 4605SOL    HW214386   4.299   0.262   6.706 -1.0823 -0.7257 -0.1187
 4606SOL     OW14387   3.407   2.053   2.935  0.2265  0.3179 -0.0696
 4606SOL    HW114388   3.455   2.089   2.860  1.3811 -1.3835 -0.1938
 4606SOL    HW214389   3.322   2.027   2.898  0.1336  1.0521 -0.3987
 4607SOL     OW14390   0.249   7.280   7.271  0.6260  0.2534 -0.0540
 4607SOL    HW114391   0.333   7.322   7.256  1.5244 -1.8183 -1.2175
 4607SOL    HW214392   0.270   7.197   7.314 -0.9371  0.2107  0.7266
 4608SOL     OW14393   5.549   2.646   1.402 -0.1373  0.4684 -0.8006
 4608SOL    HW114394   5.454   2.659   1.407 -0.2769 -0.5491 -0.6491
 4608SOL    HW214395   5.564   2.614   1.313  0.3151  2.3813 -1.4814
 4609SOL     OW14396   6.444   6.268   0.320  0.0462  0.0328  0.0072
 4609SOL    HW114397   6.416   6.348   0.364 -0.2073 -1.0631  1.9582
 4609SOL    HW214398   6.392   6.266   0.239 -1.0292  1.1011  0.6283
 4610SOL     OW14399   0.393   2.230   5.397 -0.1908 -0.7412  0.0858
 4610SOL    HW114400   0.435   2.150   5.429  1.8526 -0.3243 -1.3903
 4610SOL    HW214401   0.450   2.301   5.424 -1.5870  0.1993  0.7044
 4611SOL     OW14402   0.200   4.929   4.245 -0.2918  0.0689 -0.5172
 4611SOL    HW114403   0.171   4.995   4.308  2.4329  2.1260 -1.2509
 4611SOL    HW214404   0.171   4.963   4.160  1.7810  0.8303 -0.9808
 4612SOL     OW14405   0.520   4.860   6.169  0.2925  0.7670  0.0140
 4612SOL    HW114406   0.508   4.769   6.196  0.8641  0.8383  0.5247
 4612SOL    HW214407   0.614   4.868   6.153  0.4450  1.5991  1.2072
 4613SOL     OW14408   2.887   0.156   3.448  0.6186  0.3503  0.0757
 4613SOL    HW114409   2.860   0.115   3.366 -1.4499  1.0717  0.3410
 4613SOL    HW214410   2.891   0.250   3.428 -0.3723  0.5868  0.8696
 4614SOL     OW14411   0.892   2.748   5.478 -0.0641  0.1960 -0.0323
 4614SOL    HW114412   0.818   2.743   5.537  0.5787  1.7033  0.9585
 4614SOL    HW214413   0.962   2.700   5.523  0.4448  1.3998  0.5154
 4615SOL     OW14414   7.184   4.441   4.440 -0.1837 -0.0146 -0.5805
 4615SOL    HW114415   7.238   4.422   4.364 -2.0907 -1.1521 -1.7026
 4615SOL    HW214416   7.198   4.535   4.456  1.6335 -0.1483 -1.1584
 4616SOL     OW14417   4.720   5.235   3.066 -0.0275  0.1505 -0.1112
 4616SOL    HW114418   4.755   5.168   3.008 -0.2626 -0.2947  0.2560
 4616SOL    HW214419   4.667   5.187   3.129 -0.1915  0.6809  0.1610
 4617SOL     OW14420   0.478   1.623   0.889  0.2967 -0.1133 -0.0918
 4617SOL    HW114421   0.450   1.620   0.798  0.8390  0.0730 -0.2641
 4617SOL    HW214422   0.435   1.701   0.924  1.9632  1.2064 -0.8266
 4618SOL     OW14423   5.132   1.841   4.358  0.0233 -0.5036  0.0036
 4618SOL    HW114424   5.069   1.892   4.307 -0.4375  0.0984  1.1603
 4618SOL    HW214425   5.087   1.759   4.377 -0.0238 -0.4942 -0.0661
 4619SOL     OW14426   5.653   3.211   4.715 -0.1490  0.4234  0.5628
 4619SOL    HW114427   5.645   3.306   4.720  0.6429  0.5105  0.3755
 4619SOL    HW214428   5.566   3.178   4.738 -0.0289  1.1377  2.1797
 4620SOL     OW14429   5.017   6.693   4.906  0.3371 -0.2040  0.3824
 4620SOL    HW114430   5.094   6.643   4.881 -0.1588 -1.1564  0.7148
 4620SOL    HW214431   4.972   6.710   4.823 -0.5914 -2.1735  0.4280
 4621SOL     OW14432   6.205   1.380   3.372 -0.3226 -0.2038  0.1060
 4621SOL    HW114433   6.111   1.400   3.377  0.1637  2.5291 -0.1667
 4621SOL    HW214434   6.220   1.355   3.281 -0.7046 -0.2953  0.0658
 4622SOL     OW14435   4.688   6.235   3.482  0.2551  0.0917  0.2566
 4622SOL    HW114436   4.709   6.142   3.491  0.4938  0.2885  2.4826
 4622SOL    HW214437   4.593   6.237   3.472  0.3924 -0.4325 -1.4010
 4623SOL     OW14438   2.168   3.590   4.049  0.2236  0.4130 -0.4459
 4623SOL    HW114439   2.215   3.628   4.123  1.0363 -1.6747  0.1613
 4623SOL    HW214440   2.150   3.500   4.075 -1.4310  0.2499 -1.9230
 4624SOL     OW14441   7.050   5.192   6.965  0.2391  0.0297 -0.2901
 4624SOL    HW114442   7.112   5.122   6.942 -1.1786 -0.9237 -1.3877
 4624SOL    HW214443   6.984   5.148   7.019 -0.4421  0.5986 -0.6456
 4625SOL     OW14444   5.631   5.111   6.271  0.0615 -0.0138  0.2542
 4625SOL    HW114445   5.590   5.196   6.288  0.2765  0.4483 -1.4263
 4625SOL    HW214446   5.680   5.091   6.351  0.6314  1.8044  0.3918
 4626SOL     OW14447   5.265   5.040   2.222  0.0094  0.4810 -0.2722
 4626SOL    HW114448   5.189   5.011   2.172 -0.6114  0.0752  0.8813
 4626SOL    HW214449   5.237   5.121   2.264 -0.3287 -0.4359  1.3491
 4627SOL     OW14450   4.623   6.812   7.367  0.3256  0.2303 -0.4372
 4627SOL    HW114451   4.648   6.734   7.319  1.2997 -0.4148  1.0544
 4627SOL    HW214452   4.614   6.783   7.458  1.3608  1.9590  0.2657
 4628SOL     OW14453   4.021   4.712   1.933  0.0830 -0.0960 -0.6631
 4628SOL    HW114454   4.093   4.721   1.871 -0.2519  0.7580 -0.9352
 4628SOL    HW214455   3.970   4.792   1.923 -0.6836 -0.5105 -0.1885
 4629SOL     OW14456   2.372   7.200   5.800 -0.8542 -0.2215  0.4029
 4629SOL    HW114457   2.394   7.108   5.813 -0.8295 -0.2056  0.4745
 4629SOL    HW214458   2.380   7.213   5.705 -0.4082 -0.1807  0.4434
 4630SOL     OW14459   4.672   4.963   7.351  0.2892  0.3052 -0.0429
 4630SOL    HW114460   4.722   4.904   7.295  0.2068  0.1146  0.0857
 4630SOL    HW214461   4.736   4.994   7.415 -0.0934 -1.1335  1.0795
 4631SOL     OW14462   2.730   6.201   5.231  0.3595 -0.1489 -0.1982
 4631SOL    HW114463   2.646   6.163   5.204 -0.3478  0.9405  0.3868
 4631SOL    HW214464   2.707   6.286   5.268  1.7325  0.1655 -0.0093
 4632SOL     OW14465   6.686   1.196   5.666  0.3924 -0.6120  0.1401
 4632SOL    HW114466   6.661   1.288   5.673  0.2811 -0.7440  1.7139
 4632SOL    HW214467   6.604   1.147   5.674  0.3847 -0.8601 -1.1748
 4633SOL     OW14468   2.255   1.475   2.428 -0.3003 -0.0715  0.2340
 4633SOL    HW114469   2.297   1.449   2.511 -2.1698  0.2623  1.3373
 4633SOL    HW214470   2.278   1.404   2.367  0.9819 -0.4107  1.0523
 4634SOL     OW14471   4.205   7.305   3.889 -0.5230  0.3226  0.1017
 4634SOL    HW114472   4.277   7.368   3.893 -0.7803  0.6463 -0.3701
 4634SOL    HW214473   4.222   7.254   3.810 -0.9494  0.5601 -0.1412
 4635SOL     OW14474   1.133   2.770   2.517  0.1778  0.1028 -0.0629
 4635SOL    HW114475   1.068   2.840   2.526  0.0478 -0.1467  1.1437
 4635SOL    HW214476   1.139   2.755   2.423 -1.0250  0.5888 -0.2387
 4636SOL     OW14477   1.849   3.069   0.292 -0.0406  0.1102 -0.2432
 4636SOL    HW114478   1.763   3.061   0.334  0.8833 -1.4417  1.5098
 4636SOL    HW214479   1.833   3.048   0.200 -1.3102 -1.8037  0.3542
 4637SOL     OW14480   0.222   5.033   5.527 -0.3613  0.0759  0.1431
 4637SOL    HW114481   0.215   5.051   5.433 -0.5111  1.6316  0.4273
 4637SOL    HW214482   0.197   4.941   5.535  2.6479 -1.0852 -1.6990
 4638SOL     OW14483   3.086   3.284   5.136 -0.0146  0.0374 -0.2313
 4638SOL    HW114484   3.121   3.242   5.214 -0.4888 -0.4402 -0.2705
 4638SOL    HW214485   3.016   3.226   5.107 -1.1443  1.1804  0.0966
 4639SOL     OW14486   0.420   4.573   1.870  0.0576 -0.6605  0.0503
 4639SOL    HW114487   0.409   4.508   1.939 -0.3145  0.0466  0.6698
 4639SOL    HW214488   0.384   4.653   1.907  1.4502  0.1667 -0.3162
 4640SOL     OW14489   4.728   1.150   6.060 -0.2788 -0.4042  0.3205
 4640SOL    HW114490   4.802   1.178   6.007 -0.5031 -2.5741 -1.2808
 4640SOL    HW214491   4.654   1.147   5.999 -1.1946 -0.3030  1.3918
 4641SOL     OW14492   5.085   1.299   0.712  0.1233  0.0161  0.5992
 4641SOL    HW114493   5.119   1.228   0.767 -0.0921  0.4488  1.3103
 4641SOL    HW214494   5.005   1.327   0.756  0.7444  1.3796  0.9066
 4642SOL     OW14495   1.370   0.332   2.154  0.6541  0.3274 -0.1780
 4642SOL    HW114496   1.463   0.329   2.173  0.8938  0.5877 -1.2439
 4642SOL    HW214497   1.347   0.425   2.160  0.5730  0.3227 -0.3874
 4643SOL     OW14498   3.869   2.179   5.377  0.1722  0.1480 -0.1893
 4643SOL    HW114499   3.930   2.206   5.309  0.9312 -1.3623 -0.1425
 4643SOL    HW214500   3.870   2.083   5.374  0.2613  0.0270  1.9652
 4644SOL     OW14501   0.021   4.329   0.792 -0.1570  0.2069 -0.1194
 4644SOL    HW114502   0.044   4.418   0.764 -0.7525  0.7233  0.9616
 4644SOL    HW214503   0.063   4.272   0.728 -0.8193  1.2971 -1.5915
 4645SOL     OW14504   3.533   5.696   4.216 -0.0541 -0.0801  0.5775
 4645SOL    HW114505   3.469   5.626   4.209 -0.0998 -0.1932  1.8895
 4645SOL    HW214506   3.487   5.765   4.264  0.3136  0.4531  0.1748
 4646SOL     OW14507   0.480   5.866   0.218  0.3026 -0.5170  0.4256
 4646SOL    HW114508   0.515   5.862   0.307 -0.4687 -0.2860  0.7459
 4646SOL    HW214509   0.496   5.957   0.191  2.7007 -1.1621 -0.5925
 4647SOL     OW14510   4.022   0.573   4.286  0.8277  0.0150 -0.7037
 4647SOL    HW114511   4.101   0.608   4.245 -0.1303 -0.1884 -2.8741
 4647SOL    HW214512   4.052   0.499   4.338  2.1386  0.3186 -1.0041
 4648SOL     OW14513   1.227   1.260   0.523 -0.8095 -0.5276 -0.4425
 4648SOL    HW114514   1.132   1.268   0.510 -1.3690 -1.2298  2.3598
 4648SOL    HW214515   1.241   1.289   0.613  1.4992 -1.3933 -0.4519
 4649SOL     OW14516   3.714   6.297   0.717 -0.9326  0.0502 -0.0380
 4649SOL    HW114517   3.660   6.375   0.725 -2.2694 -0.9477  1.3234
 4649SOL    HW214518   3.737   6.275   0.808 -0.1551 -0.8428 -0.4330
 4650SOL     OW14519   0.189   2.051   2.807 -0.1561 -0.1950  0.4753
 4650SOL    HW114520   0.165   2.027   2.717 -2.2313 -1.5044  1.2871
 4650SOL    HW214521   0.160   1.977   2.859 -1.1625  1.4912  2.4751
 4651SOL     OW14522   0.346   2.170   2.440 -0.0671 -0.2537  0.3816
 4651SOL    HW114523   0.335   2.191   2.347 -0.5965  2.1602  0.9130
 4651SOL    HW214524   0.274   2.111   2.460  1.3799 -2.7353 -1.1995
 4652SOL     OW14525   5.809   3.887   5.734  0.5080 -0.9114 -0.6862
 4652SOL    HW114526   5.854   3.804   5.745  1.2618 -0.2881  1.4083
 4652SOL    HW214527   5.868   3.952   5.771 -0.6158  0.4046 -1.0860
 4653SOL     OW14528   1.014   6.522   1.689 -0.5586 -0.2266 -0.2010
 4653SOL    HW114529   0.973   6.438   1.671 -0.6013 -0.0081 -1.1573
 4653SOL    HW214530   1.086   6.501   1.749 -0.9721 -0.8472  0.0906
 4654SOL     OW14531   4.124   0.113   3.562 -0.0780  0.1311 -0.4225
 4654SOL    HW114532   4.122   0.131   3.656  2.8578  0.2090 -0.2973
 4654SOL    HW214533   4.067   0.037   3.551 -2.0443  1.2855  1.0654
 4655SOL     OW14534   6.356   7.442   5.269 -0.1584 -0.2018 -0.1216
 4655SOL    HW114535   6.290   7.377   5.293  0.3140 -2.1730 -3.5757
 4655SOL    HW214536   6.315   7.495   5.202  1.0904 -0.1628 -0.8862
 4656SOL     OW14537   3.040   6.106   3.596  0.6639 -0.1883  0.0456
 4656SOL    HW114538   3.080   6.193   3.601  0.5223 -0.1259  0.1212
 4656SOL    HW214539   3.110   6.049   3.566  0.7550 -0.0452 -0.0154
 4657SOL     OW14540   1.326   6.489   3.723 -0.0037 -0.0378  0.4070
 4657SOL    HW114541   1.383   6.437   3.668 -0.5340  0.8745 -1.0569
 4657SOL    HW214542   1.294   6.428   3.789  0.5120 -1.1989 -0.3908
 4658SOL     OW14543   6.045   2.829   3.462  0.1170  0.0538 -0.2347
 4658SOL    HW114544   6.038   2.889   3.536 -0.5814 -2.5084  1.9031
 4658SOL    HW214545   6.139   2.814   3.452  0.1903 -0.0650  0.5651
 4659SOL     OW14546   2.820   3.122   0.015  0.6910  0.3150  0.0246
 4659SOL    HW114547   2.899   3.087   0.056  1.7633 -0.6066 -2.6280
 4659SOL    HW214548   2.763   3.047   0.004  1.0815  0.2287 -1.5454
 4660SOL     OW14549   6.052   4.154   3.490  0.3048  0.2942  0.1682
 4660SOL    HW114550   6.132   4.204   3.474  0.6879 -0.1662  0.6041
 4660SOL    HW214551   6.050   4.089   3.419 -0.9956  1.8592 -1.3098
 4661SOL     OW14552   2.073   5.212   6.479 -0.2069 -0.0859 -0.5166
 4661SOL    HW114553   1.987   5.195   6.439 -0.7609  2.1445 -0.4325
 4661SOL    HW214554   2.126   5.246   6.407  0.9798 -2.3344 -0.7890
 4662SOL     OW14555   0.472   5.187   6.979 -0.1345  0.4431 -0.2750
 4662SOL    HW114556   0.516   5.269   6.998 -1.1254  0.9479 -0.0823
 4662SOL    HW214557   0.403   5.180   7.045 -0.9313  0.1347 -1.1004
 4663SOL     OW14558   6.204   3.768   4.767  0.2812  0.8904 -0.1752
 4663SOL    HW114559   6.250   3.733   4.842 -0.0136  1.2919  0.2009
 4663SOL    HW214560   6.270   3.819   4.719 -0.0966  2.8430  1.2434
 4664SOL     OW14561   1.273   4.993   0.807 -0.0278 -0.3814  0.2931
 4664SOL    HW114562   1.230   5.061   0.859 -0.0382 -0.3357  0.2250
 4664SOL    HW214563   1.244   5.010   0.717 -2.1191 -2.0215  0.5841
 4665SOL     OW14564   6.129   6.506   1.681  0.3673 -0.1874  0.1966
 4665SOL    HW114565   6.109   6.582   1.736  0.3873  0.0018 -0.0572
 4665SOL    HW214566   6.151   6.543   1.596  1.8476 -0.3884  0.4632
 4666SOL     OW14567   5.036   2.581   5.577 -0.1293  0.6100 -0.2920
 4666SOL    HW114568   4.963   2.609   5.633 -0.2712 -1.4718  0.6771
 4666SOL    HW214569   5.065   2.661   5.534 -1.7850  1.8285  0.7101
 4667SOL     OW14570   0.623   7.049   5.443 -0.2476 -0.0623 -0.2215
 4667SOL    HW114571   0.560   6.998   5.393 -0.7037  1.2238 -0.9939
 4667SOL    HW214572   0.579   7.132   5.462  1.2608  0.9640 -0.9789
 4668SOL     OW14573   3.480   3.610   5.776 -0.3468 -0.2994 -0.0755
 4668SOL    HW114574   3.454   3.648   5.860  0.7752 -1.5504  0.8771
 4668SOL    HW214575   3.531   3.532   5.799 -0.5964 -1.0760 -1.9286
 4669SOL     OW14576   5.541   6.442   2.143  0.0690  0.9118 -0.1263
 4669SOL    HW114577   5.480   6.421   2.213 -0.2373  1.0598 -0.3461
 4669SOL    HW214578   5.601   6.507   2.180 -0.4352  1.4077 -0.1761
 4670SOL     OW14579   2.417   4.816   2.783  0.0043  0.6682  0.6228
 4670SOL    HW114580   2.408   4.721   2.793  0.8999  0.5914  0.7977
 4670SOL    HW214581   2.336   4.852   2.818 -0.6880 -0.0703 -0.1752
 4671SOL     OW14582   4.466   7.148   1.194  0.3868 -0.3729  0.6693
 4671SOL    HW114583   4.527   7.212   1.232  0.9382  0.4466 -1.4743
 4671SOL    HW214584   4.415   7.117   1.269  0.1488  2.5048  1.8430
 4672SOL     OW14585   5.592   2.601   3.483  0.2488  0.5710 -0.3520
 4672SOL    HW114586   5.578   2.691   3.513  0.2027  0.6255 -0.5331
 4672SOL    HW214587   5.685   2.597   3.461  0.5222  0.2172  0.8225
 4673SOL     OW14588   5.443   6.496   6.298 -0.1192 -0.1761 -0.4826
 4673SOL    HW114589   5.494   6.430   6.251 -0.4317 -0.6022 -0.2295
 4673SOL    HW214590   5.407   6.552   6.230 -1.5765 -1.5096 -0.8648
 4674SOL     OW14591   5.194   6.343   7.112  0.2464  0.0921 -0.4622
 4674SOL    HW114592   5.228   6.355   7.201 -1.3562  0.2638  0.1587
 4674SOL    HW214593   5.112   6.295   7.124  0.3935 -0.5871 -1.9232
 4675SOL     OW14594   4.354   6.226   7.321  0.0556 -0.6719  0.1071
 4675SOL    HW114595   4.433   6.249   7.273 -1.1301  0.1645 -1.5261
 4675SOL    HW214596   4.339   6.134   7.299 -0.9465 -0.0768 -1.9151
 4676SOL     OW14597   6.015   0.404   5.219 -0.5532  0.5482  0.1313
 4676SOL    HW114598   6.060   0.336   5.270  0.4874  0.8071 -0.4118
 4676SOL    HW214599   5.923   0.376   5.217 -0.1531 -0.8339 -0.0460
 4677SOL     OW14600   1.450   5.984   2.075 -0.0855 -0.2449  0.3439
 4677SOL    HW114601   1.425   6.001   2.166  2.4878  1.0678  0.9061
 4677SOL    HW214602   1.517   5.916   2.082  0.5142  0.2511 -0.5036
 4678SOL     OW14603   1.116   7.064   5.099  0.7555  0.6873  0.1012
 4678SOL    HW114604   1.109   7.079   5.194  0.8916  1.3223  0.0173
 4678SOL    HW214605   1.048   7.001   5.080  1.7698 -0.7062  0.8882
 4679SOL     OW14606   5.675   2.740   3.765  0.0407 -0.2081  0.4518
 4679SOL    HW114607   5.624   2.664   3.794 -0.6909  0.1168  0.0530
 4679SOL    HW214608   5.746   2.702   3.713 -0.0646 -0.6460  0.6232
 4680SOL     OW14609   0.356   6.492   5.552 -0.9682  0.1528  0.1301
 4680SOL    HW114610   0.370   6.517   5.644  1.7733 -1.9813  0.4096
 4680SOL    HW214611   0.292   6.421   5.557 -2.3080  1.3150  0.1377
 4681SOL     OW14612   5.362   3.395   2.608 -0.0314 -0.5112 -0.6700
 4681SOL    HW114613   5.407   3.480   2.616  0.5854 -0.9063  0.2625
 4681SOL    HW214614   5.311   3.403   2.527  0.1459  0.6865 -0.6934
 4682SOL     OW14615   1.951   7.272   4.875 -0.0484 -0.2422 -0.2023
 4682SOL    HW114616   1.881   7.207   4.876  0.5882 -0.9319  0.3359
 4682SOL    HW214617   1.999   7.258   4.956  0.0239  1.0022  0.0006
 4683SOL     OW14618   5.155   7.223   4.249  0.1172 -0.5519 -0.4398
 4683SOL    HW114619   5.104   7.202   4.327 -0.9994  0.7966 -0.7801
 4683SOL    HW214620   5.122   7.164   4.182 -0.7860  0.0905 -0.5713
 4684SOL     OW14621   5.479   4.262   5.169 -0.0723  0.1831 -0.2149
 4684SOL    HW114622   5.551   4.271   5.106 -0.3284 -1.0132 -0.7047
 4684SOL    HW214623   5.483   4.341   5.222 -0.0863  1.4413 -1.9962
 4685SOL     OW14624   4.389   6.905   0.296  0.3182 -0.0367 -0.6454
 4685SOL    HW114625   4.434   6.987   0.272 -1.6364  0.7065 -2.0845
 4685SOL    HW214626   4.309   6.934   0.339  1.4466 -1.3426  2.6093
 4686SOL     OW14627   4.113   3.284   1.670  0.4535 -0.7365  0.0211
 4686SOL    HW114628   4.132   3.190   1.678 -1.0970 -1.0454  0.3919
 4686SOL    HW214629   4.083   3.294   1.579 -0.8409 -0.8916  0.4237
 4687SOL     OW14630   2.802   4.467   1.765 -0.0406 -0.2270 -0.4307
 4687SOL    HW114631   2.888   4.432   1.744  0.1479 -0.5504  0.8334
 4687SOL    HW214632   2.820   4.546   1.816 -0.4933  0.1604 -0.8580
 4688SOL     OW14633   1.986   5.188   2.529  0.0915  0.0130 -0.3279
 4688SOL    HW114634   1.938   5.111   2.498 -1.6907  1.2744 -0.8098
 4688SOL    HW214635   2.067   5.188   2.478 -0.9015 -0.3087 -1.9555
 4689SOL     OW14636   6.066   1.493   6.992  0.2209  0.3332  0.1451
 4689SOL    HW114637   5.972   1.474   6.982  0.6051 -0.7757 -1.9382
 4689SOL    HW214638   6.102   1.415   7.034  0.1949  0.9198  1.3136
 4690SOL     OW14639   4.503   6.262   1.904 -0.3223  0.2617  0.3809
 4690SOL    HW114640   4.516   6.277   1.810  1.7877  2.3186  0.9218
 4690SOL    HW214641   4.415   6.297   1.921 -0.9259 -0.5455 -0.8610
 4691SOL     OW14642   2.057   0.801   2.035  0.3245 -0.7963 -0.1856
 4691SOL    HW114643   2.078   0.767   2.122 -1.2991 -2.4329 -0.3609
 4691SOL    HW214644   2.115   0.752   1.976 -0.5192 -1.7513 -0.2454
 4692SOL     OW14645   3.219   6.896   3.833 -0.2331  0.3132 -0.5977
 4692SOL    HW114646   3.208   6.987   3.808 -1.2288 -0.2829 -2.5403
 4692SOL    HW214647   3.263   6.856   3.758 -1.6397 -1.2041 -0.6730
 4693SOL     OW14648   6.815   1.347   3.147  0.1391  0.0323 -0.0994
 4693SOL    HW114649   6.900   1.326   3.186  0.9113  1.1071 -1.1340
 4693SOL    HW214650   6.776   1.262   3.127  0.2781 -0.5219  1.7448
 4694SOL     OW14651   4.089   5.219   1.977 -0.4170  0.6903 -0.7669
 4694SOL    HW114652   4.146   5.258   2.043 -0.3866 -0.7726  0.1162
 4694SOL    HW214653   4.091   5.125   1.995 -0.6175  0.2602 -2.6995
 4695SOL     OW14654   1.767   5.884   2.658  0.0203  0.0343  0.4275
 4695SOL    HW114655   1.679   5.864   2.690  0.4383 -0.1396  1.4867
 4695SOL    HW214656   1.787   5.970   2.695 -0.0244  0.4540 -0.4958
 4696SOL     OW14657   5.774   7.018   6.491 -0.2262 -0.1271 -0.3813
 4696SOL    HW114658   5.788   6.933   6.533  0.1066  0.5484  0.9201
 4696SOL    HW214659   5.862   7.054   6.480 -0.3774  2.1008  3.5582
 4697SOL     OW14660   5.615   4.976   3.697 -0.0843  0.6351  0.5248
 4697SOL    HW114661   5.553   5.048   3.704 -1.3221 -0.0536 -2.1154
 4697SOL    HW214662   5.701   5.018   3.693 -0.7607  1.9622 -0.7100
 4698SOL     OW14663   1.243   0.773   4.224 -0.0123  0.3977  0.3093
 4698SOL    HW114664   1.281   0.736   4.304  2.0704 -1.9334 -1.5903
 4698SOL    HW214665   1.185   0.704   4.191  0.1950  0.7492 -0.8452
 4699SOL     OW14666   6.248   4.090   6.851 -0.4614  0.1219  0.0973
 4699SOL    HW114667   6.294   4.008   6.865 -1.8615 -0.5794  0.7523
 4699SOL    HW214668   6.303   4.156   6.893 -0.2774 -0.7663  1.2908
 4700SOL     OW14669   5.975   5.194   5.315 -0.2470 -0.0249 -0.0888
 4700SOL    HW114670   6.006   5.106   5.337 -0.7764 -0.8160 -2.2705
 4700SOL    HW214671   5.935   5.226   5.396  1.1778 -1.2167  1.1480
 4701SOL     OW14672   2.219   1.712   5.472 -0.4259  0.6888  0.3656
 4701SOL    HW114673   2.187   1.661   5.398 -0.0051  0.6776  0.1911
 4701SOL    HW214674   2.288   1.658   5.510 -0.9526  0.4818  1.0533
 4702SOL     OW14675   3.901   4.679   3.298 -0.2602 -0.1261  0.0729
 4702SOL    HW114676   3.809   4.671   3.322 -0.4473  0.9040 -0.2382
 4702SOL    HW214677   3.900   4.690   3.203  0.0839  1.0860  0.1920
 4703SOL     OW14678   3.935   5.816   5.955 -0.6377  0.3161  0.7094
 4703SOL    HW114679   4.013   5.830   6.008 -0.6601 -0.4477  0.9677
 4703SOL    HW214680   3.919   5.900   5.912 -0.9301  1.1364  2.3368
 4704SOL     OW14681   5.306   5.361   3.614  0.1009  0.5963 -0.1676
 4704SOL    HW114682   5.306   5.447   3.655 -0.1389  1.1545 -1.3046
 4704SOL    HW214683   5.244   5.310   3.667 -1.5174  1.8023 -0.8235
 4705SOL     OW14684   2.937   4.511   0.494 -0.0021  0.0734  0.1332
 4705SOL    HW114685   2.849   4.515   0.456 -0.4418 -1.7781  0.8754
 4705SOL    HW214686   2.985   4.451   0.438  0.8146  1.0492 -0.2476
 4706SOL     OW14687   0.526   6.036   6.203 -0.1114 -0.1213 -0.4639
 4706SOL    HW114688   0.463   5.981   6.156  0.7458  0.0347 -1.8493
 4706SOL    HW214689   0.476   6.113   6.228 -0.0597  1.0632 -3.5340
 4707SOL     OW14690   6.352   0.435   6.158 -0.1276  0.3667  0.0241
 4707SOL    HW114691   6.413   0.378   6.205  0.3778  0.3457 -0.6367
 4707SOL    HW214692   6.277   0.380   6.139  0.7579 -0.3984 -1.4611
 4708SOL     OW14693   1.356   6.450   2.213 -0.0266  0.0673 -0.5482
 4708SOL    HW114694   1.388   6.373   2.167 -0.7464  0.0894 -1.1188
 4708SOL    HW214695   1.262   6.434   2.224  0.1806 -0.0999  1.2770
 4709SOL     OW14696   0.619   0.985   1.349  0.4624  0.1684 -0.5366
 4709SOL    HW114697   0.623   0.972   1.254 -1.6525  2.0452 -0.9747
 4709SOL    HW214698   0.674   1.061   1.366 -0.4531  0.8553 -0.5481
 4710SOL     OW14699   4.194   1.486   2.236 -0.2351  0.1794  0.0744
 4710SOL    HW114700   4.250   1.496   2.159 -1.0078  1.2775 -0.3726
 4710SOL    HW214701   4.255   1.462   2.306  0.8412  1.4139 -0.3830
 4711SOL     OW14702   4.826   7.332   6.237  0.1417  0.0942  0.0154
 4711SOL    HW114703   4.895   7.391   6.268  1.8303 -1.1960 -1.1080
 4711SOL    HW214704   4.759   7.391   6.202 -0.1687  1.4523  2.6465
 4712SOL     OW14705   6.897   3.943   0.564  0.6921  0.0918  0.1295
 4712SOL    HW114706   6.918   3.850   0.577  1.5806  0.3967  0.9534
 4712SOL    HW214707   6.851   3.968   0.644  2.3434  0.8776  0.8947
 4713SOL     OW14708   5.858   7.161   3.089 -0.2099 -0.3182 -0.2624
 4713SOL    HW114709   5.770   7.161   3.051  0.2544 -0.2887 -1.3897
 4713SOL    HW214710   5.913   7.123   3.020  0.9656  1.4070 -0.3423
 4714SOL     OW14711   7.117   3.896   0.233 -0.3714 -0.1429  0.0586
 4714SOL    HW114712   7.075   3.966   0.183  0.6106  1.0131  0.7755
 4714SOL    HW214713   7.193   3.870   0.180 -0.0693  0.1731  0.3290
 4715SOL     OW14714   6.243   5.641   2.418  0.4483  0.2113 -0.0176
 4715SOL    HW114715   6.153   5.646   2.451  0.5912 -2.4127  1.0076
 4715SOL    HW214716   6.297   5.663   2.494  0.7611  3.1190 -0.9603
 4716SOL     OW14717   0.837   6.519   6.286  0.1501 -0.2639  0.2336
 4716SOL    HW114718   0.888   6.596   6.312 -0.5886  0.0842  0.6574
 4716SOL    HW214719   0.849   6.457   6.358  0.1516 -0.2699  0.2284
 4717SOL     OW14720   5.442   5.300   6.834 -0.1987 -0.1636  0.6250
 4717SOL    HW114721   5.470   5.383   6.872  1.8806 -0.5731  0.1335
 4717SOL    HW214722   5.419   5.321   6.743  0.3312 -0.1130  0.4995
 4718SOL     OW14723   3.891   1.463   0.836 -0.2495 -0.2710 -0.1178
 4718SOL    HW114724   3.846   1.545   0.852  0.1376  0.1228 -0.9611
 4718SOL    HW214725   3.958   1.458   0.903  0.6512  0.8092 -0.8989
 4719SOL     OW14726   1.563   5.158   6.584  0.4908 -0.7232  0.4538
 4719SOL    HW114727   1.564   5.092   6.515  1.8756 -1.4820  1.1499
 4719SOL    HW214728   1.542   5.108   6.664 -0.8410  0.0949  0.6360
 4720SOL     OW14729   6.547   3.146   4.849 -0.4554 -0.2903  0.0173
 4720SOL    HW114730   6.562   3.056   4.877  0.9588 -0.1824 -0.3250
 4720SOL    HW214731   6.552   3.143   4.754 -0.3663  0.1469  0.0070
 4721SOL     OW14732   6.037   1.196   6.085  0.3515 -0.2338  0.2376
 4721SOL    HW114733   6.034   1.101   6.096 -2.1633 -0.3591 -0.8249
 4721SOL    HW214734   6.034   1.209   5.990  0.4521  0.9133  0.3795
 4722SOL     OW14735   5.328   0.294   0.602  0.5023 -0.3518 -0.0018
 4722SOL    HW114736   5.293   0.227   0.543 -0.4772  0.4143 -0.3338
 4722SOL    HW214737   5.385   0.347   0.546  0.2111 -0.1120 -0.0777
 4723SOL     OW14738   5.180   7.149   3.506 -0.2364  0.5188  0.1801
 4723SOL    HW114739   5.125   7.182   3.577 -1.0331  0.7686 -0.5370
 4723SOL    HW214740   5.231   7.079   3.546 -0.0339  1.2384  1.2092
 4724SOL     OW14741   0.507   5.049   0.587  0.2331 -0.1035 -0.0997
 4724SOL    HW114742   0.577   4.988   0.562  0.2914  0.0642 -0.3539
 4724SOL    HW214743   0.524   5.068   0.679 -1.1729 -2.3154  0.7055
 4725SOL     OW14744   1.025   7.353   7.153  0.2313 -0.0925 -0.4657
 4725SOL    HW114745   0.948   7.317   7.196  0.2473 -0.6567 -0.8904
 4725SOL    HW214746   1.039   7.438   7.195  0.6780 -0.9188  1.1260
 4726SOL     OW14747   4.984   0.480   4.315 -0.4112  0.4214  0.3093
 4726SOL    HW114748   5.045   0.532   4.263 -1.0954  0.1434 -0.8090
 4726SOL    HW214749   5.039   0.433   4.378  0.4981  0.3701 -0.5088
 4727SOL     OW14750   2.219   2.899   3.264  0.9068 -0.3433  0.0419
 4727SOL    HW114751   2.282   2.836   3.230  0.8299 -1.0735  1.1764
 4727SOL    HW214752   2.155   2.845   3.311  1.0738  0.6019  1.4121
 4728SOL     OW14753   3.748   7.100   1.684 -0.3589 -0.3962 -0.3128
 4728SOL    HW114754   3.780   7.182   1.646  0.0854  0.0732  1.0318
 4728SOL    HW214755   3.804   7.085   1.760 -0.0267 -2.2896 -0.8730
 4729SOL     OW14756   3.300   3.360   0.492 -0.0993  0.3493  0.7065
 4729SOL    HW114757   3.328   3.416   0.565 -0.7423  2.9119 -0.9064
 4729SOL    HW214758   3.210   3.336   0.514  0.0046  0.3579  1.1580
 4730SOL     OW14759   2.542   5.644   4.679 -0.4185 -0.1165 -0.0085
 4730SOL    HW114760   2.520   5.675   4.591  0.6221  0.4228 -0.0984
 4730SOL    HW214761   2.497   5.705   4.737 -0.3232  0.1255 -0.1831
 4731SOL     OW14762   5.537   5.364   5.062 -0.3190 -0.0173  0.3141
 4731SOL    HW114763   5.632   5.351   5.065 -0.2774  0.3736  0.7595
 4731SOL    HW214764   5.521   5.405   4.978  0.0362  0.9272  0.6944
 4732SOL     OW14765   1.229   2.999   1.879 -0.1550 -0.4171 -0.0624
 4732SOL    HW114766   1.180   3.068   1.924 -0.8900 -2.8522  3.2453
 4732SOL    HW214767   1.320   3.015   1.903  0.0700  0.8104 -1.5232
 4733SOL     OW14768   1.075   0.526   6.515 -0.1138  0.0206 -0.2839
 4733SOL    HW114769   1.137   0.502   6.446 -1.0213  0.0410 -1.1427
 4733SOL    HW214770   1.014   0.587   6.472  0.3627  1.4921  1.0450
 4734SOL     OW14771   0.802   7.210   7.262 -0.0954 -0.3370 -0.1893
 4734SOL    HW114772   0.822   7.117   7.273 -0.4532 -0.3867  0.0457
 4734SOL    HW214773   0.712   7.219   7.293 -0.5677 -0.1753 -1.5424
 4735SOL     OW14774   2.677   5.431   4.303 -0.2992  0.5221 -0.6604
 4735SOL    HW114775   2.750   5.383   4.342 -0.4345 -1.2320 -2.4135
 4735SOL    HW214776   2.687   5.520   4.336 -0.5925 -0.7680  3.5701
 4736SOL     OW14777   5.824   0.998   0.190 -0.4770  0.0259 -0.5005
 4736SOL    HW114778   5.796   1.003   0.098  0.3452 -0.7141 -0.8084
 4736SOL    HW214779   5.866   1.082   0.207 -1.5527  0.5829 -0.4680
 4737SOL     OW14780   6.989   7.394   4.979  0.4070 -0.7344 -0.2626
 4737SOL    HW114781   7.031   7.439   5.052 -0.3188  0.1864 -0.4043
 4737SOL    HW214782   7.062   7.368   4.922  0.8480  0.1539 -0.1206
 4738SOL     OW14783   6.564   7.350   4.555 -0.1599 -0.3690 -0.3703
 4738SOL    HW114784   6.560   7.352   4.651  0.4924  0.8457 -0.3557
 4738SOL    HW214785   6.490   7.294   4.529 -1.1713  0.3805  0.7905
 4739SOL     OW14786   0.156   4.112   3.436  0.5503  0.3988  0.0198
 4739SOL    HW114787   0.114   4.197   3.422  1.1589  0.7382  0.1990
 4739SOL    HW214788   0.249   4.128   3.418  0.3442 -0.8552 -2.6746
 4740SOL     OW14789   5.654   1.354   6.284  0.3775 -0.3286  0.9961
 4740SOL    HW114790   5.648   1.264   6.316 -0.3218  0.1114  2.1807
 4740SOL    HW214791   5.597   1.356   6.208  0.5461 -0.9363  0.8477
 4741SOL     OW14792   3.564   6.942   6.008 -0.7399  0.6317  0.1450
 4741SOL    HW114793   3.515   7.008   5.960 -1.6773  1.2892  1.9096
 4741SOL    HW214794   3.656   6.958   5.986 -1.0803  1.4552 -0.7123
 4742SOL     OW14795   1.940   5.267   3.394  0.6369 -0.1549  0.4757
 4742SOL    HW114796   1.979   5.324   3.461  1.6135 -1.8619  1.4551
 4742SOL    HW214797   2.003   5.269   3.322  1.1033 -0.6311  0.8591
 4743SOL     OW14798   3.375   0.356   6.273 -0.2484 -0.1492 -0.3431
 4743SOL    HW114799   3.439   0.420   6.241  1.8110 -0.9756  1.8136
 4743SOL    HW214800   3.328   0.402   6.343 -1.6165  0.2230 -1.4522
 4744SOL     OW14801   0.856   4.359   5.373 -0.1146  0.1180 -0.2696
 4744SOL    HW114802   0.921   4.289   5.385 -0.0979  0.2568  0.5194
 4744SOL    HW214803   0.811   4.364   5.457  0.6804  1.8419  0.1088
 4745SOL     OW14804   5.852   5.326   2.764 -0.1111 -0.3795  0.1038
 4745SOL    HW114805   5.947   5.340   2.759 -0.2173  0.3708  0.1182
 4745SOL    HW214806   5.814   5.406   2.728 -0.7498  0.0278  1.6240
 4746SOL     OW14807   4.585   5.681   4.603  0.8383  0.5339 -0.5723
 4746SOL    HW114808   4.609   5.664   4.694 -0.9356 -1.1138 -0.3428
 4746SOL    HW214809   4.534   5.762   4.606  0.4804  0.2978 -0.0232
 4747SOL     OW14810   2.741   1.376   3.172 -0.0521 -0.0863  0.1966
 4747SOL    HW114811   2.803   1.444   3.195 -0.6072  0.3365  0.4849
 4747SOL    HW214812   2.687   1.366   3.251 -1.0686  0.3638 -0.4232
 4748SOL     OW14813   0.579   3.549   1.004  0.2533  0.1772 -0.6634
 4748SOL    HW114814   0.596   3.576   1.094 -1.6712  0.8023 -0.4438
 4748SOL    HW214815   0.657   3.501   0.978  0.9396  0.1747  1.2649
 4749SOL     OW14816   6.505   6.550   0.468  0.4553  0.4487 -0.5330
 4749SOL    HW114817   6.416   6.582   0.454  0.5028 -0.2263 -2.8457
 4749SOL    HW214818   6.496   6.484   0.537 -0.7892  0.6278 -0.5008
 4750SOL     OW14819   1.236   7.387   4.344  0.2792  0.8289  0.0420
 4750SOL    HW114820   1.191   7.331   4.407 -0.1620  0.2833 -0.7449
 4750SOL    HW214821   1.214   7.350   4.258 -0.3547  2.4508 -0.5265
 4751SOL     OW14822   0.308   6.792   4.975 -0.2210  0.4462  0.0906
 4751SOL    HW114823   0.265   6.831   5.052 -0.3197 -0.4530  0.5091
 4751SOL    HW214824   0.369   6.859   4.945  0.8463  0.3095  1.8216
 4752SOL     OW14825   0.117   6.830   3.574 -0.5745 -0.2409  0.0568
 4752SOL    HW114826   0.083   6.761   3.631 -0.1537 -1.4348 -1.1006
 4752SOL    HW214827   0.066   6.823   3.494  0.7974 -0.5469 -0.8233
 4753SOL     OW14828   2.702   2.099   3.538  0.6131  0.3678 -0.5521
 4753SOL    HW114829   2.725   2.053   3.457  0.4429 -0.6064 -0.0638
 4753SOL    HW214830   2.618   2.061   3.563  0.1866  1.3597 -0.4261
 4754SOL     OW14831   4.570   1.149   2.593 -0.1500  0.5567 -0.2036
 4754SOL    HW114832   4.503   1.188   2.536 -0.9302  0.9331  0.9375
 4754SOL    HW214833   4.583   1.061   2.558 -0.5696  0.8020 -0.9954
 4755SOL     OW14834   5.775   3.499   5.760  0.0418  0.0118 -0.6293
 4755SOL    HW114835   5.683   3.499   5.733 -0.3215 -0.8408  0.4967
 4755SOL    HW214836   5.775   3.455   5.845  1.2505  1.6701  0.3002
 4756SOL     OW14837   1.232   1.952   3.241 -0.0393 -0.2012 -0.2725
 4756SOL    HW114838   1.179   1.998   3.305 -2.8599 -1.1945 -1.7164
 4756SOL    HW214839   1.269   2.021   3.185 -0.8931  0.4783 -0.0138
 4757SOL     OW14840   3.613   2.878   2.962  0.5384  0.1313  0.5674
 4757SOL    HW114841   3.667   2.957   2.973  0.8413  0.1059 -0.6086
 4757SOL    HW214842   3.637   2.845   2.876  0.1967 -1.0914  0.9246
 4758SOL     OW14843   0.259   2.358   4.009 -0.2877  0.2590 -0.3876
 4758SOL    HW114844   0.313   2.346   3.931  1.2813 -3.4808  1.0403
 4758SOL    HW214845   0.169   2.341   3.979  0.1451 -0.0144 -1.5819
 4759SOL     OW14846   7.093   5.773   1.611 -0.0982 -0.2307  0.2827
 4759SOL    HW114847   7.133   5.849   1.654  0.7727 -0.1504 -0.6497
 4759SOL    HW214848   7.053   5.809   1.532  0.0593 -0.6955 -0.0068
 4760SOL     OW14849   2.575   5.506   2.278  0.0918  0.2969 -0.7023
 4760SOL    HW114850   2.541   5.520   2.189  1.8451 -0.0859 -1.4769
 4760SOL    HW214851   2.665   5.538   2.274  0.3888 -0.3009  0.7709
 4761SOL     OW14852   3.571   1.406   3.850  0.0757  0.7886 -0.1423
 4761SOL    HW114853   3.602   1.351   3.921  1.4100  0.9357 -0.5720
 4761SOL    HW214854   3.565   1.494   3.888 -2.5780  0.3310  0.6919
 4762SOL     OW14855   2.654   6.490   2.101 -0.0737 -0.4386  0.0191
 4762SOL    HW114856   2.729   6.497   2.043  1.0733 -2.7166  1.0776
 4762SOL    HW214857   2.608   6.412   2.071 -1.1525  0.0507  0.3559
 4763SOL     OW14858   3.987   0.057   3.828  0.4594 -0.9947 -0.4676
 4763SOL    HW114859   4.060   0.004   3.859  1.5408  0.3305 -0.6604
 4763SOL    HW214860   3.928  -0.005   3.786  1.8883 -1.9784 -1.0839
 4764SOL     OW14861   5.237   2.565   3.214 -0.1314 -0.1370 -0.1509
 4764SOL    HW114862   5.228   2.488   3.270 -0.7164 -0.5618 -0.8202
 4764SOL    HW214863   5.299   2.621   3.261 -0.1019 -0.7771  0.5968
 4765SOL     OW14864   5.332   2.699   0.855 -0.1876 -0.3771  0.1479
 4765SOL    HW114865   5.405   2.697   0.916 -0.5407  0.5451  0.6205
 4765SOL    HW214866   5.303   2.608   0.848 -0.5494 -0.4191  1.8549
 4766SOL     OW14867   1.859   5.765   2.423  0.0760 -0.1593 -0.3978
 4766SOL    HW114868   1.777   5.715   2.419  0.5791 -1.3848  2.0379
 4766SOL    HW214869   1.849   5.821   2.500  1.2036  0.3055 -0.5701
 4767SOL     OW14870   0.805   0.164   2.625 -0.0412 -0.1644 -0.4797
 4767SOL    HW114871   0.738   0.101   2.598  0.0060 -0.4551  0.0578
 4767SOL    HW214872   0.881   0.142   2.572 -0.7078  0.9237 -1.9528
 4768SOL     OW14873   5.509   5.669   7.295  0.1059  0.1231 -0.0579
 4768SOL    HW114874   5.489   5.575   7.294  0.0792  0.1016  1.0356
 4768SOL    HW214875   5.445   5.708   7.236 -1.7763 -0.1990  1.6775
 4769SOL     OW14876   1.396   3.680   0.146 -0.0445 -0.5500  0.0624
 4769SOL    HW114877   1.458   3.632   0.091  1.7301 -1.1577  2.4509
 4769SOL    HW214878   1.313   3.635   0.133  0.2395 -0.5476 -2.1901
 4770SOL     OW14879   3.476   3.866   7.140 -0.8656  0.2155 -0.2609
 4770SOL    HW114880   3.449   3.955   7.162  1.7788  1.0212  0.0214
 4770SOL    HW214881   3.493   3.825   7.225 -1.4135 -0.3658 -0.4238
 4771SOL     OW14882   0.550   5.439   5.718  0.0908 -0.4962  0.3081
 4771SOL    HW114883   0.480   5.488   5.675 -0.0786 -0.7037  0.3439
 4771SOL    HW214884   0.538   5.349   5.687  0.9645 -0.3523 -0.4875
 4772SOL     OW14885   1.188   5.773   1.777 -0.6563  0.0951 -0.8511
 4772SOL    HW114886   1.123   5.735   1.836  0.3849  0.0828  0.3258
 4772SOL    HW214887   1.234   5.698   1.740 -0.2442  0.1361 -0.4311
 4773SOL     OW14888   6.897   4.725   7.142 -0.4378  0.1952  0.0557
 4773SOL    HW114889   6.822   4.773   7.108  0.1998  0.9645 -0.2875
 4773SOL    HW214890   6.929   4.778   7.215  1.0689  1.0285 -1.1475
 4774SOL     OW14891   2.002   5.841   6.174 -0.8729 -0.9730  0.0469
 4774SOL    HW114892   2.071   5.809   6.232 -1.5614  1.0343  2.1091
 4774SOL    HW214893   2.041   5.837   6.086  1.4143 -1.0466  0.9961
 4775SOL     OW14894   5.934   0.447   6.989 -0.2698  0.1129  0.2577
 4775SOL    HW114895   5.938   0.352   6.977  1.1564 -0.1291  2.1456
 4775SOL    HW214896   5.978   0.483   6.912 -0.6568 -0.7614 -0.3820
 4776SOL     OW14897   3.352   7.165   0.491  0.2187 -0.1417  0.1155
 4776SOL    HW114898   3.444   7.189   0.488  0.1185  0.1698 -0.8366
 4776SOL    HW214899   3.348   7.078   0.450  0.0008  0.1657 -0.5273
 4777SOL     OW14900   5.471   3.126   3.975  0.1677 -0.3971 -0.3543
 4777SOL    HW114901   5.452   3.162   4.061  0.1412  2.6271 -1.5252
 4777SOL    HW214902   5.417   3.047   3.970 -0.6272 -0.0724  1.9522
 4778SOL     OW14903   5.478   2.974   4.991  0.4546 -0.3643 -0.0669
 4778SOL    HW114904   5.478   3.057   5.038 -0.0666 -0.7413  0.6132
 4778SOL    HW214905   5.414   2.986   4.920  1.6946  0.4153 -1.0941
 4779SOL     OW14906   7.339   6.661   0.689 -0.5546 -0.2449  0.3907
 4779SOL    HW114907   7.345   6.650   0.594 -0.0233  2.0928  0.1025
 4779SOL    HW214908   7.246   6.680   0.705 -0.3558  1.0976  0.0812
 4780SOL     OW14909   0.286   0.340   1.903 -0.0953  0.3194 -0.7584
 4780SOL    HW114910   0.364   0.358   1.954  0.1556  0.5186 -1.2084
 4780SOL    HW214911   0.229   0.292   1.963  0.8595 -0.8959 -0.7990
 4781SOL     OW14912   6.679   0.338   4.708  0.3903 -0.5081  0.2078
 4781SOL    HW114913   6.641   0.425   4.719  1.1629  0.0174 -1.1117
 4781SOL    HW214914   6.604   0.281   4.693 -0.1345 -0.1186  1.2017
 4782SOL     OW14915   1.634   5.397   1.150  0.1578 -0.0926 -0.2921
 4782SOL    HW114916   1.608   5.354   1.231 -2.6061 -1.5987 -1.8377
 4782SOL    HW214917   1.678   5.328   1.100  0.3907  0.3755 -0.7391
 4783SOL     OW14918   5.726   6.466   4.512 -0.1248 -0.3072  0.1461
 4783SOL    HW114919   5.808   6.482   4.558 -0.5373  1.3328  0.3797
 4783SOL    HW214920   5.743   6.389   4.458  1.9368  0.6818 -0.6979
 4784SOL     OW14921   6.304   2.411   4.891 -0.1893 -0.0972  0.0956
 4784SOL    HW114922   6.220   2.390   4.851 -0.1819 -0.7141  0.3925
 4784SOL    HW214923   6.359   2.441   4.818 -0.8127  0.8125 -0.0251
 4785SOL     OW14924   3.473   4.969   3.035  0.2253  0.5554 -0.4422
 4785SOL    HW114925   3.456   4.897   3.096  0.9360 -0.0721 -0.9722
 4785SOL    HW214926   3.386   4.997   3.006 -0.1758  1.3134  1.3455
 4786SOL     OW14927   5.291   0.552   0.746 -0.4779  0.4281  0.7931
 4786SOL    HW114928   5.329   0.464   0.747 -0.1211  0.5572  2.8017
 4786SOL    HW214929   5.264   0.565   0.656  3.2844 -0.0950 -0.5961
 4787SOL     OW14930   6.116   1.178   7.336  0.4642 -0.1056 -0.4432
 4787SOL    HW114931   6.101   1.169   7.242 -0.2962 -2.1169 -0.1815
 4787SOL    HW214932   6.063   1.253   7.361  0.6518  0.4389 -1.6026
 4788SOL     OW14933   3.416   4.905   0.466  0.0225 -0.3012  0.0469
 4788SOL    HW114934   3.341   4.873   0.416 -1.0835  0.8254  0.9264
 4788SOL    HW214935   3.428   4.841   0.536  0.2174 -0.7425 -0.3813
 4789SOL     OW14936   1.483   2.721   5.592  0.2374 -0.6934 -0.3474
 4789SOL    HW114937   1.527   2.667   5.658  0.3967  0.0554  0.1651
 4789SOL    HW214938   1.448   2.658   5.529  1.3489 -1.3436 -0.3327
 4790SOL     OW14939   5.521   0.653   4.731 -0.0847 -0.2027  0.3455
 4790SOL    HW114940   5.432   0.649   4.766 -0.7028  2.3999 -0.7278
 4790SOL    HW214941   5.516   0.611   4.646 -0.8065  1.6068 -0.5518
 4791SOL     OW14942   0.879   7.400   1.466  0.3882 -0.4326  0.1113
 4791SOL    HW114943   0.837   7.476   1.425 -0.9809 -1.3681 -0.2761
 4791SOL    HW214944   0.845   7.399   1.555  1.9883  0.5582  0.7774
 4792SOL     OW14945   4.361   5.153   3.914  0.2256  0.2334  0.3011
 4792SOL    HW114946   4.366   5.057   3.905 -1.1591  0.3202 -2.3600
 4792SOL    HW214947   4.404   5.171   3.997  1.4358 -2.6129  0.4212
 4793SOL     OW14948   5.054   4.430   6.671 -0.3563 -0.9643 -0.2271
 4793SOL    HW114949   4.974   4.482   6.664  0.1298 -0.2521 -0.5732
 4793SOL    HW214950   5.041   4.356   6.611 -1.6951 -2.1319  1.4083
 4794SOL     OW14951   6.691   6.393   0.049  0.2075 -0.0493 -0.5749
 4794SOL    HW114952   6.706   6.402   0.143  1.8601  1.0179 -0.9135
 4794SOL    HW214953   6.773   6.359   0.014 -0.9753 -2.2384 -1.4460
 4795SOL     OW14954   1.778   2.895   2.873  0.0900 -0.5042  0.0525
 4795SOL    HW114955   1.741   2.962   2.815 -1.1656  0.6647  2.0706
 4795SOL    HW214956   1.867   2.924   2.890  0.1320 -0.3147 -0.4817
 4796SOL     OW14957   2.061   4.268   3.153  0.5933  0.8999 -0.0171
 4796SOL    HW114958   2.102   4.197   3.104  0.6196 -0.1699  1.4900
 4796SOL    HW214959   2.077   4.346   3.100  0.5609 -0.2095 -1.7120
 4797SOL     OW14960   1.169   1.871   3.617 -0.2139 -0.6303 -0.3171
 4797SOL    HW114961   1.137   1.940   3.676 -1.8901 -0.4506 -1.3615
 4797SOL    HW214962   1.189   1.798   3.675 -2.8844 -0.8464  0.4570
 4798SOL     OW14963   6.310   1.219   0.087 -0.2017 -0.2713  1.1084
 4798SOL    HW114964   6.383   1.187   0.035  0.0823  1.0462  0.6557
 4798SOL    HW214965   6.234   1.212   0.028 -0.0917  0.1127  0.9156
 4799SOL     OW14966   3.572   4.224   5.816  0.1639  0.1068  0.0998
 4799SOL    HW114967   3.545   4.136   5.844  0.2110  0.3287  0.8670
 4799SOL    HW214968   3.660   4.234   5.853 -0.4953  1.1134  1.4636
 4800SOL     OW14969   3.489   1.548   3.396 -0.3967 -0.4112  0.7659
 4800SOL    HW114970   3.408   1.513   3.359  0.3395  0.0002 -1.3223
 4800SOL    HW214971   3.551   1.549   3.324  0.9034  1.1483  1.8222
 4801SOL     OW14972   4.984   5.222   3.592  0.0107  0.1736  0.0387
 4801SOL    HW114973   5.048   5.213   3.522 -0.2939 -0.7270 -0.1361
 4801SOL    HW214974   5.032   5.200   3.672 -0.2402 -1.2491 -0.1730
 4802SOL     OW14975   3.342   3.657   4.774 -0.3847 -0.5203 -0.3213
 4802SOL    HW114976   3.427   3.693   4.748  0.0602 -0.4319  1.2028
 4802SOL    HW214977   3.322   3.593   4.706  1.3566 -1.2358 -0.2085
 4803SOL     OW14978   3.583   5.577   3.271 -0.1918  0.4766  0.0561
 4803SOL    HW114979   3.578   5.550   3.179  3.7126 -2.2163  0.3831
 4803SOL    HW214980   3.550   5.501   3.320  1.3175  0.2904  0.8633
 4804SOL     OW14981   1.325   6.133   0.004  0.0718  0.1449 -0.0320
 4804SOL    HW114982   1.414   6.167   0.015 -0.4869  1.1647  1.7116
 4804SOL    HW214983   1.271   6.210  -0.013 -0.6121 -0.3478 -0.1565
 4805SOL     OW14984   0.794   3.170   4.716 -0.1320  0.2311 -0.1087
 4805SOL    HW114985   0.801   3.193   4.623  0.1586  1.5973  0.2307
 4805SOL    HW214986   0.798   3.254   4.762  3.0781 -0.5580  1.3495
 4806SOL     OW14987   1.557   6.560   1.902  0.4934 -0.2988 -0.0014
 4806SOL    HW114988   1.515   6.582   1.819 -1.0908 -0.2870  0.7715
 4806SOL    HW214989   1.612   6.484   1.882  0.3623 -0.1122 -1.1098
 4807SOL     OW14990   3.238   5.886   3.698 -0.1540 -0.2082  0.2500
 4807SOL    HW114991   3.319   5.937   3.707 -0.0725 -0.2236 -0.3725
 4807SOL    HW214992   3.267   5.798   3.676 -0.3174 -0.4049  0.8026
 4808SOL     OW14993   4.512   2.400   6.962  0.5557  0.7783 -0.3916
 4808SOL    HW114994   4.589   2.427   7.012 -0.2104  0.7473  0.8647
 4808SOL    HW214995   4.468   2.337   7.019  0.9509 -1.2116 -2.1900
 4809SOL     OW14996   2.047   3.187   3.033  0.2449 -0.4923  0.2212
 4809SOL    HW114997   2.010   3.171   3.120 -0.1313 -0.9473 -0.0180
 4809SOL    HW214998   1.997   3.261   3.000  0.8789  0.1468  0.6786
 4810SOL     OW14999   5.678   0.194   7.265 -0.1715 -0.4881  0.3266
 4810SOL    HW115000   5.755   0.212   7.319  0.4897  0.6295 -0.9320
 4810SOL    HW215001   5.699   0.114   7.218 -0.8710 -1.6366  1.8911
 4811SOL     OW15002   2.051   3.715   3.379 -0.3502 -0.2724  0.5107
 4811SOL    HW115003   2.115   3.662   3.428  0.3175 -1.4253 -1.4926
 4811SOL    HW215004   1.975   3.658   3.369  0.2312 -0.7984 -1.3438
 4812SOL     OW15005   0.614   5.022   5.371 -0.2024 -0.1366 -0.1105
 4812SOL    HW115006   0.661   5.045   5.452  3.5038  0.1446 -2.1281
 4812SOL    HW215007   0.560   5.098   5.352  1.3422  1.1538  0.4803
 4813SOL     OW15008   2.036   2.614   4.190  0.2694  0.3246  0.1890
 4813SOL    HW115009   1.981   2.589   4.114  1.1575  2.9835 -1.4428
 4813SOL    HW215010   2.123   2.582   4.167  0.4319  0.6446  0.3717
 4814SOL     OW15011   6.181   5.381   3.571  0.1525  0.3569  0.2724
 4814SOL    HW115012   6.119   5.331   3.519 -1.4016 -1.9297  3.8612
 4814SOL    HW215013   6.128   5.445   3.618  1.0780  0.7710  0.7919
 4815SOL     OW15014   4.488   4.475   3.266  0.0258  0.3929  0.1076
 4815SOL    HW115015   4.527   4.556   3.232  1.0605  0.2667  0.9765
 4815SOL    HW215016   4.394   4.495   3.271  0.3645  1.8765  1.1861
 4816SOL     OW15017   6.004   1.051   2.459  0.4713  0.2142  0.4728
 4816SOL    HW115018   6.062   1.113   2.416  1.0061 -1.6660 -1.6893
 4816SOL    HW215019   5.924   1.101   2.476  0.0974  1.0797 -3.0416
 4817SOL     OW15020   0.201   2.240   0.099  0.0353 -0.0474 -0.1012
 4817SOL    HW115021   0.246   2.168   0.143  1.0177  0.8012  0.3281
 4817SOL    HW215022   0.247   2.319   0.129 -1.6469  0.8524  0.2263
 4818SOL     OW15023   0.348   5.573   0.534  0.2662  0.0135 -0.1459
 4818SOL    HW115024   0.362   5.484   0.502 -0.6775  0.2992 -1.4389
 4818SOL    HW215025   0.289   5.563   0.608 -0.4148 -0.3835 -0.7373
 4819SOL     OW15026   5.743   7.375   4.957 -0.0304 -1.0273 -0.2365
 4819SOL    HW115027   5.755   7.384   4.863 -0.3547  0.9608 -0.1338
 4819SOL    HW215028   5.750   7.464   4.991 -0.1257 -1.6681  1.6021
 4820SOL     OW15029   5.091   2.596   4.146  0.1200 -0.3114 -0.1467
 4820SOL    HW115030   5.000   2.571   4.160 -0.2250  0.8009 -0.2934
 4820SOL    HW215031   5.086   2.687   4.114  1.3338  0.1601  0.9365
 4821SOL     OW15032   0.821   1.941   0.565  0.2882 -0.6118  0.2893
 4821SOL    HW115033   0.802   1.986   0.482  2.2792 -1.1843 -0.5416
 4821SOL    HW215034   0.737   1.939   0.611 -0.4157  1.6938 -0.7280
 4822SOL     OW15035   3.355   3.001   2.736  0.5739 -0.5074  0.0736
 4822SOL    HW115036   3.385   2.950   2.812  0.7856  0.4313  0.6368
 4822SOL    HW215037   3.267   3.030   2.760  0.6672 -0.1537 -0.0062
 4823SOL     OW15038   7.192   3.746   4.480 -0.2111 -0.7430 -0.2057
 4823SOL    HW115039   7.121   3.769   4.540 -0.3210  0.3229 -0.7236
 4823SOL    HW215040   7.271   3.779   4.523 -0.1599 -0.9383 -0.1487
 4824SOL     OW15041   2.196   4.422   3.626  0.1565  0.1355  0.1524
 4824SOL    HW115042   2.204   4.458   3.538  0.1512 -0.4719 -0.1037
 4824SOL    HW215043   2.259   4.350   3.628  0.1377  0.1287  0.6374
 4825SOL     OW15044   4.233   5.402   7.108 -0.5259 -0.1231  0.0122
 4825SOL    HW115045   4.302   5.373   7.048 -1.2501 -2.5574  0.2371
 4825SOL    HW215046   4.278   5.457   7.172  0.9261 -0.4459 -0.6986
 4826SOL     OW15047   6.902   0.456   5.751 -0.8348  0.1105 -0.7032
 4826SOL    HW115048   6.885   0.543   5.787  0.7290  0.6025 -1.0803
 4826SOL    HW215049   6.996   0.455   5.735 -0.0709 -2.8467  2.5627
 4827SOL     OW15050   6.974   6.119   0.049 -0.1185  0.1725 -0.1182
 4827SOL    HW115051   6.978   6.200   0.101 -0.7963  0.5117 -0.5889
 4827SOL    HW215052   7.063   6.083   0.055  0.0278  0.6256  0.6079
 4828SOL     OW15053   3.343   1.547   0.581 -0.4007 -0.2624  0.2074
 4828SOL    HW115054   3.280   1.576   0.515  0.7363  0.1210 -0.7474
 4828SOL    HW215055   3.294   1.546   0.663 -2.1013 -1.6031 -0.7634
 4829SOL     OW15056   1.806   2.847   3.364  0.3778 -0.9187  0.1518
 4829SOL    HW115057   1.825   2.787   3.292  0.8816 -2.2484  1.3480
 4829SOL    HW215058   1.886   2.849   3.416 -0.2418 -0.6266  1.1190
 4830SOL     OW15059   5.380   3.261   0.348 -0.6816  0.0318  0.6348
 4830SOL    HW115060   5.416   3.313   0.276 -0.1537 -1.0173  0.1288
 4830SOL    HW215061   5.302   3.310   0.375 -0.7822  0.5470 -0.5175
 4831SOL     OW15062   2.859   3.593   7.099 -0.2238 -0.7618  0.1056
 4831SOL    HW115063   2.801   3.647   7.045 -1.5886 -1.1286  1.1422
 4831SOL    HW215064   2.808   3.513   7.116  0.4003 -0.9066  1.4201
 4832SOL     OW15065   2.342   4.289   6.098 -0.2590 -0.0713  0.3057
 4832SOL    HW115066   2.399   4.250   6.033 -0.9386  0.7793 -0.8431
 4832SOL    HW215067   2.266   4.231   6.103  0.2006 -0.6253  1.0363
 4833SOL     OW15068   2.961   5.424   7.424  0.3247 -0.1849 -0.1553
 4833SOL    HW115069   2.883   5.379   7.391  0.5660 -1.1557  0.5641
 4833SOL    HW215070   2.979   5.382   7.508  1.3634  0.3423 -0.1043
 4834SOL     OW15071   4.289   6.110   1.030  0.1315 -0.2418  0.0450
 4834SOL    HW115072   4.258   6.125   1.120  0.4253  1.0552 -0.0596
 4834SOL    HW215073   4.211   6.084   0.982  0.0079 -1.1777  0.7072
 4835SOL     OW15074   4.254   1.801   0.613  0.3975 -0.7244 -0.0932
 4835SOL    HW115075   4.266   1.756   0.529  0.4753  0.4382 -0.7313
 4835SOL    HW215076   4.250   1.894   0.589 -0.8801 -0.4571  1.0556
 4836SOL     OW15077   4.265   1.508   1.753  0.0408  0.2473  0.3940
 4836SOL    HW115078   4.217   1.443   1.701 -1.2122  0.3526  1.3549
 4836SOL    HW215079   4.226   1.592   1.729 -0.9653  0.2390  1.8887
 4837SOL     OW15080   6.710   1.110   0.146  0.6171 -0.0365  0.2587
 4837SOL    HW115081   6.787   1.163   0.126  0.0191  1.4283  1.6493
 4837SOL    HW215082   6.744   1.021   0.157  2.0389  0.5028  0.3570
 4838SOL     OW15083   3.184   0.329   3.413  0.7001  0.7372  0.1202
 4838SOL    HW115084   3.138   0.373   3.484 -0.2226 -0.5092  0.3199
 4838SOL    HW215085   3.218   0.249   3.452  0.0296 -0.0537 -0.8616
 4839SOL     OW15086   7.404   4.805   4.869 -0.6031  0.0623 -0.6665
 4839SOL    HW115087   7.478   4.802   4.809 -0.6437  1.0266 -0.7917
 4839SOL    HW215088   7.435   4.763   4.949  0.2537  0.8771 -0.5509
 4840SOL     OW15089   3.560   1.304   7.075  0.2029 -0.3301 -0.2910
 4840SOL    HW115090   3.615   1.315   7.153  1.4978  1.0123 -1.3209
 4840SOL    HW215091   3.545   1.393   7.044  1.5960 -0.8537 -2.7801
 4841SOL     OW15092   4.927   0.740   5.461 -0.2580  0.4189  0.1963
 4841SOL    HW115093   4.979   0.662   5.485  1.3274  0.9028 -1.4884
 4841SOL    HW215094   4.841   0.705   5.438 -0.0914 -0.6415  1.0841
 4842SOL     OW15095   1.502   4.942   3.691  0.2219 -0.2960 -0.0464
 4842SOL    HW115096   1.446   4.875   3.653 -1.2615  0.8287  0.0784
 4842SOL    HW215097   1.582   4.938   3.638 -0.1126 -1.6462 -0.5009
 4843SOL     OW15098   7.382   2.273   4.028 -0.3142 -0.0143  0.1294
 4843SOL    HW115099   7.292   2.306   4.022 -0.5736 -0.6736  0.2514
 4843SOL    HW215100   7.414   2.272   3.938 -1.0675 -1.4573 -0.1596
 4844SOL     OW15101   4.131   1.127   1.219  0.6383 -0.3742 -0.2500
 4844SOL    HW115102   4.153   1.212   1.257  1.7761 -1.1739  0.9793
 4844SOL    HW215103   4.126   1.143   1.125 -3.5535  1.9695  0.0994
 4845SOL     OW15104   6.034   6.994   2.086  0.1356  0.4895 -0.3110
 4845SOL    HW115105   6.021   6.985   1.992 -0.0845 -0.2717 -0.2153
 4845SOL    HW215106   6.061   7.085   2.098 -4.3147  2.1069 -0.6269
 4846SOL     OW15107   1.805   5.467   0.775 -0.2846 -0.0334 -0.3693
 4846SOL    HW115108   1.764   5.546   0.739 -1.7758 -0.1526  0.9592
 4846SOL    HW215109   1.811   5.484   0.869 -1.5876 -1.8894  0.0908
 4847SOL     OW15110   1.637   6.145   7.318  0.1776 -0.4782  0.4894
 4847SOL    HW115111   1.675   6.120   7.402  1.7340  0.5039  0.1142
 4847SOL    HW215112   1.651   6.240   7.312 -0.2862 -0.4595 -0.6979
 4848SOL     OW15113   6.460   5.072   1.298  0.6380  0.1929 -0.0494
 4848SOL    HW115114   6.376   5.099   1.260  1.1291  1.2901 -0.4206
 4848SOL    HW215115   6.501   5.020   1.229  0.0293 -0.8455  0.3546
 4849SOL     OW15116   3.180   4.716   0.185  0.2476 -0.1845  0.1833
 4849SOL    HW115117   3.102   4.683   0.140 -0.7637  1.1230  0.8736
 4849SOL    HW215118   3.240   4.642   0.187 -1.1548 -1.3876  0.0154
 4850SOL     OW15119   0.715   0.744   7.374 -0.5732  0.4180  0.5727
 4850SOL    HW115120   0.801   0.743   7.333 -0.8576  0.2176 -0.0254
 4850SOL    HW215121   0.691   0.651   7.382 -0.8791  0.4856  0.4309
 4851SOL     OW15122   5.929   4.055   0.062 -0.3871 -0.0933 -0.1787
 4851SOL    HW115123   5.945   4.148   0.079 -0.2184  0.0283 -0.9311
 4851SOL    HW215124   5.836   4.043   0.081 -0.2794  0.0961  0.4792
 4852SOL     OW15125   6.419   0.286   0.357 -0.5069 -0.0495 -0.0500
 4852SOL    HW115126   6.454   0.268   0.444  0.4756  0.8423 -0.2442
 4852SOL    HW215127   6.367   0.365   0.368  0.1929  0.4723 -0.3922
 4853SOL     OW15128   2.639   2.093   0.347 -0.1653 -0.3037 -0.0532
 4853SOL    HW115129   2.713   2.135   0.391 -1.1509  0.5428  0.8750
 4853SOL    HW215130   2.600   2.162   0.294 -1.5484 -0.0901  1.1547
 4854SOL     OW15131   0.997   4.629   3.003 -0.1698 -0.1868 -0.1153
 4854SOL    HW115132   0.993   4.637   3.099  2.3700 -0.6983  0.1027
 4854SOL    HW215133   1.056   4.555   2.987 -1.0659 -0.5311 -2.0991
 4855SOL     OW15134   1.929   5.059   1.820 -0.0408 -0.0024  0.0002
 4855SOL    HW115135   1.920   5.152   1.798  1.3329  0.0803 -0.3045
 4855SOL    HW215136   1.858   5.042   1.882 -0.1009  1.3269  0.3237
 4856SOL     OW15137   5.672   3.677   7.048  0.3821 -0.2237  0.4788
 4856SOL    HW115138   5.659   3.734   6.972 -0.0796  1.8692  2.0732
 4856SOL    HW215139   5.591   3.626   7.053  0.0836  0.1946  0.0368
 4857SOL     OW15140   0.647   2.913   3.357  0.2727  0.5891  0.0027
 4857SOL    HW115141   0.704   2.837   3.350  1.6914  1.5982  0.2465
 4857SOL    HW215142   0.635   2.925   3.451 -2.2923 -0.9582 -0.0073
 4858SOL     OW15143   6.492   0.498   3.055  0.0319 -0.0706 -0.5686
 4858SOL    HW115144   6.509   0.525   3.145  1.7406 -0.2021 -0.8140
 4858SOL    HW215145   6.565   0.534   3.005  0.4040 -1.9836 -1.5179
 4859SOL     OW15146   4.579   3.251   4.611  0.0377 -0.2918 -0.0346
 4859SOL    HW115147   4.580   3.288   4.523 -4.2964  0.9058  0.1624
 4859SOL    HW215148   4.532   3.168   4.601 -0.9797  0.1141  1.1664
 4860SOL     OW15149   4.957   2.148   7.354  0.0671  0.5326  1.0374
 4860SOL    HW115150   4.959   2.166   7.448  0.1072 -0.0478  1.1510
 4860SOL    HW215151   4.887   2.084   7.344 -0.3074  1.0063  0.5945
 4861SOL     OW15152   6.959   3.577   3.458  0.3115 -0.1917 -0.3322
 4861SOL    HW115153   7.035   3.520   3.467  0.8958  0.4304 -1.1820
 4861SOL    HW215154   6.956   3.599   3.365 -1.9840 -1.6455 -0.6880
 4862SOL     OW15155   0.666   6.849   0.858 -0.6512 -0.1146  0.0754
 4862SOL    HW115156   0.679   6.814   0.771  3.8807  1.8004 -0.2824
 4862SOL    HW215157   0.689   6.777   0.917 -1.2177 -0.6387 -0.3300
 4863SOL     OW15158   4.858   3.473   3.616 -0.2986 -0.7843 -0.0136
 4863SOL    HW115159   4.883   3.396   3.668 -1.5389 -0.6030  0.8916
 4863SOL    HW215160   4.822   3.436   3.535  1.9048 -1.0624 -0.9324
 4864SOL     OW15161   2.524   4.068   7.232  0.4607  0.0512  0.0990
 4864SOL    HW115162   2.438   4.105   7.247  0.7695  0.5269  0.6990
 4864SOL    HW215163   2.559   4.118   7.158 -0.7988 -1.8689 -1.9425
 4865SOL     OW15164   5.569   1.950   5.183 -0.3294  0.5060 -0.3962
 4865SOL    HW115165   5.626   2.027   5.185  0.9567 -0.4177  0.0323
 4865SOL    HW215166   5.494   1.977   5.129  0.5185  1.7468 -1.0110
 4866SOL     OW15167   5.781   0.708   2.874 -0.0409 -0.8765  0.5845
 4866SOL    HW115168   5.833   0.787   2.856 -1.9382  0.9400  2.4663
 4866SOL    HW215169   5.835   0.658   2.935  0.6833 -0.4286  0.3265
 4867SOL     OW15170   1.086   3.511   6.544 -0.1071 -0.0614  0.0108
 4867SOL    HW115171   1.103   3.577   6.611 -1.9200  1.8088 -1.2284
 4867SOL    HW215172   0.994   3.486   6.558 -0.3158 -0.1164 -1.3350
 4868SOL     OW15173   1.548   1.420   2.104 -0.4350  0.2479  0.0317
 4868SOL    HW115174   1.614   1.373   2.155 -0.0491 -0.0793 -0.7573
 4868SOL    HW215175   1.598   1.466   2.036 -0.9427  0.6600 -0.0766
 4869SOL     OW15176   1.508   5.209   4.851 -0.3219  0.3557  0.2525
 4869SOL    HW115177   1.470   5.261   4.922  0.0076  0.7210  0.1631
 4869SOL    HW215178   1.542   5.131   4.894 -2.1293 -0.5231  0.2088
 4870SOL     OW15179   6.224   2.387   6.420 -0.5870 -0.3025  1.1242
 4870SOL    HW115180   6.273   2.445   6.361 -0.9392  0.0759  1.1956
 4870SOL    HW215181   6.289   2.326   6.454 -0.0877  0.4322  1.5066
 4871SOL     OW15182   2.560   4.600   5.050 -0.4253  0.5719 -0.2662
 4871SOL    HW115183   2.656   4.594   5.054 -0.5083  0.0225  1.8554
 4871SOL    HW215184   2.539   4.585   4.957  1.5441  1.0508 -0.8364
 4872SOL     OW15185   0.851   4.456   0.390  0.5402 -0.0924  0.2399
 4872SOL    HW115186   0.864   4.379   0.335 -2.8142  0.5681 -1.8153
 4872SOL    HW215187   0.802   4.424   0.466  1.7435 -0.3785  0.9237
 4873SOL     OW15188   2.622   5.300   3.079  0.4750 -0.1585 -0.8419
 4873SOL    HW115189   2.621   5.208   3.052  1.0217  0.3313 -2.6670
 4873SOL    HW215190   2.691   5.304   3.146  0.3681 -1.0819 -0.6528
 4874SOL     OW15191   6.724   1.829   5.860 -0.2347 -0.4036 -0.1042
 4874SOL    HW115192   6.748   1.902   5.804 -0.3414  0.4679  0.9609
 4874SOL    HW215193   6.807   1.803   5.902 -0.4679  0.1694  0.7350
 4875SOL     OW15194   6.152   6.907   0.127  0.0038 -0.1851  0.3522
 4875SOL    HW115195   6.142   6.967   0.201  2.1330  1.1832 -0.3871
 4875SOL    HW215196   6.125   6.959   0.051 -0.4592 -0.9986 -0.0523
 4876SOL     OW15197   5.297   5.779   3.454  0.1083 -0.0635 -0.6358
 4876SOL    HW115198   5.219   5.833   3.469  0.7669  0.9936 -0.8966
 4876SOL    HW215199   5.346   5.827   3.387  0.5123 -1.2166 -1.1876
 4877SOL     OW15200   4.792   0.796   0.247 -0.7286  0.3942 -0.1947
 4877SOL    HW115201   4.811   0.725   0.186 -0.3547 -1.3455  1.8451
 4877SOL    HW215202   4.772   0.871   0.191 -1.1217 -1.2892 -2.4298
 4878SOL     OW15203   4.974   2.875   2.139  0.2803 -0.7053 -0.4330
 4878SOL    HW115204   4.980   2.790   2.095  0.1900 -1.0801  0.2570
 4878SOL    HW215205   4.947   2.853   2.228  1.4656 -0.0432  0.1032
 4879SOL     OW15206   4.304   0.920   3.489 -0.4481  0.1273  0.3026
 4879SOL    HW115207   4.334   0.987   3.428  1.0740  1.2240  2.1262
 4879SOL    HW215208   4.251   0.861   3.436  1.4792  0.5095 -2.2233
 4880SOL     OW15209   4.831   7.020   5.643 -0.1624  0.5381 -0.0435
 4880SOL    HW115210   4.896   7.059   5.584 -1.2255  1.8719 -0.3826
 4880SOL    HW215211   4.854   7.053   5.729  0.3341 -0.0026  0.0429
 4881SOL     OW15212   1.126   5.424   2.523  0.0063 -0.0031  0.0338
 4881SOL    HW115213   1.195   5.358   2.527  0.9599  0.9935  0.9225
 4881SOL    HW215214   1.105   5.431   2.430  0.0518 -1.3665 -0.0979
 4882SOL     OW15215   1.574   1.867   4.913 -0.3376 -0.4178 -0.0252
 4882SOL    HW115216   1.573   1.850   4.819 -2.5357 -0.6260 -0.0204
 4882SOL    HW215217   1.665   1.853   4.939  0.6056  0.9072 -2.3163
 4883SOL     OW15218   5.257   5.781   2.082  0.0885  0.9678 -0.0123
 4883SOL    HW115219   5.236   5.710   2.021 -0.9619  1.2097  0.0443
 4883SOL    HW215220   5.210   5.857   2.047  0.4960  1.4211  0.4103
 4884SOL     OW15221   7.437   0.821   0.113 -0.0922  0.6084  0.5021
 4884SOL    HW115222   7.481   0.752   0.163 -1.6641 -0.6322  0.2128
 4884SOL    HW215223   7.393   0.874   0.180  0.7867  1.1272  0.6900
 4885SOL     OW15224   6.545   2.910   0.177 -0.1320  0.2633 -0.0110
 4885SOL    HW115225   6.550   2.864   0.093 -0.5386 -0.4932  0.3683
 4885SOL    HW215226   6.601   2.987   0.166 -1.6855  1.2502 -1.6563
 4886SOL     OW15227   6.221   6.905   1.304  0.3577 -0.1196  0.1509
 4886SOL    HW115228   6.159   6.839   1.337 -1.2741  0.4964 -1.4649
 4886SOL    HW215229   6.172   6.987   1.307  1.3922  0.5329 -0.4373
 4887SOL     OW15230   2.832   7.169   0.368 -0.1713 -0.1734  0.4423
 4887SOL    HW115231   2.756   7.143   0.315 -0.3526  2.5785 -0.8411
 4887SOL    HW215232   2.802   7.248   0.414  2.2346  1.7698 -1.1111
 4888SOL     OW15233   2.327   5.009   0.704 -0.3385  0.6237  0.7514
 4888SOL    HW115234   2.295   4.953   0.633 -0.8044  0.6154  0.9681
 4888SOL    HW215235   2.368   5.083   0.659 -1.1241  0.9016  0.4751
 4889SOL     OW15236   1.748   4.577   0.759  0.2512  0.2198  0.1957
 4889SOL    HW115237   1.721   4.646   0.699 -0.9842 -0.9160 -0.6457
 4889SOL    HW215238   1.710   4.497   0.721 -1.0958 -0.4761  2.8005
 4890SOL     OW15239   3.460   0.052   0.485 -0.1530  0.1098 -0.2149
 4890SOL    HW115240   3.403   0.015   0.418  1.1082 -1.8514 -0.2781
 4890SOL    HW215241   3.548   0.039   0.452  0.4217  0.8917  0.9565
 4891SOL     OW15242   0.368   0.018   5.971  0.5334  0.6879  0.3107
 4891SOL    HW115243   0.409   0.100   5.941  0.7082  0.3450 -0.4016
 4891SOL    HW215244   0.441  -0.035   6.002  0.4178  0.7997  0.7842
 4892SOL     OW15245   4.559   3.215   6.371  0.5132 -0.0001  0.5442
 4892SOL    HW115246   4.585   3.203   6.280 -1.2007  0.6855 -0.0673
 4892SOL    HW215247   4.506   3.138   6.392  0.8139 -0.1046  0.9440
 4893SOL     OW15248   5.711   0.707   4.069  0.0725  0.4928  0.4428
 4893SOL    HW115249   5.734   0.614   4.069  0.5086  0.5059 -2.8057
 4893SOL    HW215250   5.734   0.737   4.157 -1.3139 -2.6955  2.0430
 4894SOL     OW15251   6.102   0.754   1.885 -0.1539  0.2265  0.2515
 4894SOL    HW115252   6.020   0.803   1.895  0.7024  1.8616 -0.4570
 4894SOL    HW215253   6.147   0.765   1.968 -1.0469 -1.5290  1.0239
 4895SOL     OW15254   3.333   5.824   2.601  0.0449  0.1310 -0.5953
 4895SOL    HW115255   3.282   5.891   2.556 -0.3240  0.1924 -0.1000
 4895SOL    HW215256   3.370   5.869   2.677 -2.3195 -0.7769  1.2232
 4896SOL     OW15257   4.526   2.189   5.552 -0.0364 -0.0569 -1.0148
 4896SOL    HW115258   4.456   2.155   5.608  0.2744 -1.6752 -1.5680
 4896SOL    HW215259   4.591   2.119   5.549 -0.0211 -0.0220 -3.3462
 4897SOL     OW15260   3.490   0.992   0.480 -0.4080  0.2990 -0.1113
 4897SOL    HW115261   3.448   1.065   0.525  0.3293 -0.1255  1.3421
 4897SOL    HW215262   3.471   0.916   0.536 -0.1219 -0.3971 -0.9386
 4898SOL     OW15263   1.683   0.740   1.608 -0.1345 -0.4873 -0.2844
 4898SOL    HW115264   1.740   0.701   1.541  0.8528  0.5281 -0.0610
 4898SOL    HW215265   1.741   0.754   1.683 -0.4120  1.5065 -0.3981
 4899SOL     OW15266   6.011   6.903   6.822 -0.5486 -0.2608 -0.3689
 4899SOL    HW115267   6.052   6.924   6.738  1.6343 -0.6995  0.5153
 4899SOL    HW215268   5.994   6.809   6.818 -0.0327 -0.3687 -0.1863
 4900SOL     OW15269   4.115   1.112   2.354  0.4014  0.7648  1.0596
 4900SOL    HW115270   4.036   1.059   2.343 -0.0378  1.3270  1.5289
 4900SOL    HW215271   4.090   1.200   2.327  1.1168  0.7664  0.3476
 4901SOL     OW15272   4.424   2.794   5.187  0.2017 -0.0099  0.0730
 4901SOL    HW115273   4.382   2.851   5.252  0.5151  0.4471 -0.1207
 4901SOL    HW215274   4.514   2.824   5.183  0.2818 -0.2927 -0.2890
 4902SOL     OW15275   7.090   4.945   3.560 -0.0610  0.2028 -0.3181
 4902SOL    HW115276   7.106   4.902   3.643  0.2238  0.2193 -0.3646
 4902SOL    HW215277   7.177   4.963   3.524 -0.1795  0.4048 -0.5106
 4903SOL     OW15278   6.075   0.107   1.247 -0.2100  0.0317  0.0440
 4903SOL    HW115279   6.094   0.152   1.165 -1.2464 -0.8827 -0.7212
 4903SOL    HW215280   6.136   0.033   1.248  0.9760  0.9695  0.9460
 4904SOL     OW15281   1.555   5.519   7.207 -0.3141 -0.1681 -0.4570
 4904SOL    HW115282   1.578   5.546   7.296 -2.3658  1.4863 -0.3612
 4904SOL    HW215283   1.466   5.485   7.215 -0.1518 -0.9428 -1.7265
 4905SOL     OW15284   6.788   2.028   4.081 -0.3935 -0.3870  0.0912
 4905SOL    HW115285   6.880   2.010   4.062 -0.2852 -1.6223  1.5801
 4905SOL    HW215286   6.740   1.958   4.036 -0.5601 -0.1565 -0.0957
 4906SOL     OW15287   2.878   5.813   4.041 -0.8693  0.0528  0.0063
 4906SOL    HW115288   2.903   5.749   3.975 -1.0010  0.8972 -0.8873
 4906SOL    HW215289   2.912   5.778   4.123  5.5582  2.0870 -1.1916
 4907SOL     OW15290   6.619   0.573   0.312 -1.0727 -0.0913  0.1928
 4907SOL    HW115291   6.569   0.583   0.231 -1.1709 -1.2333  0.0939
 4907SOL    HW215292   6.610   0.480   0.334  1.1404 -0.3638  0.0907
 4908SOL     OW15293   0.903   3.088   2.387  0.1795 -0.0651  0.1891
 4908SOL    HW115294   0.882   3.180   2.403 -0.6919 -0.2236  0.0379
 4908SOL    HW215295   0.838   3.040   2.438  0.6818 -0.6008  0.3336
 4909SOL     OW15296   1.848   0.603   3.685 -0.2218 -0.0015  0.0215
 4909SOL    HW115297   1.786   0.533   3.662 -1.0190  0.0721  1.8606
 4909SOL    HW215298   1.800   0.660   3.745  0.9962  1.1762 -0.0817
 4910SOL     OW15299   3.636   5.901   5.795 -0.5585  0.0206 -0.4368
 4910SOL    HW115300   3.660   5.817   5.755 -0.8612  0.9172 -2.6356
 4910SOL    HW215301   3.542   5.908   5.780 -0.2590  1.4976 -1.8415
 4911SOL     OW15302   6.071   2.055   1.656 -0.0922 -0.0957 -0.0190
 4911SOL    HW115303   6.139   1.999   1.618  1.3970  0.6950  1.3321
 4911SOL    HW215304   6.035   2.103   1.582  2.6905  1.3844 -0.5456
 4912SOL     OW15305   0.466   6.073   2.012  0.2816 -0.3929 -0.0179
 4912SOL    HW115306   0.541   6.113   2.057  0.8735  0.2907 -1.5262
 4912SOL    HW215307   0.503   6.034   1.933 -0.8542 -0.7139 -0.4183
 4913SOL     OW15308   5.090   0.076   2.340  0.5815 -0.9031  0.3835
 4913SOL    HW115309   5.156   0.127   2.387  1.3203 -2.3767  1.0224
 4913SOL    HW215310   5.018   0.066   2.402  0.6010 -0.9484  0.3992
 4914SOL     OW15311   0.923   0.735   6.387  0.0150 -0.3195  0.2113
 4914SOL    HW115312   0.921   0.732   6.292 -2.2061 -2.7112  0.2571
 4914SOL    HW215313   0.837   0.706   6.415  0.4509  0.7089  2.9885
 4915SOL     OW15314   4.184   1.828   5.624  0.2260  0.1529  0.0961
 4915SOL    HW115315   4.238   1.893   5.578  1.2092 -1.8685 -1.7995
 4915SOL    HW215316   4.234   1.807   5.703 -0.7874  2.6301  1.4944
 4916SOL     OW15317   6.926   0.773   3.856  0.1045  0.1759  0.6159
 4916SOL    HW115318   6.858   0.714   3.888  2.4528 -3.2163 -0.0838
 4916SOL    HW215319   6.987   0.717   3.808  4.0546  2.6563  2.1443
 4917SOL     OW15320   0.045   0.581   5.534  0.1201 -0.1103  0.0494
 4917SOL    HW115321   0.104   0.510   5.509  0.4660  0.6273 -1.3169
 4917SOL    HW215322  -0.032   0.569   5.477  0.8096  1.4515 -1.2782
 4918SOL     OW15323   4.318   2.870   4.393  0.0088 -0.1232  0.3173
 4918SOL    HW115324   4.241   2.859   4.336  1.2053 -0.9216 -1.2481
 4918SOL    HW215325   4.328   2.964   4.402  0.6318  0.1372 -2.1468
 4919SOL     OW15326   2.082   5.929   2.358 -0.5548  0.5548  0.2587
 4919SOL    HW115327   2.002   5.875   2.357 -0.9878  1.1837 -0.4362
 4919SOL    HW215328   2.051   6.017   2.337  0.4861  0.5657 -1.3882
 4920SOL     OW15329   7.433   6.549   3.496  0.1697 -0.2806  0.3766
 4920SOL    HW115330   7.417   6.627   3.443  1.3824 -0.1678  0.1388
 4920SOL    HW215331   7.346   6.517   3.519 -0.3519  1.4501  0.9541
 4921SOL     OW15332   5.081   3.918   2.037 -0.1383 -0.0633 -0.7317
 4921SOL    HW115333   5.064   3.876   1.953 -0.1119 -0.9641 -0.2899
 4921SOL    HW215334   5.047   3.857   2.102 -0.7940  0.9399 -0.1066
 4922SOL     OW15335   7.088   4.699   6.439 -0.5822 -0.0589 -0.7649
 4922SOL    HW115336   7.059   4.786   6.413 -1.3462 -0.0664  0.0277
 4922SOL    HW215337   7.044   4.640   6.378 -0.8535  0.0463 -0.6712
 4923SOL     OW15338   5.526   1.919   2.525 -0.3879 -0.1483  0.2885
 4923SOL    HW115339   5.572   1.956   2.450 -0.0885  0.1766  0.6321
 4923SOL    HW215340   5.581   1.847   2.554 -0.3641 -0.0979  0.3683
 4924SOL     OW15341   6.139   6.178   6.010 -0.0249 -0.2710  0.4448
 4924SOL    HW115342   6.065   6.138   6.057  0.2126  0.8894  1.8968
 4924SOL    HW215343   6.142   6.268   6.043  1.5757 -0.0739 -0.1497
 4925SOL     OW15344   6.543   0.738   2.216  0.1844  0.3987  0.7315
 4925SOL    HW115345   6.618   0.739   2.277  1.0304  0.8079 -0.2936
 4925SOL    HW215346   6.572   0.790   2.141 -1.4502  1.2941  0.6647
 4926SOL     OW15347   6.860   0.048   4.496 -0.0784 -0.3295  0.1275
 4926SOL    HW115348   6.787   0.060   4.558  1.2175  2.9970  1.2623
 4926SOL    HW215349   6.825   0.080   4.413 -0.3114  0.0507  0.3649
 4927SOL     OW15350   6.713   6.862   5.986 -0.6775 -0.3844 -0.3023
 4927SOL    HW115351   6.631   6.840   5.943 -0.6451 -0.6962 -0.2131
 4927SOL    HW215352   6.687   6.913   6.063 -0.7614 -0.1668 -0.4743
 4928SOL     OW15353   0.110   2.029   4.582  0.0812  0.0067  0.0755
 4928SOL    HW115354   0.119   1.937   4.559  0.7879  0.1094 -0.0936
 4928SOL    HW215355   0.115   2.031   4.677  2.3089  0.0607  0.0173
 4929SOL     OW15356   3.973   5.729   4.766 -0.2631 -0.4336 -0.9699
 4929SOL    HW115357   3.943   5.804   4.817  0.0665 -0.7993 -0.2113
 4929SOL    HW215358   4.040   5.765   4.708  1.2688 -0.4075  0.6857
 4930SOL     OW15359   1.680   6.795   6.198  0.1853  0.4479 -0.2525
 4930SOL    HW115360   1.653   6.885   6.216 -1.8482 -0.2521  0.5647
 4930SOL    HW215361   1.625   6.768   6.124 -1.9595 -1.1830  1.7468
 4931SOL     OW15362   1.086   2.296   4.865  0.4246  0.7405 -0.0743
 4931SOL    HW115363   1.170   2.324   4.828  0.4515 -0.3546 -0.9038
 4931SOL    HW215364   1.073   2.352   4.941  0.8520  2.4099 -1.1878
 4932SOL     OW15365   0.711   4.825   4.813  0.4017  0.7636 -0.0651
 4932SOL    HW115366   0.756   4.742   4.833  1.3738  0.7584 -2.0417
 4932SOL    HW215367   0.694   4.821   4.719 -2.3372  1.5183  0.3266
 4933SOL     OW15368   6.115   1.769   2.115  0.1159  0.5522 -0.1113
 4933SOL    HW115369   6.122   1.791   2.022 -0.0714  1.0685 -0.0102
 4933SOL    HW215370   6.185   1.706   2.130 -1.0047 -0.9617 -1.0086
 4934SOL     OW15371   2.520   5.736   3.641 -0.0825  0.3039 -0.1542
 4934SOL    HW115372   2.569   5.774   3.568 -1.2340 -0.3823 -1.3317
 4934SOL    HW215373   2.461   5.805   3.670 -1.9204 -0.3511 -2.0581
 4935SOL     OW15374   1.506   3.045   6.245 -0.2960  0.0674  0.5427
 4935SOL    HW115375   1.466   3.088   6.169 -0.4365 -0.8009  0.1010
 4935SOL    HW215376   1.451   3.070   6.319 -0.3950  0.6083  0.2893
 4936SOL     OW15377   2.567   5.281   3.424 -0.1867  0.0299  0.1988
 4936SOL    HW115378   2.552   5.374   3.407 -1.6546  0.0128  1.2385
 4936SOL    HW215379   2.610   5.280   3.509 -2.2164 -0.2894  1.2870
 4937SOL     OW15380   4.148   1.229   6.608  0.8342  0.0613  0.1394
 4937SOL    HW115381   4.234   1.264   6.630  0.8054 -1.1771  2.5742
 4937SOL    HW215382   4.092   1.257   6.680 -0.2037 -1.2514 -0.1219
 4938SOL     OW15383   2.321   4.411   0.365  0.4403 -0.1423 -0.7660
 4938SOL    HW115384   2.324   4.442   0.275  0.1076 -1.6726 -1.3340
 4938SOL    HW215385   2.265   4.334   0.362 -0.5804  0.4675  0.9761
 4939SOL     OW15386   6.455   0.525   7.065  0.3472  0.2139 -0.0674
 4939SOL    HW115387   6.546   0.553   7.069  0.6989 -0.2493 -3.0127
 4939SOL    HW215388   6.457   0.432   7.089  0.4253  0.5110  1.1351
 4940SOL     OW15389   5.163   7.036   1.785 -0.0425  0.2206  0.0887
 4940SOL    HW115390   5.207   6.965   1.738  0.2383  1.1943 -1.1889
 4940SOL    HW215391   5.184   7.115   1.734 -0.4713  1.2006  1.3769
 4941SOL     OW15392   0.134   0.399   3.913  0.2315  0.3704 -0.1753
 4941SOL    HW115393   0.194   0.325   3.920  1.9716  1.4963 -1.9724
 4941SOL    HW215394   0.060   0.376   3.969  1.5175 -1.8960  0.7147
 4942SOL     OW15395   6.201   2.199   5.802 -0.3309 -0.2534  0.3641
 4942SOL    HW115396   6.262   2.129   5.778  0.0960 -0.4725  2.0160
 4942SOL    HW215397   6.230   2.274   5.749  1.0811 -0.4902  0.7685
 4943SOL     OW15398   3.656   0.826   0.834  0.4276 -0.3177 -0.0980
 4943SOL    HW115399   3.695   0.788   0.755  0.5327 -0.0691 -0.1662
 4943SOL    HW215400   3.658   0.921   0.819 -1.1948 -0.3347 -0.5696
 4944SOL     OW15401   4.833   2.896   0.181 -0.3127 -0.1310 -0.0566
 4944SOL    HW115402   4.891   2.884   0.256 -0.1907 -1.2725 -0.3189
 4944SOL    HW215403   4.878   2.959   0.126 -0.6946  1.2110  1.1042
 4945SOL     OW15404   6.680   4.280   1.170 -0.1277  0.0430  0.4163
 4945SOL    HW115405   6.656   4.346   1.104 -2.8056 -1.4905 -0.3002
 4945SOL    HW215406   6.762   4.243   1.138  0.2303  1.4488 -0.3867
 4946SOL     OW15407   6.095   3.988   4.403 -0.3367 -0.5157  0.2877
 4946SOL    HW115408   6.004   3.976   4.378  0.1329  0.6243 -2.4002
 4946SOL    HW215409   6.102   4.081   4.426  0.8489  0.6878 -3.9598
 4947SOL     OW15410   5.554   2.702   4.834 -0.0456 -0.0270  0.6481
 4947SOL    HW115411   5.649   2.702   4.823 -0.1764 -3.0216 -1.9957
 4947SOL    HW215412   5.536   2.777   4.890  3.9342  0.0447  2.1373
 4948SOL     OW15413   4.088   2.255   4.025  0.5947  0.1391 -0.7785
 4948SOL    HW115414   4.110   2.347   4.008 -2.0024  0.7214 -1.4795
 4948SOL    HW215415   4.093   2.213   3.939  2.5691 -0.6122 -0.3333
 4949SOL     OW15416   2.168   7.392   7.120  0.1594 -0.7965  0.2580
 4949SOL    HW115417   2.238   7.453   7.142  0.0955 -0.9680  0.9595
 4949SOL    HW215418   2.196   7.309   7.157 -1.1958 -0.4860  2.1326
 4950SOL     OW15419   3.685   0.427   5.655  0.6760  0.0996  0.1716
 4950SOL    HW115420   3.657   0.357   5.714 -1.2090 -2.1557 -3.0711
 4950SOL    HW215421   3.779   0.412   5.643 -0.0595 -4.1418 -2.7284
 4951SOL     OW15422   0.570   2.616   5.146 -0.3288 -0.3442 -0.4684
 4951SOL    HW115423   0.635   2.679   5.115  0.7767 -0.1163  2.0801
 4951SOL    HW215424   0.560   2.554   5.074  2.2674 -0.0320 -1.1771
 4952SOL     OW15425   5.403   0.664   5.888 -0.0947 -0.2683  0.3496
 4952SOL    HW115426   5.433   0.722   5.958 -0.8106  2.4305 -1.4327
 4952SOL    HW215427   5.322   0.626   5.923 -0.3546  0.8952  1.0773
 4953SOL     OW15428   0.558   6.084   4.834 -0.5223 -0.2468  0.2289
 4953SOL    HW115429   0.600   6.049   4.912 -0.5330 -0.8227 -0.0128
 4953SOL    HW215430   0.464   6.075   4.852 -0.5670  1.2933  0.8824
 4954SOL     OW15431   4.622   2.824   1.056  0.5138 -0.3404  0.0063
 4954SOL    HW115432   4.556   2.829   1.126  0.0329 -0.3720 -0.4393
 4954SOL    HW215433   4.683   2.894   1.077 -0.1891  0.3224 -0.0965
 4955SOL     OW15434   1.630   2.162   2.753  0.1550 -0.0853 -0.3052
 4955SOL    HW115435   1.589   2.099   2.694  0.6090 -1.8291  1.1531
 4955SOL    HW215436   1.721   2.168   2.724 -0.0664  0.4933 -0.8998
 4956SOL     OW15437   1.443   4.754   6.546  0.4725  0.0064  0.2318
 4956SOL    HW115438   1.476   4.748   6.636 -0.2391  0.2411  0.5197
 4956SOL    HW215439   1.348   4.756   6.556  0.3925  2.3002 -0.3438
 4957SOL     OW15440   4.925   3.748   3.693  0.0515 -0.1981  0.8906
 4957SOL    HW115441   4.908   3.736   3.787 -3.1290 -1.2168  0.3027
 4957SOL    HW215442   4.922   3.660   3.657 -0.0886  0.3013 -0.3549
 4958SOL     OW15443   3.834   1.366   1.383 -0.0551 -0.7835 -0.3355
 4958SOL    HW115444   3.836   1.273   1.402  1.1054 -0.2147  2.9758
 4958SOL    HW215445   3.743   1.392   1.402 -0.0432 -1.0255  0.0691
 4959SOL     OW15446   1.956   7.145   3.017 -0.2149  0.0648 -0.4320
 4959SOL    HW115447   2.007   7.160   2.938 -0.1469 -2.6917 -0.9870
 4959SOL    HW215448   1.904   7.067   2.999  0.7975 -1.4920  2.6520
 4960SOL     OW15449   4.434   1.402   1.049 -0.2253 -0.2517 -0.5390
 4960SOL    HW115450   4.476   1.481   1.082  1.0492  0.2659 -3.1263
 4960SOL    HW215451   4.480   1.383   0.967 -2.0132 -2.3681 -1.1459
 4961SOL     OW15452   1.887   0.089   1.044  0.5543 -0.5573 -0.2778
 4961SOL    HW115453   1.964   0.121   1.091 -1.1027  1.1003  1.4951
 4961SOL    HW215454   1.838   0.040   1.110 -1.4091  1.0748 -0.4202
 4962SOL     OW15455   1.485   4.925   4.039 -0.0787 -0.3216  0.7598
 4962SOL    HW115456   1.550   4.861   4.010 -1.2707 -1.1860 -0.0899
 4962SOL    HW215457   1.534   4.985   4.096  1.5059 -0.7749 -0.0730
 4963SOL     OW15458   6.559   1.251   1.586  0.1092 -0.2784 -0.5669
 4963SOL    HW115459   6.499   1.186   1.550  0.3972 -1.0959  0.3811
 4963SOL    HW215460   6.548   1.244   1.681  1.2333  0.0051 -0.3999
 4964SOL     OW15461   5.000   6.077   3.828 -0.3734  0.4333 -0.3936
 4964SOL    HW115462   4.979   6.152   3.773  0.3900 -0.1441 -1.5066
 4964SOL    HW215463   4.981   6.001   3.773  0.4621 -0.1584  0.1188
 4965SOL     OW15464   4.865   2.420   5.419  0.2007 -0.3189 -0.0792
 4965SOL    HW115465   4.924   2.488   5.451  1.0648 -1.1126  0.0904
 4965SOL    HW215466   4.846   2.445   5.329  2.1237 -0.8436 -0.6989
 4966SOL     OW15467   7.034   4.688   0.801  0.1413  0.2332 -0.3478
 4966SOL    HW115468   6.950   4.678   0.846  0.5867  2.1262  0.9933
 4966SOL    HW215469   7.050   4.782   0.800  2.3954 -0.1043 -0.3084
 4967SOL     OW15470   1.029   1.165   4.824 -0.0949 -0.8313  0.7537
 4967SOL    HW115471   0.994   1.226   4.759  0.5407 -0.9097  0.3329
 4967SOL    HW215472   1.031   1.215   4.906  0.8594 -0.1348  0.3140
 4968SOL     OW15473   3.396   0.495   1.377 -0.6767  0.0067 -0.3921
 4968SOL    HW115474   3.341   0.441   1.321 -1.2386 -0.1589  0.3118
 4968SOL    HW215475   3.478   0.503   1.328 -0.1193 -2.5022 -0.0040
 4969SOL     OW15476   2.888   1.706   2.241  0.4402 -0.6597  0.2942
 4969SOL    HW115477   2.831   1.668   2.174  0.3287 -0.0335  0.0230
 4969SOL    HW215478   2.835   1.706   2.321  0.1787 -0.3965  0.1238
 4970SOL     OW15479   4.312   2.387   5.679  0.2407  0.4882 -0.4189
 4970SOL    HW115480   4.317   2.341   5.594  0.5637  0.1239 -0.2064
 4970SOL    HW215481   4.218   2.401   5.693  0.1345 -0.1491 -0.4689
 4971SOL     OW15482   0.955   4.843   3.272  0.3333 -0.2602 -0.0241
 4971SOL    HW115483   0.935   4.773   3.334 -1.3068 -0.1474 -0.3794
 4971SOL    HW215484   0.922   4.922   3.314  0.2786 -0.0147 -0.5227
 4972SOL     OW15485   7.073   0.227   0.907 -0.5883  0.1316  0.4890
 4972SOL    HW115486   7.102   0.159   0.968 -1.4753  0.3525  1.1604
 4972SOL    HW215487   7.031   0.293   0.961  0.1908  1.2043 -0.1660
 4973SOL     OW15488   0.580   7.138   1.416  0.7839  0.4377 -0.4980
 4973SOL    HW115489   0.543   7.222   1.444 -0.7705 -0.1706 -0.6438
 4973SOL    HW215490   0.664   7.161   1.374  1.0857  1.7530  0.7707
 4974SOL     OW15491   5.491   1.959   7.285  0.3391  0.0886  0.4495
 4974SOL    HW115492   5.403   1.955   7.324  0.3784  0.4871  0.5793
 4974SOL    HW215493   5.512   2.052   7.283  0.1570  0.1231 -0.9350
 4975SOL     OW15494   1.572   5.211   0.111  0.0449  0.1943 -0.3137
 4975SOL    HW115495   1.562   5.124   0.074  0.4547 -0.5703  1.2696
 4975SOL    HW215496   1.665   5.215   0.136 -0.4309  0.2121  1.6064
 4976SOL     OW15497   0.914   3.432   5.604 -0.3939  0.3197  0.1365
 4976SOL    HW115498   0.989   3.373   5.595 -0.7753 -0.4871  1.8467
 4976SOL    HW215499   0.847   3.380   5.647 -1.1622  1.6585  0.6401
 4977SOL     OW15500   4.399   1.748   4.458  0.8862 -0.2219 -0.6243
 4977SOL    HW115501   4.400   1.699   4.540 -0.4242 -0.4974 -0.7425
 4977SOL    HW215502   4.308   1.740   4.427  0.0281  3.7784  0.2647
 4978SOL     OW15503   2.503   7.106   3.948 -0.2039  0.1658 -0.4004
 4978SOL    HW115504   2.436   7.164   3.984  0.9892  0.1001  2.0827
 4978SOL    HW215505   2.584   7.156   3.954  0.1719 -0.0950 -2.5317
 4979SOL     OW15506   4.734   5.997   4.052 -0.7324 -0.0701 -0.6837
 4979SOL    HW115507   4.812   5.961   4.010 -1.0641 -1.3960 -0.2068
 4979SOL    HW215508   4.679   6.026   3.980 -0.3429 -0.2646 -1.0624
 4980SOL     OW15509   2.685   0.209   5.133 -0.1243  0.2333 -0.3256
 4980SOL    HW115510   2.592   0.228   5.123 -0.3275  0.3381  1.4640
 4980SOL    HW215511   2.729   0.279   5.084 -0.9680  0.8498 -0.2160
 4981SOL     OW15512   3.702   3.195   3.538  0.4943  0.3231  0.0552
 4981SOL    HW115513   3.638   3.239   3.482  2.4081  1.1121 -1.6348
 4981SOL    HW215514   3.740   3.127   3.483  2.9761  1.6125  0.0334
 4982SOL     OW15515   5.872   5.113   4.883  0.5510  0.2367  0.7113
 4982SOL    HW115516   5.890   5.021   4.903  0.6384 -0.0206 -0.4756
 4982SOL    HW215517   5.837   5.112   4.794  0.0560  1.3093  0.8764
 4983SOL     OW15518   5.030   1.285   3.433 -0.5511  0.2483 -0.6517
 4983SOL    HW115519   5.012   1.244   3.349  0.3539  0.1317 -0.7981
 4983SOL    HW215520   5.049   1.377   3.411 -0.0178  0.1501 -0.6138
 4984SOL     OW15521   6.728   5.010   6.812 -0.5272 -0.4769  0.0521
 4984SOL    HW115522   6.741   5.013   6.907  0.2585  1.7658 -0.0696
 4984SOL    HW215523   6.811   4.975   6.778  0.1941  1.1145  0.0849
 4985SOL     OW15524   0.260   4.219   4.821  0.2400 -0.5012  0.3180
 4985SOL    HW115525   0.203   4.296   4.809 -1.4379 -1.6604  0.5530
 4985SOL    HW215526   0.339   4.254   4.862 -0.5981  1.0699  0.6759
 4986SOL     OW15527   7.331   3.557   1.044 -0.6833  0.1877  0.5474
 4986SOL    HW115528   7.254   3.606   1.015 -0.4733 -0.2638 -0.8623
 4986SOL    HW215529   7.345   3.586   1.134 -1.4571  1.5863  0.2534
 4987SOL     OW15530   5.805   0.012   1.281 -0.0595  0.7594  0.0160
 4987SOL    HW115531   5.765   0.046   1.360  2.0063 -1.6648  2.3103
 4987SOL    HW215532   5.894   0.047   1.282  0.4493 -0.4585 -0.3733
 4988SOL     OW15533   6.298   4.007   5.395  0.2102 -0.3292  0.2889
 4988SOL    HW115534   6.257   4.090   5.369  0.8058  0.2428  1.0915
 4988SOL    HW215535   6.225   3.951   5.422 -0.4700 -1.0651 -2.7575
 4989SOL     OW15536   6.030   1.734   2.365  0.1067 -0.2508 -0.1045
 4989SOL    HW115537   6.050   1.748   2.273  0.5637  2.0346  0.2820
 4989SOL    HW215538   6.094   1.786   2.412 -1.2105  0.0537  1.4454
 4990SOL     OW15539   6.227   4.166   0.172 -0.2897 -0.0670 -0.3930
 4990SOL    HW115540   6.135   4.190   0.176 -0.5277 -1.0737  0.5640
 4990SOL    HW215541   6.273   4.239   0.213 -0.8940 -0.6367  1.3878
 4991SOL     OW15542   6.412   5.896   1.951 -0.4551  0.0193 -0.4025
 4991SOL    HW115543   6.480   5.833   1.977 -2.3818 -1.4252  1.4579
 4991SOL    HW215544   6.452   5.982   1.966  1.0612 -0.7682  0.2983
 4992SOL     OW15545   1.578   0.412   2.461  0.1088  0.6185 -0.0114
 4992SOL    HW115546   1.554   0.346   2.527 -0.1629 -0.2489 -0.9450
 4992SOL    HW215547   1.533   0.383   2.381  0.9165  1.3069 -0.7334
 4993SOL     OW15548   6.686   5.594   3.312 -0.3922 -0.5304  0.4465
 4993SOL    HW115549   6.647   5.567   3.229  0.7070 -0.2580 -0.1891
 4993SOL    HW215550   6.754   5.657   3.287  0.9501 -1.5197  1.4152
 4994SOL     OW15551   0.056   5.697   2.118 -0.0835 -0.0520  0.7649
 4994SOL    HW115552   0.068   5.714   2.025  3.0409  1.8838  1.3739
 4994SOL    HW215553  -0.002   5.767   2.148  1.2410  1.1318  0.7015
 4995SOL     OW15554   4.149   3.865   7.093 -0.0200 -0.2154 -0.2185
 4995SOL    HW115555   4.186   3.859   7.181  0.2314 -0.4875 -0.3394
 4995SOL    HW215556   4.208   3.813   7.038  0.3278  0.6694 -0.7106
 4996SOL     OW15557   4.658   2.714   4.326  0.4483 -0.1546  0.3785
 4996SOL    HW115558   4.670   2.651   4.255  2.9279  1.3614 -0.6593
 4996SOL    HW215559   4.686   2.798   4.289 -1.1506  1.2882  2.2204
 4997SOL     OW15560   6.790   1.382   7.014 -0.4067  0.1359 -0.0249
 4997SOL    HW115561   6.824   1.386   6.924  1.5279 -1.3791  0.5866
 4997SOL    HW215562   6.792   1.473   7.043  0.9060  0.4081 -0.8512
 4998SOL     OW15563   2.507   3.703   3.652 -0.0044 -0.0743  0.5819
 4998SOL    HW115564   2.487   3.619   3.609  2.0061 -0.6640  0.7159
 4998SOL    HW215565   2.426   3.725   3.698 -0.5683 -1.9878  0.6244
 4999SOL     OW15566   4.234   3.023   0.105 -0.3143  0.4698  0.3004
 4999SOL    HW115567   4.249   3.006   0.012 -0.9216  0.4029  0.2115
 4999SOL    HW215568   4.284   2.955   0.150 -0.7551 -0.0641 -0.0004
 5000SOL     OW15569   2.374   5.490   5.631  0.0565 -0.5469  0.3860
 5000SOL    HW115570   2.443   5.431   5.661 -1.5876 -2.4079  0.7957
 5000SOL    HW215571   2.420   5.564   5.592  2.2516 -1.9036  0.2301
 5001SOL     OW15572   2.960   1.652   1.188  0.0400  0.6404 -0.7101
 5001SOL    HW115573   3.017   1.728   1.173  1.2191 -0.0909 -0.1032
 5001SOL    HW215574   2.910   1.675   1.267  3.2751 -0.7098  1.9901
 5002SOL     OW15575   3.855   4.796   4.325  0.1330 -0.1675 -0.1272
 5002SOL    HW115576   3.830   4.791   4.417 -0.4460 -0.9351 -0.3151
 5002SOL    HW215577   3.795   4.736   4.281  0.8091 -0.2690 -0.9233
 5003SOL     OW15578   3.778   4.201   1.184 -0.2922  0.2340 -0.1372
 5003SOL    HW115579   3.798   4.111   1.208  1.3410  0.7656  0.6504
 5003SOL    HW215580   3.701   4.223   1.237  1.2856  0.3314  2.2657
 5004SOL     OW15581   5.087   4.958   2.010  0.3312  0.6569 -0.1997
 5004SOL    HW115582   4.997   4.926   1.997 -0.0822  2.0306 -0.9566
 5004SOL    HW215583   5.142   4.890   1.972 -0.2492 -0.9370  1.5807
 5005SOL     OW15584   1.586   3.432   1.701  0.0575 -0.2103 -0.1422
 5005SOL    HW115585   1.503   3.454   1.657 -0.2410  2.7994  1.6603
 5005SOL    HW215586   1.630   3.374   1.639 -2.2086  0.2528 -2.4106
 5006SOL     OW15587   2.867   2.665   4.108  0.0706  0.0444  0.6070
 5006SOL    HW115588   2.851   2.586   4.057 -0.2968 -0.2264  1.1321
 5006SOL    HW215589   2.797   2.725   4.081  1.8849  1.2701 -1.8524
 5007SOL     OW15590   7.163   1.456   0.885 -0.6158 -0.0269  0.4279
 5007SOL    HW115591   7.126   1.457   0.973 -1.2005  0.0744  0.1822
 5007SOL    HW215592   7.206   1.370   0.879  0.2958  0.3599  1.1572
 5008SOL     OW15593   3.219   0.733   4.206  0.7924  0.1719  0.4810
 5008SOL    HW115594   3.153   0.802   4.216 -1.0085 -1.2397 -0.9579
 5008SOL    HW215595   3.290   0.775   4.156 -0.5766  0.8414 -0.9797
 5009SOL     OW15596   4.672   5.924   5.688  0.0494 -0.2372 -0.1844
 5009SOL    HW115597   4.620   5.853   5.652 -2.0197  0.3452  1.3945
 5009SOL    HW215598   4.763   5.898   5.675 -0.6186 -1.7956 -2.1658
 5010SOL     OW15599   1.405   6.719   5.449  0.2054  0.4419 -0.2357
 5010SOL    HW115600   1.498   6.723   5.469  0.2004  0.6778 -0.2540
 5010SOL    HW215601   1.372   6.646   5.501  0.1534  1.1724  0.7903
 5011SOL     OW15602   4.062   3.992   2.045 -0.3865  0.6140  0.2002
 5011SOL    HW115603   4.002   3.925   2.011  1.1977 -0.9861  0.4185
 5011SOL    HW215604   4.006   4.050   2.097 -1.8003 -0.6372  0.1478
 5012SOL     OW15605   2.878   3.854   5.256 -0.5000 -0.3925 -0.5365
 5012SOL    HW115606   2.927   3.813   5.184 -0.3354 -1.8935  0.3994
 5012SOL    HW215607   2.801   3.892   5.213  0.7201  0.7697 -1.8258
 5013SOL     OW15608   6.741   7.211   0.813  0.1133 -0.3441 -0.2820
 5013SOL    HW115609   6.775   7.160   0.739 -0.3192 -1.7972  0.4771
 5013SOL    HW215610   6.655   7.173   0.830  0.5568 -0.6223  1.4917
 5014SOL     OW15611   1.259   6.503   5.542  0.1040  0.0093 -0.0418
 5014SOL    HW115612   1.183   6.548   5.577  0.1076 -0.3573  0.4468
 5014SOL    HW215613   1.224   6.432   5.488  0.0981 -0.0209  0.0018
 5015SOL     OW15614   7.322   2.603   3.513 -0.2188 -0.3184  0.3243
 5015SOL    HW115615   7.337   2.682   3.460  0.3880  0.1937  1.2223
 5015SOL    HW215616   7.242   2.622   3.561  0.1387 -0.0799  0.8322
 5016SOL     OW15617   0.734   2.505   2.667  0.1791  1.1101  0.7650
 5016SOL    HW115618   0.827   2.506   2.689  0.1001  0.4073  1.1552
 5016SOL    HW215619   0.692   2.548   2.741  0.0785  0.2567  1.2239
 5017SOL     OW15620   7.345   3.115   2.281  0.2642 -0.0663 -0.3590
 5017SOL    HW115621   7.294   3.057   2.225  0.7518 -0.4735 -0.3932
 5017SOL    HW215622   7.285   3.186   2.304 -1.3674 -2.0738  2.1540
 5018SOL     OW15623   1.303   4.501   3.979  0.0184 -0.4848 -0.1675
 5018SOL    HW115624   1.265   4.415   3.993  1.7314 -0.8253  3.3758
 5018SOL    HW215625   1.358   4.491   3.901 -0.7058 -2.2389 -0.4839
 5019SOL     OW15626   2.341   5.770   2.412  0.1207  0.0793  0.1968
 5019SOL    HW115627   2.265   5.828   2.410  1.2446  1.8691  3.0177
 5019SOL    HW215628   2.324   5.710   2.484  0.9980 -0.0582  0.3035
 5020SOL     OW15629   5.684   4.755   1.937  0.0717  0.7437  0.0701
 5020SOL    HW115630   5.736   4.736   2.015  1.7596 -0.4821 -1.2816
 5020SOL    HW215631   5.678   4.850   1.934  0.1942  0.8161  1.5427
 5021SOL     OW15632   0.332   7.010   3.498 -0.0423  0.1882 -0.7023
 5021SOL    HW115633   0.339   6.977   3.408 -1.3785  0.0123 -0.7703
 5021SOL    HW215634   0.263   6.956   3.537  0.7865  0.0122  0.5523
 5022SOL     OW15635   4.998   0.092   6.336 -0.5184 -0.1309 -0.3841
 5022SOL    HW115636   4.978   0.158   6.402  0.3255 -1.5983  1.4397
 5022SOL    HW215637   5.072   0.128   6.287 -0.4457  0.5110  0.1849
 5023SOL     OW15638   3.456   6.081   3.018  0.2414 -0.5307  0.2925
 5023SOL    HW115639   3.493   6.039   2.941  0.0119 -2.2013  1.0530
 5023SOL    HW215640   3.406   6.155   2.983  1.5495 -0.2110 -1.0012
 5024SOL     OW15641   5.495   2.089   6.654 -0.7222  0.6447 -0.6606
 5024SOL    HW115642   5.560   2.050   6.712  0.5294  1.7253 -1.2639
 5024SOL    HW215643   5.491   2.181   6.681 -2.9795  0.3446  0.1950
 5025SOL     OW15644   7.331   2.490   0.818  0.2973 -0.1279  0.3821
 5025SOL    HW115645   7.308   2.514   0.728 -1.1394  0.1152  0.7862
 5025SOL    HW215646   7.375   2.406   0.810 -1.3994 -1.0056 -0.4377
 5026SOL     OW15647   2.512   3.531   4.154 -0.0071  0.0584  0.4854
 5026SOL    HW115648   2.589   3.586   4.141  0.1272 -0.0379  0.8672
 5026SOL    HW215649   2.448   3.588   4.196  0.2270 -0.1415  1.1312
 5027SOL     OW15650   0.148   4.404   5.182 -0.1341  0.5245 -0.9133
 5027SOL    HW115651   0.209   4.475   5.161  2.3794 -1.8427 -2.3662
 5027SOL    HW215652   0.156   4.392   5.276 -1.1404  2.5457 -0.5287
 5028SOL     OW15653   6.439   6.564   6.272 -0.1224 -0.3137 -0.3267
 5028SOL    HW115654   6.421   6.473   6.247  1.1197 -1.1949  1.7635
 5028SOL    HW215655   6.460   6.607   6.189 -0.9842 -1.8500 -1.4031
 5029SOL     OW15656   0.513   5.728   7.243 -0.3523  0.2403  0.2645
 5029SOL    HW115657   0.587   5.689   7.290 -0.4127  1.0312  1.0380
 5029SOL    HW215658   0.521   5.693   7.154  0.8353  0.1485  0.3807
 5030SOL     OW15659   1.563   0.180   4.584  0.3202 -0.0814  0.3959
 5030SOL    HW115660   1.631   0.136   4.635  0.6080 -0.2228 -0.1087
 5030SOL    HW215661   1.481   0.141   4.616  0.5464 -0.7028  0.2305
 5031SOL     OW15662   1.479   7.251   2.254  0.1320 -1.2092  0.2759
 5031SOL    HW115663   1.489   7.166   2.295  0.7194 -1.8573 -1.1462
 5031SOL    HW215664   1.564   7.294   2.266 -0.5493 -0.2476  2.1270
 5032SOL     OW15665   4.140   1.242   3.416  0.3214 -0.0484 -0.3626
 5032SOL    HW115666   4.141   1.332   3.383 -1.3450  0.1392  0.0200
 5032SOL    HW215667   4.201   1.243   3.489  1.6330  0.3166 -1.4254
 5033SOL     OW15668   2.015   0.963   4.302  0.1104 -0.3361 -0.0467
 5033SOL    HW115669   1.920   0.967   4.316  0.0125 -2.0417 -0.0914
 5033SOL    HW215670   2.032   1.032   4.238 -1.2226 -0.5078 -0.6228
 5034SOL     OW15671   6.028   1.340   1.488 -0.0535  0.2622  0.0989
 5034SOL    HW115672   6.081   1.317   1.564  0.3367  0.7172 -0.0228
 5034SOL    HW215673   6.079   1.409   1.444 -0.7727  0.7313 -0.0055
 5035SOL     OW15674   1.573   3.174   0.053  0.1000 -0.4512  0.1150
 5035SOL    HW115675   1.557   3.177  -0.041 -0.1567 -1.2062  0.1244
 5035SOL    HW215676   1.663   3.142   0.061  0.7484  1.2732  0.1094
 5036SOL     OW15677   0.506   1.196   6.613  0.0271 -0.2276 -0.1949
 5036SOL    HW115678   0.432   1.136   6.606 -0.1441  0.0632 -0.8803
 5036SOL    HW215679   0.485   1.268   6.555  0.1982  0.5455  0.6714
 5037SOL     OW15680   6.457   2.979   1.193  0.3371  0.8471 -0.2172
 5037SOL    HW115681   6.491   3.047   1.135 -1.0082  0.2867 -1.7312
 5037SOL    HW215682   6.376   3.015   1.227  0.9370  1.0219  1.0706
 5038SOL     OW15683   4.095   6.826   2.015  0.1297  0.1230  0.0824
 5038SOL    HW115684   4.191   6.823   2.004  0.2197  1.0745  0.5129
 5038SOL    HW215685   4.082   6.879   2.093 -0.8091  1.5126 -0.9854
 5039SOL     OW15686   0.654   3.377   1.829  0.0559  0.0257  0.5508
 5039SOL    HW115687   0.725   3.317   1.852  0.1621 -0.0804 -0.0541
 5039SOL    HW215688   0.695   3.463   1.828  0.3234 -0.1072 -0.4265
 5040SOL     OW15689   4.395   1.985   4.294 -0.1561 -0.3397 -0.4423
 5040SOL    HW115690   4.438   1.981   4.209  0.8710  0.2935  0.0337
 5040SOL    HW215691   4.413   1.901   4.335  0.6633 -0.0714 -0.2393
 5041SOL     OW15692   1.933   6.726   2.804  0.3004  0.4682  0.8787
 5041SOL    HW115693   1.871   6.659   2.775  0.0242 -0.1162  2.6894
 5041SOL    HW215694   2.010   6.712   2.750 -0.2570 -0.3867  0.2730
 5042SOL     OW15695   3.092   4.662   0.880 -0.0314  0.1470  0.3204
 5042SOL    HW115696   3.105   4.572   0.849  1.0479  0.6928 -0.9496
 5042SOL    HW215697   3.008   4.688   0.843 -0.4537 -0.4070  0.8795
 5043SOL     OW15698   1.488   5.084   5.946  0.1893  0.1391 -0.0945
 5043SOL    HW115699   1.421   5.052   5.887 -0.0832 -0.9577  0.7792
 5043SOL    HW215700   1.567   5.035   5.922  0.6253  1.1903 -0.9027
 5044SOL     OW15701   2.877   7.229   4.521 -0.2629 -0.6077 -0.2841
 5044SOL    HW115702   2.969   7.213   4.501 -0.5093 -0.9249 -1.2548
 5044SOL    HW215703   2.863   7.321   4.498 -0.4020 -0.8130 -1.0582
 5045SOL     OW15704   0.486   4.987   3.683  0.2268  0.1168 -0.4784
 5045SOL    HW115705   0.484   5.034   3.600 -1.8709  1.7748  0.4035
 5045SOL    HW215706   0.520   5.051   3.746  0.3006 -0.5848  0.2165
 5046SOL     OW15707   6.119   6.791   6.313 -0.1529 -0.0412 -0.5639
 5046SOL    HW115708   6.161   6.877   6.318 -0.1561 -0.0839  0.2674
 5046SOL    HW215709   6.083   6.788   6.225  1.7819 -0.0861 -1.4196
 5047SOL     OW15710   1.730   1.450   4.590  0.3436 -0.3753 -0.0264
 5047SOL    HW115711   1.634   1.458   4.594  0.2576 -0.6119 -1.1979
 5047SOL    HW215712   1.760   1.536   4.562  0.5439 -0.0843  1.0479
 5048SOL     OW15713   6.379   4.447   4.791 -0.3394  0.0649  0.3969
 5048SOL    HW115714   6.440   4.373   4.788 -1.7738 -1.1615  0.0157
 5048SOL    HW215715   6.426   4.519   4.750  0.6724 -0.9852 -0.3618
 5049SOL     OW15716   6.158   2.237   0.329 -0.2707 -0.2606 -0.5920
 5049SOL    HW115717   6.145   2.178   0.402  0.3170  0.9943  0.5766
 5049SOL    HW215718   6.243   2.212   0.293  0.9729  1.1228  1.1978
 5050SOL     OW15719   0.734   3.955   6.490  0.1563 -0.5084 -0.2725
 5050SOL    HW115720   0.800   3.930   6.555  0.5714 -1.2519 -0.9578
 5050SOL    HW215721   0.758   3.904   6.412 -1.3719 -0.9723 -0.4609
 5051SOL     OW15722   3.443   6.503   0.543 -0.4320  0.0866  0.2435
 5051SOL    HW115723   3.355   6.541   0.546 -0.1033  0.8047  2.4591
 5051SOL    HW215724   3.429   6.409   0.540 -1.2721  0.2134 -0.1263
 5052SOL     OW15725   5.466   1.416   5.809 -0.0270  0.0265 -0.6190
 5052SOL    HW115726   5.410   1.368   5.748  2.4008 -1.8641 -1.5370
 5052SOL    HW215727   5.547   1.430   5.761  1.0562  0.7976  1.3297
 5053SOL     OW15728   3.763   6.610   3.609 -0.5224 -0.3260  0.0435
 5053SOL    HW115729   3.688   6.566   3.569  0.1754 -0.1620 -1.4825
 5053SOL    HW215730   3.774   6.690   3.559  1.4370 -0.9487 -0.5819
 5054SOL     OW15731   3.366   0.391   2.823 -0.1979 -0.5527 -0.1215
 5054SOL    HW115732   3.382   0.339   2.901 -0.4002 -0.8400 -0.2665
 5054SOL    HW215733   3.273   0.413   2.827 -0.8957 -2.7985 -1.5755
 5055SOL     OW15734   1.792   5.077   3.240  0.1046  0.0010 -0.4470
 5055SOL    HW115735   1.858   5.009   3.221 -1.4452 -1.5180 -0.6777
 5055SOL    HW215736   1.774   5.117   3.155  0.3870  0.0831 -0.4676
 5056SOL     OW15737   7.429   4.088   6.717  0.5536  0.5084  0.1442
 5056SOL    HW115738   7.447   4.071   6.625 -0.6046  0.1848 -0.0401
 5056SOL    HW215739   7.405   4.181   6.720 -1.1694  0.1201 -0.2087
 5057SOL     OW15740   6.947   5.514   7.422  0.4907  0.1126  0.5565
 5057SOL    HW115741   6.916   5.454   7.490  0.8864  0.4423  1.0361
 5057SOL    HW215742   7.023   5.557   7.461  0.3069  0.8118  0.1609
 5058SOL     OW15743   1.683   6.270   5.546  0.5204 -0.1813 -0.0359
 5058SOL    HW115744   1.608   6.234   5.592  0.7992  1.0063  1.3922
 5058SOL    HW215745   1.653   6.282   5.456 -0.7764 -0.3385  0.3626
 5059SOL     OW15746   3.231   2.681   6.414  0.3366 -0.0128  0.8582
 5059SOL    HW115747   3.156   2.627   6.438  0.1532 -0.7054 -1.0776
 5059SOL    HW215748   3.243   2.665   6.320  1.2732  2.1037  0.5531
 5060SOL     OW15749   0.149   5.322   5.832 -0.0015 -0.8231 -0.1504
 5060SOL    HW115750   0.170   5.288   5.919  0.4020  0.7155  0.3955
 5060SOL    HW215751   0.055   5.310   5.824 -0.6422  1.8427  1.8842
 5061SOL     OW15752   0.796   5.586   7.215 -0.0574  0.2223 -0.8086
 5061SOL    HW115753   0.891   5.576   7.223 -0.1035  0.5664  0.5102
 5061SOL    HW215754   0.762   5.497   7.228 -0.0180  0.4896  1.6951
 5062SOL     OW15755   6.138   6.483   1.031  0.0808 -0.3333  0.5643
 5062SOL    HW115756   6.099   6.436   1.104  0.8884 -0.8818  0.6569
 5062SOL    HW215757   6.217   6.523   1.067  0.7686 -1.0408 -0.1225
 5063SOL     OW15758   1.625   4.411   3.473 -0.5672  0.0969  0.1791
 5063SOL    HW115759   1.698   4.368   3.429 -0.6887 -0.1803  0.2441
 5063SOL    HW215760   1.600   4.483   3.414 -1.9024 -1.3506 -1.1502
 5064SOL     OW15761   1.520   6.926   6.969 -0.3260  0.8208  0.4574
 5064SOL    HW115762   1.565   7.008   6.989 -0.5001  1.4157 -1.4363
 5064SOL    HW215763   1.564   6.860   7.023  0.0791  2.0662  1.7001
 5065SOL     OW15764   0.748   4.542   6.142  0.4863 -0.1778 -0.6618
 5065SOL    HW115765   0.780   4.631   6.134 -0.3013  0.0976 -0.7945
 5065SOL    HW215766   0.760   4.520   6.234  0.8750 -0.0106 -0.6733
 5066SOL     OW15767   4.219   0.531   4.959 -0.4112 -0.1787 -0.5074
 5066SOL    HW115768   4.164   0.599   4.921 -0.4494 -0.4464 -0.9392
 5066SOL    HW215769   4.164   0.489   5.025  0.1145  1.2218  0.8855
 5067SOL     OW15770   0.828   6.317   3.043  0.3546  0.2530 -0.6558
 5067SOL    HW115771   0.900   6.371   3.075 -0.4829  1.8484 -1.3456
 5067SOL    HW215772   0.751   6.351   3.087 -0.1497 -0.6706 -0.8046
 5068SOL     OW15773   5.148   5.248   2.335 -0.2316  0.0922  0.3275
 5068SOL    HW115774   5.213   5.313   2.307 -0.9357  0.0525 -1.5181
 5068SOL    HW215775   5.138   5.263   2.429  1.8971  0.5840  0.5263
 5069SOL     OW15776   4.076   1.332   5.207  0.6359 -0.1775  0.0782
 5069SOL    HW115777   4.052   1.241   5.188  0.1498 -0.0065 -0.1481
 5069SOL    HW215778   4.171   1.331   5.214  1.0027 -0.1132 -3.2452
 5070SOL     OW15779   4.689   5.310   4.319  0.3223 -0.8053 -0.1440
 5070SOL    HW115780   4.720   5.220   4.320  2.1869 -0.2408 -1.6453
 5070SOL    HW215781   4.653   5.324   4.407  0.4305 -2.8395  0.2755
 5071SOL     OW15782   1.832   0.596   5.830  0.0627 -0.2415  0.3422
 5071SOL    HW115783   1.886   0.524   5.796  0.0446 -0.1765  0.1740
 5071SOL    HW215784   1.895   0.655   5.872  0.0024 -0.6962  1.0946
 5072SOL     OW15785   4.616   5.590   0.622 -0.0851 -0.0210  0.1795
 5072SOL    HW115786   4.546   5.533   0.593  1.1844 -0.8615 -1.3850
 5072SOL    HW215787   4.660   5.540   0.692 -1.4836  0.8600  1.7659
 5073SOL     OW15788   3.654   7.355   3.454  0.2746 -0.0239  0.8140
 5073SOL    HW115789   3.578   7.368   3.396  2.1639  1.9223 -1.4202
 5073SOL    HW215790   3.635   7.410   3.530 -0.6363  0.2676  0.3986
 5074SOL     OW15791   4.903   5.624   2.277 -0.4745 -1.0919  0.4530
 5074SOL    HW115792   4.838   5.561   2.247  0.4402 -2.1385  0.5750
 5074SOL    HW215793   4.979   5.609   2.220  0.2086 -1.0052  1.3039
 5075SOL     OW15794   1.373   2.233   3.644 -0.6991  0.0328 -0.5026
 5075SOL    HW115795   1.282   2.260   3.655 -0.3700  1.9158 -1.8502
 5075SOL    HW215796   1.418   2.268   3.721 -0.8573  0.4823 -0.6123
 5076SOL     OW15797   3.097   3.914   1.611 -0.3370 -0.1483 -0.5308
 5076SOL    HW115798   3.162   3.920   1.681 -2.2287  0.2383  1.3135
 5076SOL    HW215799   3.145   3.935   1.531  1.9726 -0.8445  0.5964
 5077SOL     OW15800   3.686   3.382   5.871 -0.3454 -0.2578 -0.3800
 5077SOL    HW115801   3.717   3.294   5.888  1.9584  0.3045 -1.3108
 5077SOL    HW215802   3.760   3.439   5.890 -0.3857  1.1091 -3.5612
 5078SOL     OW15803   4.606   6.697   3.259  0.0983  0.2697  0.1278
 5078SOL    HW115804   4.688   6.648   3.257 -0.3114 -0.5306 -3.6377
 5078SOL    HW215805   4.614   6.762   3.190 -3.0972 -1.1594 -1.8413
 5079SOL     OW15806   3.720   1.541   2.657  0.2051 -0.0703 -0.2234
 5079SOL    HW115807   3.699   1.459   2.611  2.4932  0.2377 -2.0007
 5079SOL    HW215808   3.745   1.513   2.745  0.3752 -1.2301 -0.6237
 5080SOL     OW15809   1.830   0.108   2.141 -0.4610  0.4898  0.0703
 5080SOL    HW115810   1.790   0.045   2.201  2.3698 -1.4060  0.1622
 5080SOL    HW215811   1.798   0.193   2.171 -2.1580 -0.6554  1.7899
 5081SOL     OW15812   3.142   5.404   6.721  0.4667 -0.3972  0.0756
 5081SOL    HW115813   3.138   5.393   6.816  2.4593 -0.7904  0.1419
 5081SOL    HW215814   3.230   5.436   6.703 -0.5506  1.8026 -1.4827
 5082SOL     OW15815   3.163   6.089   0.241 -0.3147  0.6542 -0.5223
 5082SOL    HW115816   3.141   6.067   0.331  2.7347 -1.4306 -0.1405
 5082SOL    HW215817   3.126   6.018   0.189 -0.6671  0.9917 -0.7369
 5083SOL     OW15818   6.008   6.369   5.103  0.2813 -0.3004  0.3322
 5083SOL    HW115819   5.916   6.345   5.095 -0.2263  1.2056  1.2237
 5083SOL    HW215820   6.028   6.359   5.196  0.1680  2.0411  0.6878
 5084SOL     OW15821   0.873   2.072   7.034  0.4973 -0.1943 -0.0348
 5084SOL    HW115822   0.959   2.078   6.994  0.3772 -0.5278 -0.3450
 5084SOL    HW215823   0.840   1.985   7.010 -0.2434  0.2216 -0.5674
 5085SOL     OW15824   2.982   6.700   1.458 -0.0176  0.2382 -0.5960
 5085SOL    HW115825   2.946   6.747   1.382 -0.6537  3.5177  1.5480
 5085SOL    HW215826   3.071   6.735   1.467  0.2007 -0.4467 -0.0478
 5086SOL     OW15827   6.099   2.764   2.056 -0.1885 -0.0320  0.3969
 5086SOL    HW115828   6.013   2.757   2.015 -0.1492 -1.1772  0.4631
 5086SOL    HW215829   6.082   2.751   2.149  0.3653 -4.1038  0.1314
 5087SOL     OW15830   4.708   2.982   0.571 -0.4230 -0.6661  0.0973
 5087SOL    HW115831   4.769   2.972   0.644 -0.1066 -1.4556 -0.2617
 5087SOL    HW215832   4.622   2.961   0.608 -0.2537 -1.1373  0.2317
 5088SOL     OW15833   6.317   3.548   6.754  0.0113 -0.8262  0.4709
 5088SOL    HW115834   6.298   3.504   6.671 -0.2498  2.3924 -1.3659
 5088SOL    HW215835   6.412   3.547   6.760  0.0902 -0.3018 -0.4093
 5089SOL     OW15836   5.954   5.717   6.850  0.4026 -0.1637 -0.5979
 5089SOL    HW115837   5.914   5.648   6.797 -2.5467  0.0072  1.1554
 5089SOL    HW215838   6.044   5.690   6.862 -0.1995 -2.8010 -1.4465
 5090SOL     OW15839   4.106   5.498   1.214 -0.3898  0.2374 -0.0176
 5090SOL    HW115840   4.199   5.512   1.196 -0.3221 -0.6962 -0.4602
 5090SOL    HW215841   4.092   5.541   1.299  0.5717 -0.0710  0.3184
 5091SOL     OW15842   3.522   2.482   2.792  0.2760  0.2658 -0.2990
 5091SOL    HW115843   3.612   2.484   2.759  1.0554 -4.5750  0.7373
 5091SOL    HW215844   3.476   2.425   2.730 -1.2272  0.2459  0.7891
 5092SOL     OW15845   1.695   6.384   2.515  0.3331 -0.4336 -1.1045
 5092SOL    HW115846   1.610   6.341   2.503  0.6789 -0.7252 -2.7191
 5092SOL    HW215847   1.700   6.446   2.443  2.5476 -2.1832 -2.5853
 5093SOL     OW15848   1.859   3.838   7.017 -0.1609 -0.2426  0.5100
 5093SOL    HW115849   1.800   3.774   7.058 -0.5822 -0.2128 -0.0423
 5093SOL    HW215850   1.933   3.785   6.987  0.4061 -0.1949  1.7502
 5094SOL     OW15851   6.082   4.931   4.782 -0.2202  0.4169  0.2689
 5094SOL    HW115852   6.112   4.939   4.691 -0.5616 -1.9095 -0.0971
 5094SOL    HW215853   6.156   4.961   4.835  0.4809  0.4981 -0.7391
 5095SOL     OW15854   5.890   2.626   3.606 -0.1733 -0.1887  0.0296
 5095SOL    HW115855   5.927   2.543   3.577  0.3676  0.1843 -0.3560
 5095SOL    HW215856   5.906   2.686   3.533 -2.0966 -0.1645 -0.4405
 5096SOL     OW15857   4.478   0.152   2.768 -0.4231  0.1045  0.0881
 5096SOL    HW115858   4.394   0.115   2.791 -0.4310  0.7101  1.0703
 5096SOL    HW215859   4.456   0.233   2.720 -0.4146  0.4717  0.6899
 5097SOL     OW15860   4.128   5.793   5.092  0.2641  0.0087  0.0390
 5097SOL    HW115861   4.142   5.792   5.187  1.5335  0.4077 -0.1253
 5097SOL    HW215862   4.035   5.773   5.081  0.7436 -3.6607  1.2156
 5098SOL     OW15863   0.805   3.399   1.142 -0.2783  0.2588  0.0938
 5098SOL    HW115864   0.823   3.395   1.048  3.8734 -1.9586  0.7464
 5098SOL    HW215865   0.747   3.324   1.158  0.0687 -0.1644 -0.5686
 5099SOL     OW15866   3.615   1.586   0.628 -0.0493 -0.5202 -0.5828
 5099SOL    HW115867   3.625   1.652   0.696  2.3931 -0.0119 -1.3283
 5099SOL    HW215868   3.524   1.556   0.636 -0.7880  1.8520  0.7128
 5100SOL     OW15869   0.577   6.745   3.660  0.1555  0.2583 -0.5203
 5100SOL    HW115870   0.586   6.664   3.709  0.0843  0.2612 -0.5027
 5100SOL    HW215871   0.541   6.718   3.575 -1.6032  0.4669  0.1255
 5101SOL     OW15872   4.918   2.050   2.513  0.0247  0.3530 -0.5973
 5101SOL    HW115873   4.862   1.991   2.565 -0.3384  1.8242  0.7521
 5101SOL    HW215874   5.001   2.053   2.561 -0.4866  2.1350  0.2701
 5102SOL     OW15875   0.521   0.431   3.734 -0.1788 -0.0058  0.3543
 5102SOL    HW115876   0.574   0.503   3.698  0.9266 -1.2666 -0.6391
 5102SOL    HW215877   0.519   0.366   3.664 -3.8804  0.3263 -0.0460
 5103SOL     OW15878   6.435   5.839   5.709  0.0544 -0.1856  0.2811
 5103SOL    HW115879   6.384   5.855   5.789  0.6768 -0.7461  0.8073
 5103SOL    HW215880   6.463   5.748   5.717  1.6220  0.2750  0.3042
 5104SOL     OW15881   5.848   1.277   2.548 -0.4976 -0.1627 -0.1436
 5104SOL    HW115882   5.777   1.340   2.543  1.1536  2.0821  2.0676
 5104SOL    HW215883   5.926   1.326   2.519  0.6552 -1.6049  0.3633
 5105SOL     OW15884   4.806   3.992   3.871 -0.3478 -0.0534 -0.4424
 5105SOL    HW115885   4.809   4.052   3.796 -0.3763  1.8648  1.0090
 5105SOL    HW215886   4.714   3.971   3.881 -0.2274 -1.2308 -1.6005
 5106SOL     OW15887   6.074   7.127   1.263 -0.1177 -0.3023 -0.0206
 5106SOL    HW115888   5.995   7.159   1.306 -0.3271 -0.5450 -0.2204
 5106SOL    HW215889   6.137   7.198   1.272  0.5010 -1.0642  2.4164
 5107SOL     OW15890   2.702   3.046   5.153  0.0147  0.2589 -0.3418
 5107SOL    HW115891   2.648   3.088   5.087  0.8939  0.6652 -0.8136
 5107SOL    HW215892   2.646   2.977   5.190 -0.5152  0.0966 -1.4275
 5108SOL     OW15893   5.579   4.835   5.800 -0.2592  0.5285  0.2010
 5108SOL    HW115894   5.596   4.887   5.879 -0.5577 -1.4249  1.6257
 5108SOL    HW215895   5.484   4.840   5.788 -0.1863  1.0489 -0.2436
 5109SOL     OW15896   4.355   4.466   5.637 -0.1823  0.1247  0.1419
 5109SOL    HW115897   4.373   4.388   5.585  0.1231 -2.0395  3.2302
 5109SOL    HW215898   4.432   4.522   5.623 -0.4125 -0.0427 -2.1423
 5110SOL     OW15899   3.035   6.042   2.835 -0.3447 -0.1952 -0.2342
 5110SOL    HW115900   3.086   5.977   2.884  0.7558  1.6786  1.2415
 5110SOL    HW215901   2.948   6.002   2.827  0.3015 -1.8750  0.5237
 5111SOL     OW15902   0.482   1.386   6.426 -0.3034 -0.9105 -0.5708
 5111SOL    HW115903   0.549   1.454   6.427 -0.4444 -0.7338  1.8808
 5111SOL    HW215904   0.402   1.431   6.397 -0.5132  0.1488  1.5054
 5112SOL     OW15905   0.647   2.242   4.060  0.0315 -0.5227 -0.0767
 5112SOL    HW115906   0.717   2.296   4.095  0.4847 -1.0454 -0.1551
 5112SOL    HW215907   0.567   2.283   4.090  0.3635  0.2478 -0.2291
 5113SOL     OW15908   6.534   5.556   6.320  0.4346 -0.0332 -0.3021
 5113SOL    HW115909   6.598   5.579   6.386 -0.4693  1.7804  0.0073
 5113SOL    HW215910   6.560   5.607   6.243 -0.8271  1.0739 -0.0365
 5114SOL     OW15911   6.475   5.919   4.986 -0.3301  0.4954  0.5400
 5114SOL    HW115912   6.548   5.901   5.045  0.0659  1.5961  0.3986
 5114SOL    HW215913   6.425   5.837   4.985  0.6937 -0.1583  0.9206
 5115SOL     OW15914   5.844   3.189   5.402 -0.7559  0.1382  0.1181
 5115SOL    HW115915   5.824   3.096   5.406  1.0277 -0.2446  1.2426
 5115SOL    HW215916   5.858   3.206   5.309 -1.9862 -0.4863 -0.2027
 5116SOL     OW15917   1.761   2.574   2.545 -0.7588  0.4686  0.1075
 5116SOL    HW115918   1.725   2.486   2.532  0.1466  0.1533 -0.3545
 5116SOL    HW215919   1.832   2.562   2.608  0.2399  0.6200 -0.9532
 5117SOL     OW15920   1.343   3.291   2.293  0.0676  0.1833  0.0623
 5117SOL    HW115921   1.420   3.246   2.260 -0.2510 -0.4485  0.1546
 5117SOL    HW215922   1.270   3.249   2.247 -0.1633  1.4779 -0.8073
 5118SOL     OW15923   4.709   0.636   1.726  0.1377 -0.2161 -0.4764
 5118SOL    HW115924   4.677   0.660   1.639 -1.5890 -0.1711  0.1146
 5118SOL    HW215925   4.803   0.653   1.724  0.0978 -0.0878 -2.2787
 5119SOL     OW15926   3.691   0.915   3.154  0.2507 -0.3652  0.3867
 5119SOL    HW115927   3.764   0.977   3.149  0.2874 -0.4810 -0.9338
 5119SOL    HW215928   3.658   0.923   3.243  1.3176  0.3347  0.7333
 5120SOL     OW15929   0.037   3.982   2.942 -0.6878  0.0408  0.0009
 5120SOL    HW115930   0.121   4.021   2.967 -0.7922  1.1441 -1.2108
 5120SOL    HW215931   0.021   3.914   3.007  0.8295  0.2466  0.6285
 5121SOL     OW15932   7.308   4.846   7.201 -0.1254  0.2505  0.3261
 5121SOL    HW115933   7.365   4.778   7.236  0.6250 -0.7617 -2.5243
 5121SOL    HW215934   7.363   4.923   7.192  0.0329  0.1200  0.1786
 5122SOL     OW15935   4.460   1.053   0.910 -0.6387 -0.5103  0.3780
 5122SOL    HW115936   4.394   1.112   0.872  0.2541 -0.5664 -1.3729
 5122SOL    HW215937   4.409   0.977   0.940 -1.3749 -0.7132 -1.2582
 5123SOL     OW15938   7.239   1.487   0.472  0.2926  0.5171  0.3741
 5123SOL    HW115939   7.228   1.468   0.378  0.0027  1.0901  0.2845
 5123SOL    HW215940   7.280   1.409   0.508 -1.1112 -0.3989  0.0842
 5124SOL     OW15941   3.700   3.051   4.131 -0.4817 -0.3667  0.6071
 5124SOL    HW115942   3.690   3.022   4.041 -1.3326 -0.9233  0.8703
 5124SOL    HW215943   3.699   3.146   4.126 -0.7972 -0.3975  0.0552
 5125SOL     OW15944   0.670   6.238   0.605  0.3827  0.7618  0.8289
 5125SOL    HW115945   0.659   6.247   0.510 -0.8114  0.3407  0.9099
 5125SOL    HW215946   0.627   6.316   0.641  0.6169  0.7957  1.0360
 5126SOL     OW15947   1.792   4.225   2.040 -0.3996  0.2678  0.8336
 5126SOL    HW115948   1.742   4.147   2.062 -0.0596 -0.1066  0.3082
 5126SOL    HW215949   1.853   4.196   1.972 -1.4800  1.4043 -0.6679
 5127SOL     OW15950   6.667   0.048   3.982 -0.0551 -0.3994 -0.6491
 5127SOL    HW115951   6.687   0.042   3.888 -1.2921  0.5085 -1.0090
 5127SOL    HW215952   6.584   0.096   3.985  0.2362  0.0646  0.9470
 5128SOL     OW15953   2.105   2.937   0.002 -0.8114 -0.0385 -0.2513
 5128SOL    HW115954   2.112   2.859   0.055 -1.3644  0.4241  0.5263
 5128SOL    HW215955   2.139   3.007   0.057  0.3210  0.1816 -1.1874
 5129SOL     OW15956   6.479   3.540   6.326 -0.3628  0.6536 -0.2915
 5129SOL    HW115957   6.564   3.576   6.303 -0.4155  0.6517 -0.4849
 5129SOL    HW215958   6.477   3.454   6.285  0.1603  0.0083  0.9713
 5130SOL     OW15959   1.704   7.101   7.064 -0.1318  0.1104 -0.3050
 5130SOL    HW115960   1.753   7.069   7.140 -0.9108  2.0116  1.0505
 5130SOL    HW215961   1.766   7.158   7.019  1.6085 -3.6447 -3.2815
 5131SOL     OW15962   2.786   4.669   6.363  0.0858 -0.2613 -0.0747
 5131SOL    HW115963   2.754   4.710   6.283 -1.2908 -1.1585 -0.0120
 5131SOL    HW215964   2.854   4.608   6.333  1.0213  0.8684 -0.3227
 5132SOL     OW15965   1.306   1.533   6.156 -0.0790 -0.6235  0.1745
 5132SOL    HW115966   1.240   1.536   6.226  0.3732  1.4350  0.5906
 5132SOL    HW215967   1.389   1.541   6.202  0.3173 -0.8021 -0.5015
 5133SOL     OW15968   6.199   4.213   5.206 -0.2049 -0.6680 -0.6474
 5133SOL    HW115969   6.156   4.293   5.174  0.7716 -0.1808 -0.7946
 5133SOL    HW215970   6.248   4.181   5.131  1.0159 -0.2738 -0.0566
 5134SOL     OW15971   7.336   3.121   1.390 -0.7009 -0.6857 -0.3822
 5134SOL    HW115972   7.372   3.207   1.410 -2.1595 -0.4100  1.4272
 5134SOL    HW215973   7.320   3.122   1.296  0.8178  0.3937 -0.6524
 5135SOL     OW15974   2.969   7.417   3.247  0.4369  0.4911  0.1124
 5135SOL    HW115975   2.952   7.327   3.275  2.2050  0.0815 -0.0353
 5135SOL    HW215976   2.950   7.418   3.153  1.1815  0.0418 -0.0520
 5136SOL     OW15977   1.128   3.031   6.862  0.4156 -0.1575  0.1330
 5136SOL    HW115978   1.136   2.963   6.794  1.7819  1.3851 -1.3531
 5136SOL    HW215979   1.103   2.983   6.941  2.1694 -2.5255 -0.6305
 5137SOL     OW15980   0.935   3.972   3.760 -0.3693  0.4586  0.3080
 5137SOL    HW115981   0.868   4.019   3.711 -1.4978 -0.7148  0.6820
 5137SOL    HW215982   0.969   4.038   3.821  1.2551  2.0315 -2.0923
 5138SOL     OW15983   3.425   7.423   6.930  0.2125  0.2761  0.6365
 5138SOL    HW115984   3.470   7.341   6.951  1.9284  0.2116 -2.6637
 5138SOL    HW215985   3.495   7.484   6.907 -1.1826  0.8892 -2.4488
 5139SOL     OW15986   4.306   6.546   1.812 -0.1670  0.2194  0.0180
 5139SOL    HW115987   4.318   6.626   1.863  2.1456  1.3368 -2.0635
 5139SOL    HW215988   4.366   6.482   1.852 -0.9358 -0.0415  0.7812
 5140SOL     OW15989   7.115   2.492   1.026 -0.2568 -0.4374  0.2561
 5140SOL    HW115990   7.181   2.441   1.075  0.2000 -1.3451 -1.2430
 5140SOL    HW215991   7.162   2.522   0.948 -1.2027  0.2364 -0.0573
 5141SOL     OW15992   2.331   5.365   4.419  0.4587  0.9938 -0.4969
 5141SOL    HW115993   2.389   5.352   4.345  1.1538  0.3135  0.1441
 5141SOL    HW215994   2.356   5.296   4.481 -0.6956  1.0019 -0.0013
 5142SOL     OW15995   5.362   0.674   1.017  0.3348  0.0702  0.4371
 5142SOL    HW115996   5.281   0.694   0.969  0.5591  1.1325  0.4684
 5142SOL    HW215997   5.386   0.586   0.988  0.2630  0.5390 -1.1227
 5143SOL     OW15998   1.188   5.822   5.353  0.5884  0.1799 -0.4129
 5143SOL    HW115999   1.144   5.906   5.339  1.4636  0.4194 -2.0485
 5143SOL    HW216000   1.202   5.817   5.447 -1.6825  0.7063 -0.0004
 5144SOL     OW16001   6.024   6.960   2.928 -0.0633  0.5865  0.2006
 5144SOL    HW116002   6.054   6.872   2.904  0.6528  1.3043 -1.7672
 5144SOL    HW216003   6.095   6.995   2.982  0.6926  0.7135 -0.8382
 5145SOL     OW16004   6.410   7.355   2.931 -0.4286 -0.3722  0.6094
 5145SOL    HW116005   6.318   7.340   2.950 -0.9591  2.3906  0.7101
 5145SOL    HW216006   6.411   7.435   2.878  1.8414 -1.0810 -0.5915
 5146SOL     OW16007   3.847   5.639   5.455  0.0252 -0.1766  0.1297
 5146SOL    HW116008   3.831   5.657   5.547  1.1169  0.5608  0.1933
 5146SOL    HW216009   3.840   5.724   5.412  0.9857 -0.2714 -0.2394
 5147SOL     OW16010   1.915   6.609   3.357  0.0487 -0.3969 -0.4723
 5147SOL    HW116011   1.873   6.687   3.392 -0.1522  0.2958 -2.1585
 5147SOL    HW216012   1.999   6.604   3.404 -0.8164 -0.4123  1.1580
 5148SOL     OW16013   3.694   3.242   6.163  0.3789  0.4407 -0.1407
 5148SOL    HW116014   3.630   3.210   6.099 -0.4163  0.1693  0.7843
 5148SOL    HW216015   3.779   3.232   6.119 -0.0097 -1.2319 -0.5473
 5149SOL     OW16016   5.545   0.128   4.363  0.0631  0.2930 -0.3441
 5149SOL    HW116017   5.562   0.097   4.274  2.6530 -2.3603  0.8773
 5149SOL    HW216018   5.482   0.065   4.399  1.1994 -0.4129  0.4996
 5150SOL     OW16019   0.508   4.599   7.116  0.1018 -0.0084  0.1892
 5150SOL    HW116020   0.509   4.528   7.180  0.8240  1.0290  1.3694
 5150SOL    HW216021   0.419   4.598   7.080 -0.4969 -0.2559  1.6230
 5151SOL     OW16022   2.555   3.429   2.288 -0.1181 -0.7672  0.3243
 5151SOL    HW116023   2.511   3.387   2.214 -1.0281 -0.1356  0.4948
 5151SOL    HW216024   2.648   3.415   2.272 -0.3620 -2.3018  0.0453
 5152SOL     OW16025   5.259   6.451   2.839 -0.2247 -0.7377  0.3770
 5152SOL    HW116026   5.295   6.391   2.773  1.2685  1.0722 -0.5623
 5152SOL    HW216027   5.326   6.455   2.907  0.3838  0.9416 -0.2832
 5153SOL     OW16028   5.816   5.338   7.338  0.1273  0.0826 -0.1822
 5153SOL    HW116029   5.838   5.415   7.286 -0.0879 -0.3191 -0.8848
 5153SOL    HW216030   5.819   5.265   7.275 -0.3147 -0.3862  0.3314
 5154SOL     OW16031   6.204   4.671   1.528  0.0755 -0.3112  0.5652
 5154SOL    HW116032   6.255   4.599   1.492 -0.9530  0.2671 -2.3261
 5154SOL    HW216033   6.155   4.633   1.601  2.6519 -1.4440  1.8240
 5155SOL     OW16034   2.591   0.494   2.559  0.2195  0.0147 -0.3090
 5155SOL    HW116035   2.625   0.584   2.552 -1.0160  0.7640  2.0893
 5155SOL    HW216036   2.668   0.439   2.567  0.9647  1.1116  0.2126
 5156SOL     OW16037   3.817   7.351   7.381  0.8753 -0.5643  0.6175
 5156SOL    HW116038   3.859   7.297   7.448  0.7578  1.8497  2.7759
 5156SOL    HW216039   3.724   7.353   7.407  1.0450  1.4425  1.2194
 5157SOL     OW16040   0.056   4.208   1.037  0.0808  0.2083 -0.1928
 5157SOL    HW116041   0.050   4.267   0.962 -2.4097 -0.9071 -0.9739
 5157SOL    HW216042  -0.021   4.229   1.091 -0.1541 -1.4373  0.1601
 5158SOL     OW16043   3.893   3.902   6.806 -0.4595 -0.3343 -0.6746
 5158SOL    HW116044   3.800   3.895   6.785 -0.4492  0.2325 -0.9132
 5158SOL    HW216045   3.904   3.847   6.885 -0.9266 -0.6599 -0.8319
 5159SOL     OW16046   0.092   6.752   4.815 -0.3542  0.3243 -0.0657
 5159SOL    HW116047   0.165   6.771   4.875 -0.4473 -0.5615  0.3447
 5159SOL    HW216048   0.062   6.838   4.786  0.4557  0.7257  0.2416
 5160SOL     OW16049   0.274   2.760   0.101  0.1813  0.7167  0.4158
 5160SOL    HW116050   0.290   2.849   0.068  0.2844 -0.1676 -2.0916
 5160SOL    HW216051   0.180   2.748   0.091  0.0182  0.8072  1.6135
 5161SOL     OW16052   6.742   1.126   7.182  0.7470 -0.8333 -0.2674
 5161SOL    HW116053   6.731   1.209   7.137  0.8806  0.1216  1.3838
 5161SOL    HW216054   6.708   1.061   7.121  0.3129  0.4575 -1.4496
 5162SOL     OW16055   4.358   0.601   2.805  0.4243  0.1750 -0.0968
 5162SOL    HW116056   4.358   0.541   2.879  0.6855 -0.2212 -0.4111
 5162SOL    HW216057   4.313   0.679   2.837 -2.9315 -1.3737 -0.6409
 5163SOL     OW16058   5.505   4.238   1.531  0.5623  0.0845  0.1277
 5163SOL    HW116059   5.469   4.154   1.560 -1.2230  0.4617 -0.8334
 5163SOL    HW216060   5.441   4.303   1.559  0.9929  0.9263 -0.7660
 5164SOL     OW16061   4.097   0.686   4.765  0.4954 -0.4928  0.4105
 5164SOL    HW116062   4.181   0.714   4.728  0.3672  0.4025  0.7732
 5164SOL    HW216063   4.034   0.703   4.694  0.4586 -0.0898  0.5343
 5165SOL     OW16064   0.022   5.332   2.910 -0.4411  0.1494 -0.1142
 5165SOL    HW116065  -0.006   5.360   2.997  1.8103  0.7694  0.4852
 5165SOL    HW216066   0.083   5.400   2.881  2.0390 -2.0037 -0.3830
 5166SOL     OW16067   2.214   1.483   1.065 -0.3058  0.1848  0.4307
 5166SOL    HW116068   2.255   1.521   0.988  0.4557 -2.0208 -0.3256
 5166SOL    HW216069   2.269   1.408   1.088 -2.3400 -1.2046  1.0869
 5167SOL     OW16070   0.328   0.094   3.450  0.1212  0.1232  0.5688
 5167SOL    HW116071   0.379   0.122   3.525  0.3975 -0.1834  0.4975
 5167SOL    HW216072   0.324   0.171   3.393  0.5864  0.1170  0.5293
 5168SOL     OW16073   3.716   3.303   4.091 -0.1189 -1.0151  0.0396
 5168SOL    HW116074   3.687   3.351   4.168  3.0228  1.0190  0.1132
 5168SOL    HW216075   3.685   3.354   4.016 -0.9738 -1.6012 -0.0197
 5169SOL     OW16076   5.359   4.108   0.038 -0.1430 -0.4340  0.3550
 5169SOL    HW116077   5.328   4.042  -0.024  0.6930  0.5842 -1.2104
 5169SOL    HW216078   5.352   4.065   0.123 -0.0464 -2.3851 -0.5570
 5170SOL     OW16079   4.134   2.526   6.434  0.4550  0.2942  0.1505
 5170SOL    HW116080   4.129   2.548   6.341 -1.3114  0.3743  0.2217
 5170SOL    HW216081   4.050   2.483   6.452  0.5079  0.8377  1.8305
 5171SOL     OW16082   6.111   2.563   5.066 -0.2501  0.7012 -0.3730
 5171SOL    HW116083   6.096   2.657   5.061  0.4126  0.7367 -2.7344
 5171SOL    HW216084   6.206   2.554   5.061 -0.3102 -0.0996 -0.2059
 5172SOL     OW16085   7.066   0.014   3.235  0.2856 -0.2619  0.8674
 5172SOL    HW116086   7.058  -0.005   3.141  0.9115 -0.1806  0.7898
 5172SOL    HW216087   6.976   0.021   3.266  0.0590  1.3768 -0.0593
 5173SOL     OW16088   4.602   1.750   3.215  0.0522 -0.0690 -0.4052
 5173SOL    HW116089   4.662   1.822   3.236 -0.9657  0.2165  1.8891
 5173SOL    HW216090   4.519   1.793   3.196 -0.2938 -0.5710 -0.0642
 5174SOL     OW16091   1.001   7.347   1.136 -0.0303  0.8164  0.5273
 5174SOL    HW116092   1.060   7.290   1.087  0.2308  0.9081  0.7378
 5174SOL    HW216093   1.033   7.436   1.118 -1.1884  1.0021 -0.8310
 5175SOL     OW16094   3.789   7.148   3.298 -0.0336  0.3822 -0.1305
 5175SOL    HW116095   3.741   7.215   3.346  0.3524  0.3249  0.3458
 5175SOL    HW216096   3.817   7.191   3.217 -0.6529  0.4907 -0.2942
 5176SOL     OW16097   0.793   1.586   1.140  0.5115  0.2386 -0.5849
 5176SOL    HW116098   0.733   1.639   1.192  0.4153 -1.8007  1.5724
 5176SOL    HW216099   0.738   1.520   1.099  1.0937 -1.2514  0.8969
 5177SOL     OW16100   5.893   4.840   1.406  0.5534 -0.3600  0.7397
 5177SOL    HW116101   5.799   4.827   1.391  0.3146  2.2851 -0.6913
 5177SOL    HW216102   5.907   4.811   1.496 -2.2801  1.6949  1.9896
 5178SOL     OW16103   3.803   1.935   3.310  0.6548 -0.1468  0.1814
 5178SOL    HW116104   3.713   1.945   3.281  0.6361 -2.0602 -0.5767
 5178SOL    HW216105   3.796   1.903   3.400  0.6340  0.8713  0.5619
 5179SOL     OW16106   6.758   2.177   3.105 -0.3402  0.0147  0.5273
 5179SOL    HW116107   6.703   2.135   3.039 -0.8060  2.0550 -0.4546
 5179SOL    HW216108   6.713   2.161   3.188 -0.8809 -0.7563  0.0972
 5180SOL     OW16109   5.332   5.071   6.552 -0.3238  0.0104 -0.3567
 5180SOL    HW116110   5.320   5.166   6.555  2.1349  0.4170 -1.2075
 5180SOL    HW216111   5.319   5.042   6.642  2.2143  1.6919  0.6561
 5181SOL     OW16112   1.960   1.975   4.735  0.1406 -0.0212  0.2455
 5181SOL    HW116113   1.982   1.883   4.751 -1.0820 -0.6448 -1.4374
 5181SOL    HW216114   1.998   2.021   4.810  0.9480 -1.8543  1.0422
 5182SOL     OW16115   6.650   5.241   5.177 -0.1260 -0.0269 -0.1290
 5182SOL    HW116116   6.686   5.276   5.258 -1.5042  0.1309  0.4486
 5182SOL    HW216117   6.603   5.316   5.138 -1.1208 -0.6012 -0.0685
 5183SOL     OW16118   5.185   4.053   0.457  0.2281 -0.2049 -0.2820
 5183SOL    HW116119   5.195   3.994   0.531  0.4888 -0.2424 -0.3472
 5183SOL    HW216120   5.271   4.055   0.415  0.3801  0.6843  0.0553
 5184SOL     OW16121   1.246   1.694   2.233  0.3619  0.3512 -0.0684
 5184SOL    HW116122   1.332   1.703   2.190  0.3894 -0.5562 -0.2179
 5184SOL    HW216123   1.235   1.600   2.245 -0.6443  0.4565 -0.0961
 5185SOL     OW16124   2.178   1.202   1.368 -0.1998  0.0553 -0.1849
 5185SOL    HW116125   2.175   1.211   1.273 -1.2356 -1.8628 -0.3748
 5185SOL    HW216126   2.089   1.222   1.397 -0.2206 -0.6294  0.2410
 5186SOL     OW16127   4.783   6.293   5.448 -0.1329  0.2234  0.0270
 5186SOL    HW116128   4.785   6.341   5.531  0.8081  0.4167 -0.1006
 5186SOL    HW216129   4.868   6.310   5.408 -1.4490  2.2539 -2.2054
 5187SOL     OW16130   3.815   4.184   3.465 -0.0283  0.4524  0.4091
 5187SOL    HW116131   3.869   4.126   3.411  1.1051 -0.3138  2.2723
 5187SOL    HW216132   3.866   4.265   3.472  0.4237  0.1110  1.2860
 5188SOL     OW16133   0.682   0.602   7.071  0.2598 -0.3801  0.2350
 5188SOL    HW116134   0.633   0.587   6.990  0.6576  0.9116 -0.2791
 5188SOL    HW216135   0.616   0.598   7.140 -0.5471  0.9600 -0.4044
 5189SOL     OW16136   6.202   0.062   3.429 -0.1286  0.0817  0.2473
 5189SOL    HW116137   6.217   0.144   3.383 -1.9314  1.2027  1.5511
 5189SOL    HW216138   6.137   0.016   3.376  1.7339 -1.1226 -1.1178
 5190SOL     OW16139   1.764   6.753   6.851  0.3593  0.0384  0.2998
 5190SOL    HW116140   1.707   6.812   6.900 -0.3224 -1.8760  1.9685
 5190SOL    HW216141   1.706   6.681   6.825  1.5940 -0.9385  0.1964
 5191SOL     OW16142   3.589   6.584   4.742 -0.4586 -0.2896 -0.6757
 5191SOL    HW116143   3.591   6.677   4.761  0.0729 -0.3720 -0.3165
 5191SOL    HW216144   3.504   6.570   4.699 -1.5898 -0.0404  1.3414
 5192SOL     OW16145   3.867   2.722   6.861 -0.0976  0.5620  0.1180
 5192SOL    HW116146   3.827   2.728   6.948  0.7166  2.5257  0.3926
 5192SOL    HW216147   3.904   2.808   6.845  1.3701 -0.2964 -1.4260
 5193SOL     OW16148   6.031   3.337   6.380 -0.2524  0.2124 -0.0573
 5193SOL    HW116149   6.097   3.376   6.438 -0.4852 -1.0399  1.1142
 5193SOL    HW216150   6.010   3.406   6.318  2.5715  0.4881 -0.8552
 5194SOL     OW16151   1.365   1.504   0.686 -0.0792  0.0597 -0.4318
 5194SOL    HW116152   1.436   1.544   0.636 -0.0417  0.1396 -0.3163
 5194SOL    HW216153   1.398   1.503   0.776  0.0559 -0.5295 -0.4827
 5195SOL     OW16154   3.909   6.184   6.277 -0.5492  0.7409  0.2394
 5195SOL    HW116155   3.922   6.224   6.363 -1.8018  1.3743  0.1654
 5195SOL    HW216156   3.890   6.258   6.219  1.6344  0.4719 -0.9129
 5196SOL     OW16157   0.831   3.159   3.473  0.0739 -0.3948  0.7110
 5196SOL    HW116158   0.850   3.069   3.444  1.8976  0.0159  0.5318
 5196SOL    HW216159   0.773   3.194   3.405 -0.4667 -1.3453  0.6599
 5197SOL     OW16160   6.884   4.449   3.061  0.3309  0.0166 -0.2754
 5197SOL    HW116161   6.963   4.401   3.038  0.4612  0.9418 -1.9032
 5197SOL    HW216162   6.912   4.541   3.064 -0.4042  0.2264  0.4669
 5198SOL     OW16163   0.030   6.695   1.741 -0.6779 -0.1290 -0.3116
 5198SOL    HW116164  -0.002   6.713   1.829  2.9481  0.3889  1.0533
 5198SOL    HW216165   0.057   6.780   1.707  1.2703 -0.7369 -0.4218
 5199SOL     OW16166   5.294   3.877   3.814 -0.1516  0.0941  0.7022
 5199SOL    HW116167   5.257   3.790   3.830  1.4037 -0.4397  1.5777
 5199SOL    HW216168   5.314   3.877   3.720 -0.4541 -0.3592  0.6335
 5200SOL     OW16169   0.435   6.026   0.619 -0.4585 -0.1634  0.3270
 5200SOL    HW116170   0.497   6.098   0.604  1.0654 -1.5827 -0.6065
 5200SOL    HW216171   0.389   6.050   0.699 -0.3275  2.0433 -0.1969
 5201SOL     OW16172   4.351   4.566   0.629  0.3057  0.3895  0.0512
 5201SOL    HW116173   4.434   4.518   0.623  1.0382  1.5244  0.7142
 5201SOL    HW216174   4.324   4.578   0.539  1.5620  1.1526 -0.2560
 5202SOL     OW16175   2.916   4.743   5.281 -0.5817  0.2973  0.1605
 5202SOL    HW116176   2.986   4.798   5.316 -0.7300  0.2325  0.5548
 5202SOL    HW216177   2.849   4.805   5.254 -0.7776  0.3074  0.6680
 5203SOL     OW16178   1.695   6.875   6.557 -0.1677 -0.0921 -0.6616
 5203SOL    HW116179   1.749   6.813   6.509 -0.7842 -1.1273 -0.0739
 5203SOL    HW216180   1.727   6.961   6.531 -0.0048 -0.6341 -2.3384
 5204SOL     OW16181   4.795   3.026   5.890  0.2599 -0.1285 -0.3517
 5204SOL    HW116182   4.858   3.079   5.841 -0.4359  1.4412  0.3805
 5204SOL    HW216183   4.744   2.981   5.823  0.3832  0.7149 -1.0246
 5205SOL     OW16184   5.207   3.382   6.823  0.5463  0.1051  0.0379
 5205SOL    HW116185   5.114   3.367   6.807  0.8859 -0.6491 -1.4078
 5205SOL    HW216186   5.233   3.313   6.884  0.2383  0.1048  0.1706
 5206SOL     OW16187   1.380   1.182   5.284  0.2517 -0.2962 -0.0925
 5206SOL    HW116188   1.431   1.218   5.212 -0.4598 -0.3361 -0.6190
 5206SOL    HW216189   1.291   1.175   5.251 -0.4286  1.1600  1.3003
 5207SOL     OW16190   3.657   3.344   1.732 -0.0115 -0.0240  0.2557
 5207SOL    HW116191   3.705   3.261   1.738 -0.1545 -0.0928  0.4801
 5207SOL    HW216192   3.565   3.318   1.740 -0.0421  0.1816  0.5932
 5208SOL     OW16193   2.934   3.756   2.447 -0.3579  0.6831  0.4253
 5208SOL    HW116194   2.849   3.725   2.415 -0.6718  1.5405  0.3891
 5208SOL    HW216195   2.923   3.759   2.543 -1.1889  2.9618  0.3254
 5209SOL     OW16196   2.687   0.581   7.322  0.0787  0.3314 -0.5224
 5209SOL    HW116197   2.625   0.508   7.317  0.0366  0.1842  1.2544
 5209SOL    HW216198   2.633   0.660   7.312 -0.6726  0.2544  2.0118
 5210SOL     OW16199   1.848   3.473   4.490 -0.3896 -0.2547  0.0104
 5210SOL    HW116200   1.926   3.466   4.545 -0.7633  0.5051  0.6678
 5210SOL    HW216201   1.882   3.492   4.402  0.1539  2.0888  0.6571
 5211SOL     OW16202   6.742   4.895   3.748 -0.1964 -0.1788 -0.9537
 5211SOL    HW116203   6.657   4.895   3.791 -0.1064 -1.0919 -0.7573
 5211SOL    HW216204   6.790   4.823   3.790  0.7009  0.3826 -0.9976
 5212SOL     OW16205   2.549   5.818   0.697  0.8634  0.5367  0.0385
 5212SOL    HW116206   2.490   5.877   0.652  0.0145 -1.3872 -1.5183
 5212SOL    HW216207   2.609   5.875   0.745 -1.0001  2.5697  0.0743
 5213SOL     OW16208   2.511   6.030   1.508  0.0749  0.7408 -0.0794
 5213SOL    HW116209   2.496   6.107   1.563  1.3122  0.4267  0.7304
 5213SOL    HW216210   2.428   6.019   1.460 -0.5374  1.8557  0.6678
 5214SOL     OW16211   0.220   4.901   4.770 -0.3583  0.2276 -0.4977
 5214SOL    HW116212   0.298   4.946   4.802 -1.0918  0.9049  0.4069
 5214SOL    HW216213   0.240   4.879   4.679  1.0027  0.0903 -0.1770
 5215SOL     OW16214   3.006   0.780   1.858 -0.2377  0.4449 -0.2887
 5215SOL    HW116215   2.912   0.776   1.839 -0.5491 -0.4803  1.2746
 5215SOL    HW216216   3.011   0.782   1.953  1.3522 -0.0024 -0.3326
 5216SOL     OW16217   6.991   7.420   6.392 -0.7789 -0.4156  0.2221
 5216SOL    HW116218   7.050   7.476   6.341  0.6966 -0.7471  1.4933
 5216SOL    HW216219   7.005   7.447   6.482 -2.6730 -0.4602  0.5678
 5217SOL     OW16220   5.599   2.553   6.474 -0.0012  0.9374 -0.5038
 5217SOL    HW116221   5.564   2.642   6.470 -3.4601 -0.2444  0.0805
 5217SOL    HW216222   5.577   2.514   6.389  1.2790  0.5219 -0.6713
 5218SOL     OW16223   4.126   6.970   6.186  0.8160  0.1976  0.0154
 5218SOL    HW116224   4.137   6.965   6.281  1.7838 -0.4300 -0.1114
 5218SOL    HW216225   4.206   7.014   6.156  1.4362 -1.3193 -0.6607
 5219SOL     OW16226   2.980   6.803   2.448  0.3847  0.0746 -0.1023
 5219SOL    HW116227   3.000   6.725   2.499  0.2914  0.8324  1.1366
 5219SOL    HW216228   2.886   6.817   2.462  0.5725  0.9099  0.4549
 5220SOL     OW16229   0.784   6.109   6.609  0.2499 -0.1045 -0.0497
 5220SOL    HW116230   0.761   6.048   6.539 -0.2033 -0.0057  0.0134
 5220SOL    HW216231   0.854   6.064   6.657  0.1735 -0.4158 -0.2241
 5221SOL     OW16232   0.623   7.388   5.724 -0.3504  0.3598  0.0120
 5221SOL    HW116233   0.619   7.322   5.793 -1.7481  1.0788  0.6572
 5221SOL    HW216234   0.716   7.413   5.721 -0.0857 -0.4576  0.8749
 5222SOL     OW16235   0.259   3.315   6.208 -0.9023 -0.0000  0.0467
 5222SOL    HW116236   0.265   3.397   6.257 -0.3833  0.4584 -0.7585
 5222SOL    HW216237   0.277   3.340   6.117 -2.5004 -0.7168 -0.5054
 5223SOL     OW16238   1.423   1.240   5.562 -0.0324 -0.5698  0.1183
 5223SOL    HW116239   1.452   1.331   5.556 -2.1179  0.0835 -1.1332
 5223SOL    HW216240   1.395   1.217   5.473  1.5599 -2.8837  0.1230
 5224SOL     OW16241   0.968   6.145   3.785 -0.1752  0.1595 -0.3175
 5224SOL    HW116242   0.909   6.161   3.711  0.1562 -3.2813 -1.4815
 5224SOL    HW216243   0.915   6.095   3.847 -0.1362  2.1567  1.4441
 5225SOL     OW16244   0.041   3.445   5.719  0.2457 -0.9481 -0.4738
 5225SOL    HW116245   0.050   3.353   5.692 -0.9328 -0.4915 -2.7030
 5225SOL    HW216246   0.130   3.474   5.736  0.6274 -2.5291  0.4048
 5226SOL     OW16247   3.926   1.512   0.411 -0.0419  0.1462  0.0179
 5226SOL    HW116248   3.966   1.441   0.362 -0.7628  1.4872 -2.6596
 5226SOL    HW216249   3.862   1.468   0.468  1.5071 -1.5329  0.5780
 5227SOL     OW16250   5.304   4.358   2.104  0.4775  0.2850 -0.0326
 5227SOL    HW116251   5.223   4.314   2.129 -1.1554  0.6316 -3.9419
 5227SOL    HW216252   5.363   4.287   2.079  0.5173  0.1159  0.5273
 5228SOL     OW16253   6.318   5.139   3.138  0.0451  0.5026 -0.2854
 5228SOL    HW116254   6.229   5.155   3.106 -0.5963 -1.5122  0.2860
 5228SOL    HW216255   6.372   5.139   3.059 -1.0409 -1.4655 -1.1236
 5229SOL     OW16256   0.642   3.830   0.251  0.4027  1.0417 -0.1637
 5229SOL    HW116257   0.736   3.837   0.238  0.4044  2.5934  0.5183
 5229SOL    HW216258   0.623   3.892   0.322 -0.8855 -0.4851  0.8929
 5230SOL     OW16259   4.997   6.176   7.101 -0.1625 -0.4110  0.1637
 5230SOL    HW116260   4.937   6.107   7.131 -1.3495 -0.8909 -3.0023
 5230SOL    HW216261   4.943   6.235   7.049  1.7518  0.1659 -1.2883
 5231SOL     OW16262   7.364   3.419   1.383 -0.0465 -0.3842 -0.1190
 5231SOL    HW116263   7.369   3.505   1.342 -1.4956 -0.0892  0.2358
 5231SOL    HW216264   7.293   3.374   1.337  0.9386 -1.5602 -0.5578
 5232SOL     OW16265   1.930   1.221   6.196 -0.1366  0.1728  0.7174
 5232SOL    HW116266   1.904   1.150   6.255  0.4783 -0.7075 -0.0678
 5232SOL    HW216267   1.904   1.192   6.109  0.3072  0.8224  0.3549
 5233SOL     OW16268   2.051   4.502   2.990  0.0611  0.1396  0.0267
 5233SOL    HW116269   2.075   4.594   2.979  1.0321  0.2782  2.5774
 5233SOL    HW216270   2.078   4.460   2.909 -2.4947  2.3933 -2.2033
 5234SOL     OW16271   4.861   1.221   1.495 -0.4702 -0.0083 -0.5625
 5234SOL    HW116272   4.801   1.240   1.566 -0.5883 -0.2513 -0.5965
 5234SOL    HW216273   4.832   1.136   1.461 -0.5348  0.1950 -1.0211
 5235SOL     OW16274   0.848   0.061   5.775 -0.0817 -0.6475  0.0606
 5235SOL    HW116275   0.813   0.105   5.853  0.1542 -2.1943  1.0748
 5235SOL    HW216276   0.917   0.119   5.744  0.0208 -0.1385  1.1860
 5236SOL     OW16277   6.804   7.353   2.307 -0.0509  0.2457 -0.0350
 5236SOL    HW116278   6.874   7.352   2.241  1.2346 -0.3135  1.2785
 5236SOL    HW216279   6.725   7.376   2.258  1.1646  1.6195 -1.4416
 5237SOL     OW16280   1.333   6.894   0.098 -0.3405  0.6114 -0.2653
 5237SOL    HW116281   1.386   6.941   0.033 -0.4365  1.1435  0.0331
 5237SOL    HW216282   1.325   6.956   0.171 -0.6267  0.1961  0.0577
 5238SOL     OW16283   3.619   3.555   4.546  0.1738  0.3636  0.3812
 5238SOL    HW116284   3.663   3.639   4.558 -1.0334  1.0394  0.2566
 5238SOL    HW216285   3.624   3.514   4.632  1.4565  0.2015  0.2476
 5239SOL     OW16286   7.173   7.199   5.144 -0.0330  0.3300 -0.4266
 5239SOL    HW116287   7.174   7.113   5.102  1.1975 -0.8302  1.7799
 5239SOL    HW216288   7.082   7.229   5.134 -0.1855 -0.6367 -2.3244
 5240SOL     OW16289   5.127   3.923   5.854 -0.0701 -0.0369 -0.2272
 5240SOL    HW116290   5.088   3.919   5.942  0.3085 -1.2779 -0.0975
 5240SOL    HW216291   5.207   3.871   5.861 -0.6419 -1.1522 -1.6116
 5241SOL     OW16292   0.960   5.132   5.860 -0.2604  0.4550 -0.1043
 5241SOL    HW116293   1.044   5.176   5.843  0.4118 -1.5383 -2.4424
 5241SOL    HW216294   0.894   5.199   5.843  0.7776  1.8132  0.8935
 5242SOL     OW16295   0.623   5.402   7.000  0.3356  0.0469  0.2364
 5242SOL    HW116296   0.703   5.397   6.948 -0.4119 -1.2668 -0.8437
 5242SOL    HW216297   0.648   5.367   7.086  0.8658 -0.6053 -0.1751
 5243SOL     OW16298   4.250   6.255   3.692 -0.3344  0.0257 -0.4257
 5243SOL    HW116299   4.211   6.177   3.654  0.6416 -0.8064  0.2206
 5243SOL    HW216300   4.274   6.229   3.781  0.3132  0.9548 -0.3134
 5244SOL     OW16301   5.398   2.564   7.318  0.9729  0.4087 -0.5126
 5244SOL    HW116302   5.393   2.517   7.402  2.1428 -0.3797 -0.8554
 5244SOL    HW216303   5.414   2.655   7.343  1.3501  0.1768  0.1373
 5245SOL     OW16304   1.792   5.164   3.677  0.6632  0.4428  0.0436
 5245SOL    HW116305   1.816   5.148   3.768  2.3331 -1.9507 -0.7099
 5245SOL    HW216306   1.706   5.123   3.668  1.7868 -2.0547 -0.0952
 5246SOL     OW16307   6.991   7.188   0.967  0.1909 -0.0630 -0.4983
 5246SOL    HW116308   6.980   7.245   1.043  1.7219 -0.2432 -0.1174
 5246SOL    HW216309   6.902   7.166   0.941 -0.3688  0.1396  1.1350
 5247SOL     OW16310   5.668   3.975   1.980 -0.0194 -0.0289  0.7552
 5247SOL    HW116311   5.756   4.001   1.952 -0.1955  1.9758  1.8706
 5247SOL    HW216312   5.670   3.880   1.981  1.2539 -0.1224 -1.9216
 5248SOL     OW16313   2.372   0.993   4.929 -0.6295 -0.3587 -0.1056
 5248SOL    HW116314   2.344   1.065   4.985 -1.0893 -0.6675  0.0699
 5248SOL    HW216315   2.401   1.035   4.848 -1.6301 -0.0262 -0.2974
 5249SOL     OW16316   1.556   0.089   1.298  0.0246 -0.6362  0.2792
 5249SOL    HW116317   1.523   0.098   1.388  0.8186 -1.1832  0.6423
 5249SOL    HW216318   1.521   0.165   1.252 -0.1109 -0.1507  1.1508
 5250SOL     OW16319   3.789   7.386   5.787  0.1558  0.2014 -0.1967
 5250SOL    HW116320   3.809   7.339   5.706  2.3946  1.2690 -0.3509
 5250SOL    HW216321   3.705   7.428   5.770  0.8914  0.9620 -2.2647
 5251SOL     OW16322   7.187   7.062   7.409 -0.0257  0.0684  0.1741
 5251SOL    HW116323   7.108   7.104   7.376  0.1469  0.1981 -0.0717
 5251SOL    HW216324   7.243   7.053   7.333  0.0922 -0.2606  0.2990
 5252SOL     OW16325   1.593   5.985   2.352  0.3132  0.6514 -0.4180
 5252SOL    HW116326   1.500   5.964   2.343  0.4451 -0.1456 -0.0240
 5252SOL    HW216327   1.623   5.930   2.424  1.0661  0.9879 -0.4639
 5253SOL     OW16328   6.377   0.283   5.695 -0.3054  0.2302  0.6326
 5253SOL    HW116329   6.343   0.229   5.767 -0.1632 -0.8546 -0.0935
 5253SOL    HW216330   6.470   0.260   5.690 -0.1349  0.9029  0.6189
 5254SOL     OW16331   2.956   7.316   1.759 -0.1483 -0.1365 -0.8229
 5254SOL    HW116332   3.012   7.240   1.779 -0.7068 -1.1646 -2.9248
 5254SOL    HW216333   2.867   7.280   1.760 -0.5283  0.8013 -0.5757
 5255SOL     OW16334   3.695   4.493   3.552 -0.6412  0.3656 -0.3779
 5255SOL    HW116335   3.628   4.447   3.603  0.5345  1.6684  2.5520
 5255SOL    HW216336   3.656   4.578   3.533 -0.6781  0.2642 -0.7711
 5256SOL     OW16337   6.275   5.520   6.424 -0.1624 -0.4047 -0.3128
 5256SOL    HW116338   6.366   5.520   6.394  0.1747  2.2714  0.4345
 5256SOL    HW216339   6.223   5.517   6.343  0.7065  3.1492 -1.2131
 5257SOL     OW16340   6.459   2.001   5.689 -0.0415  0.3782  0.0685
 5257SOL    HW116341   6.469   1.908   5.709  0.4695  0.3282 -0.4005
 5257SOL    HW216342   6.536   2.022   5.636  0.0583  1.1636  0.5122
 5258SOL     OW16343   1.647   2.927   3.109  0.6101 -0.0789  0.1278
 5258SOL    HW116344   1.696   2.878   3.176  0.7787 -0.5284 -0.3174
 5258SOL    HW216345   1.697   2.913   3.028 -0.6609 -1.1811 -0.4937
 5259SOL     OW16346   4.890   3.470   2.310  0.1429  0.0309 -0.2015
 5259SOL    HW116347   4.813   3.520   2.337 -0.1729  0.7703 -2.2977
 5259SOL    HW216348   4.855   3.387   2.279  0.3019 -0.0156 -0.2579
 5260SOL     OW16349   2.476   3.703   5.058 -0.3543 -0.4338  0.8374
 5260SOL    HW116350   2.521   3.622   5.034  0.7458  0.9675 -2.4457
 5260SOL    HW216351   2.523   3.735   5.135  0.6097 -1.8065  0.8589
 5261SOL     OW16352   3.880   0.274   2.929  0.1381 -0.0305  0.2259
 5261SOL    HW116353   3.795   0.269   2.974 -0.0434  0.9310  0.0337
 5261SOL    HW216354   3.908   0.365   2.943  0.7205 -0.1008 -0.4430
 5262SOL     OW16355   6.998   4.326   1.096 -0.0856 -0.3305  0.4529
 5262SOL    HW116356   7.076   4.364   1.136 -1.0973  1.5868  0.7832
 5262SOL    HW216357   6.987   4.375   1.014 -0.8209 -0.6879  0.3304
 5263SOL     OW16358   3.803   1.414   4.208 -0.7428  0.1612  0.6273
 5263SOL    HW116359   3.738   1.359   4.163 -1.8413  0.5435  1.7013
 5263SOL    HW216360   3.780   1.407   4.300 -2.0204  3.7019  0.7348
 5264SOL     OW16361   2.450   3.991   3.774 -0.1739  0.3996  0.3581
 5264SOL    HW116362   2.541   4.009   3.799  0.3669 -1.3000 -0.2542
 5264SOL    HW216363   2.421   3.923   3.836 -0.7741  0.3845  0.0717
 5265SOL     OW16364   4.907   0.026   2.669  0.1567  0.2684 -0.1500
 5265SOL    HW116365   4.861   0.036   2.753 -0.8069  0.5632 -0.6977
 5265SOL    HW216366   4.872   0.096   2.614 -1.3376 -1.6097 -1.7281
 5266SOL     OW16367   2.342   1.848   0.934 -0.5496 -0.3833 -0.4248
 5266SOL    HW116368   2.394   1.882   1.007 -2.1144  0.0437  0.5263
 5266SOL    HW216369   2.407   1.824   0.868  0.8377  0.3536  0.6189
 5267SOL     OW16370   3.751   0.957   7.269 -0.0131  0.6758  0.2750
 5267SOL    HW116371   3.837   0.926   7.297  1.3874  3.5903 -0.4659
 5267SOL    HW216372   3.711   0.992   7.349  0.0499  0.5422  0.3658
 5268SOL     OW16373   1.512   4.547   5.545  0.1934 -0.5070 -0.3318
 5268SOL    HW116374   1.605   4.526   5.548  0.3731  0.3434  1.2911
 5268SOL    HW216375   1.504   4.611   5.474  0.8415 -0.6226 -0.5144
 5269SOL     OW16376   2.546   7.135   2.431 -0.1087 -0.2283 -0.0604
 5269SOL    HW116377   2.522   7.135   2.523 -1.7749 -1.7647 -0.4432
 5269SOL    HW216378   2.482   7.192   2.389  0.5144  0.2965 -0.3202
 5270SOL     OW16379   1.160   0.059   4.885  0.1138 -0.3615  0.0477
 5270SOL    HW116380   1.197  -0.029   4.871  1.1519  0.1654 -0.6193
 5270SOL    HW216381   1.229   0.107   4.930 -0.2458  0.2736 -0.0730
 5271SOL     OW16382   6.151   2.532   0.814 -0.3057  0.1312  0.0410
 5271SOL    HW116383   6.240   2.542   0.779 -0.8608  0.7621 -1.2773
 5271SOL    HW216384   6.146   2.597   0.884  0.0595  0.5842 -0.3415
 5272SOL     OW16385   1.612   4.389   6.525 -0.2225  0.1500 -0.0613
 5272SOL    HW116386   1.676   4.451   6.561 -0.2032  0.9187 -1.3643
 5272SOL    HW216387   1.566   4.356   6.601  0.7199  0.7172  0.7848
 5273SOL     OW16388   3.766   4.795   6.573  0.2998 -0.1716 -0.1088
 5273SOL    HW116389   3.709   4.719   6.568  1.1714 -0.9729  1.4733
 5273SOL    HW216390   3.710   4.865   6.607  0.4929 -1.3149  2.8359
 5274SOL     OW16391   2.120   5.572   6.005  0.5521 -0.2922 -0.0587
 5274SOL    HW116392   2.206   5.612   5.996  0.9747 -0.6485  1.9284
 5274SOL    HW216393   2.125   5.492   5.952  1.8935 -0.9634  1.0301
 5275SOL     OW16394   5.824   1.284   2.183 -0.4572  0.3157  0.0304
 5275SOL    HW116395   5.735   1.269   2.216 -0.8025 -0.1793 -1.0640
 5275SOL    HW216396   5.881   1.244   2.249 -0.9229  2.1643  1.6260
 5276SOL     OW16397   2.450   0.729   4.849 -0.5697  0.4811 -0.2164
 5276SOL    HW116398   2.454   0.821   4.875 -0.9311  0.4793 -0.1473
 5276SOL    HW216399   2.414   0.684   4.925  0.5350  0.1300  0.1155
 5277SOL     OW16400   0.669   0.525   1.067  0.3265  0.0482 -0.4614
 5277SOL    HW116401   0.747   0.468   1.068  1.0536  1.0038 -0.8042
 5277SOL    HW216402   0.697   0.604   1.114  0.2908  1.2902 -2.4101
 5278SOL     OW16403   1.899   4.077   4.678  0.3464  0.6592  0.4006
 5278SOL    HW116404   1.993   4.094   4.688  1.0286 -1.9246 -0.6066
 5278SOL    HW216405   1.871   4.049   4.765  0.8987  0.0145  0.3862
 5279SOL     OW16406   1.839   4.056   7.203 -0.2568  0.1986 -0.2334
 5279SOL    HW116407   1.810   3.989   7.142  0.7118  0.0808 -0.5853
 5279SOL    HW216408   1.934   4.045   7.208 -0.3749 -0.2898  1.8812
 5280SOL     OW16409   2.244   3.958   6.985 -0.4849 -0.0721 -0.8384
 5280SOL    HW116410   2.298   3.883   6.961 -0.0501  0.1880 -0.6829
 5280SOL    HW216411   2.241   4.012   6.905 -0.9003 -0.3100 -0.9888
 5281SOL     OW16412   3.918   6.110   0.716  0.5976 -0.7094 -0.2697
 5281SOL    HW116413   3.840   6.139   0.669  0.6430 -0.1417  0.0006
 5281SOL    HW216414   3.940   6.183   0.774  1.5146 -0.7356 -0.5654
 5282SOL     OW16415   4.232   0.609   5.536  0.0554  0.2098 -0.4882
 5282SOL    HW116416   4.138   0.596   5.528  0.2287 -1.1303 -0.6108
 5282SOL    HW216417   4.244   0.652   5.620 -0.6819  0.7144 -0.6310
 5283SOL     OW16418   3.089   7.426   5.269 -0.2664 -0.0493  0.0567
 5283SOL    HW116419   3.023   7.455   5.332  0.1558  1.1205 -0.0177
 5283SOL    HW216420   3.162   7.395   5.323  0.5889  2.0768  0.2049
 5284SOL     OW16421   4.447   0.998   7.200 -0.3260 -0.5778 -0.9091
 5284SOL    HW116422   4.509   1.036   7.137 -1.4321 -1.8470 -2.8537
 5284SOL    HW216423   4.365   1.046   7.185 -0.0804  0.6088  1.1551
 5285SOL     OW16424   1.488   6.593   0.865 -0.3364  0.3152 -0.8307
 5285SOL    HW116425   1.416   6.590   0.928 -0.1750  2.0149 -0.5286
 5285SOL    HW216426   1.447   6.620   0.783 -0.6209 -2.3093 -1.6474
 5286SOL     OW16427   4.441   0.993   3.996 -0.2867 -0.2124 -0.0455
 5286SOL    HW116428   4.495   0.927   4.040 -0.5017  0.4218  1.1860
 5286SOL    HW216429   4.351   0.969   4.017 -0.4202 -0.2340 -0.6237
 5287SOL     OW16430   3.669   0.352   0.059  0.6137  0.5363 -0.4073
 5287SOL    HW116431   3.584   0.335   0.100  0.9165 -0.1788 -0.0562
 5287SOL    HW216432   3.733   0.307   0.116  1.2250  1.0703 -0.6626
 5288SOL     OW16433   6.775   2.921   0.629  0.2924 -0.0370 -0.4719
 5288SOL    HW116434   6.702   2.921   0.566  0.0540 -0.4442 -0.2006
 5288SOL    HW216435   6.776   2.832   0.664  0.3963  0.2018  0.1349
 5289SOL     OW16436   3.966   5.861   1.654 -0.1870 -0.5762  0.3115
 5289SOL    HW116437   4.034   5.794   1.648  0.5450  0.1683  0.0839
 5289SOL    HW216438   3.939   5.860   1.746  0.3001 -0.7140  0.4557
 5290SOL     OW16439   1.391   1.774   5.103  0.0755 -0.0865  0.1476
 5290SOL    HW116440   1.371   1.845   5.163 -1.5276 -0.5114  0.1549
 5290SOL    HW216441   1.438   1.816   5.031 -0.1713  0.8399  0.5195
 5291SOL     OW16442   4.878   6.965   2.653 -0.7739 -0.2766 -0.1041
 5291SOL    HW116443   4.928   7.044   2.674  0.0549 -0.3361 -1.6747
 5291SOL    HW216444   4.872   6.917   2.736 -0.1691  0.8142  0.5910
 5292SOL     OW16445   7.050   0.350   3.261  0.0115 -1.1113  0.1907
 5292SOL    HW116446   7.068   0.411   3.189  0.3847 -0.7831  0.5624
 5292SOL    HW216447   7.061   0.263   3.221 -1.0428 -0.9552 -0.4748
 5293SOL     OW16448   6.601   3.023   5.235  0.1626 -0.0838 -0.3700
 5293SOL    HW116449   6.585   3.002   5.327 -0.7764  0.3488 -0.4278
 5293SOL    HW216450   6.656   2.951   5.204  1.3562  0.2821  0.7823
 5294SOL     OW16451   2.666   3.357   0.493 -0.1934 -0.0983 -0.1217
 5294SOL    HW116452   2.742   3.407   0.464 -0.5650  0.9875  0.7059
 5294SOL    HW216453   2.600   3.374   0.426  0.1855 -0.8122 -0.6912
 5295SOL     OW16454   2.597   6.560   7.148  0.3669  0.2159  0.6737
 5295SOL    HW116455   2.636   6.476   7.168 -0.1851  0.0132  0.9106
 5295SOL    HW216456   2.671   6.619   7.134  0.7540 -0.3982  0.1095
 5296SOL     OW16457   3.337   6.623   4.617  0.0970 -0.3434  0.1376
 5296SOL    HW116458   3.290   6.603   4.537 -1.5048  0.1292  0.9180
 5296SOL    HW216459   3.333   6.719   4.624  0.2416 -0.3753  0.7592
 5297SOL     OW16460   1.676   0.516   6.025 -0.4364 -0.2078  0.3688
 5297SOL    HW116461   1.691   0.423   6.042 -0.5226 -0.3993 -0.5835
 5297SOL    HW216462   1.728   0.535   5.947 -1.2221  0.3001 -0.0372
 5298SOL     OW16463   1.932   3.282   2.342  0.2017  0.7055  0.2413
 5298SOL    HW116464   1.918   3.291   2.436  1.3375  1.0025  0.3969
 5298SOL    HW216465   1.923   3.189   2.325 -0.7259  0.7335  0.5114
 5299SOL     OW16466   3.172   2.111   6.826  0.2204 -0.0076 -0.2632
 5299SOL    HW116467   3.242   2.118   6.761 -0.5017  0.4568 -1.0177
 5299SOL    HW216468   3.160   2.017   6.839 -0.3777 -0.1559 -1.6674
 5300SOL     OW16469   2.544   1.569   1.809 -0.0718 -0.2522 -0.8130
 5300SOL    HW116470   2.517   1.482   1.840  0.3390 -0.4581 -1.0235
 5300SOL    HW216471   2.480   1.591   1.742 -0.1340 -0.4273 -0.8132
 5301SOL     OW16472   4.422   6.576   2.084  0.1690 -0.2628 -0.1093
 5301SOL    HW116473   4.474   6.551   2.160 -0.2171 -0.7693 -0.0065
 5301SOL    HW216474   4.331   6.575   2.115  0.0743  0.3848 -0.3442
 5302SOL     OW16475   2.822   4.941   6.381 -0.2552  0.1268  0.0572
 5302SOL    HW116476   2.828   4.850   6.410 -2.3464 -1.0426 -2.7179
 5302SOL    HW216477   2.893   4.950   6.318  1.8399  1.4756  2.4054
 5303SOL     OW16478   5.165   3.274   4.457  0.0438  0.3445 -0.0091
 5303SOL    HW116479   5.177   3.196   4.512 -1.7428 -0.4765 -0.6837
 5303SOL    HW216480   5.234   3.333   4.484 -0.8906  0.1222  3.3700
 5304SOL     OW16481   1.601   5.533   3.295 -0.0533 -0.1930 -0.2220
 5304SOL    HW116482   1.645   5.611   3.262 -1.0877  0.1884 -0.7760
 5304SOL    HW216483   1.508   5.558   3.298 -0.3573 -1.2825 -0.0763
 5305SOL     OW16484   7.228   1.125   1.839  0.4673 -0.2823 -0.6407
 5305SOL    HW116485   7.283   1.111   1.916  1.6041  2.3593 -0.8676
 5305SOL    HW216486   7.277   1.188   1.786 -2.1705  1.1972 -1.4906
 5306SOL     OW16487   2.147   5.132   6.753  0.1692 -0.2478  0.5346
 5306SOL    HW116488   2.121   5.163   6.666  1.2907 -0.0022  0.2722
 5306SOL    HW216489   2.091   5.182   6.814  1.3546  1.7569  0.0787
 5307SOL     OW16490   5.209   1.699   0.298 -0.1785  1.0829  0.2369
 5307SOL    HW116491   5.191   1.648   0.377 -0.1086  0.5962 -0.0576
 5307SOL    HW216492   5.196   1.638   0.226  0.0891  1.4323 -0.1143
 5308SOL     OW16493   4.394   4.792   3.861  0.1530  0.2018 -0.0036
 5308SOL    HW116494   4.379   4.699   3.845 -0.9034  0.0928  1.4912
 5308SOL    HW216495   4.489   4.800   3.866  0.2156 -1.1167  1.5742
 5309SOL     OW16496   0.081   0.881   1.565  0.0162  0.0232 -0.4651
 5309SOL    HW116497   0.025   0.956   1.544 -2.4987 -1.4273  0.6864
 5309SOL    HW216498   0.146   0.916   1.625 -2.0014  1.0500  1.2303
 5310SOL     OW16499   4.387   4.144   3.976  0.0289 -0.6107  0.1698
 5310SOL    HW116500   4.294   4.156   3.958  0.4091  3.9515  0.0764
 5310SOL    HW216501   4.428   4.140   3.890  0.0768  0.1280  0.1453
 5311SOL     OW16502   2.211   6.843   6.798 -0.5193 -0.1006 -0.4055
 5311SOL    HW116503   2.195   6.754   6.765 -0.3293 -0.0907 -0.5306
 5311SOL    HW216504   2.141   6.895   6.760 -0.5285 -0.1642 -0.4773
 5312SOL     OW16505   6.784   1.599   3.019 -0.7704 -0.5938 -0.1140
 5312SOL    HW116506   6.783   1.520   3.074  0.5857 -0.3691  0.2594
 5312SOL    HW216507   6.716   1.655   3.057 -0.6661 -0.9360  0.5895
 5313SOL     OW16508   5.462   1.406   3.632 -0.1946 -0.4660  0.1951
 5313SOL    HW116509   5.436   1.375   3.546  0.2227  0.2689 -0.2115
 5313SOL    HW216510   5.557   1.416   3.626 -0.2366  0.2022  0.5248
 5314SOL     OW16511   3.197   6.401   1.794 -0.7413  0.5870 -0.0381
 5314SOL    HW116512   3.118   6.431   1.747 -0.7898  0.5624  0.0282
 5314SOL    HW216513   3.262   6.389   1.725 -0.6816  0.9808 -0.0521
 5315SOL     OW16514   7.164   6.327   5.168 -0.4302 -0.2416 -0.4840
 5315SOL    HW116515   7.190   6.292   5.253 -0.5749  0.1319 -0.2832
 5315SOL    HW216516   7.095   6.268   5.138 -0.8490  0.0066 -0.0309
 5316SOL     OW16517   6.431   6.192   1.720 -0.0428 -0.4324  0.0134
 5316SOL    HW116518   6.507   6.135   1.707  1.3833  1.1033  1.0329
 5316SOL    HW216519   6.356   6.140   1.694  1.3262 -2.2104 -0.5433
 5317SOL     OW16520   7.143   3.004   1.562 -0.7636 -0.0929 -0.1294
 5317SOL    HW116521   7.204   3.051   1.505  0.3696  0.3203  1.3818
 5317SOL    HW216522   7.126   2.921   1.516  1.2790 -0.4098 -0.3916
 5318SOL     OW16523   3.367   6.360   4.400 -0.2636 -0.0511  0.0958
 5318SOL    HW116524   3.312   6.433   4.428 -2.6434 -1.4735 -0.6094
 5318SOL    HW216525   3.323   6.325   4.322  1.2779 -1.7142 -0.0928
 5319SOL     OW16526   0.418   3.351   5.934 -0.3211 -0.0566  0.0228
 5319SOL    HW116527   0.506   3.370   5.904 -0.6301 -1.1475 -1.7523
 5319SOL    HW216528   0.413   3.255   5.934 -0.4203 -0.2210  3.5972
 5320SOL     OW16529   3.540   5.840   3.369  0.2029 -0.7946  0.4021
 5320SOL    HW116530   3.551   5.747   3.351 -0.3107 -0.5771 -1.2186
 5320SOL    HW216531   3.453   5.861   3.333  0.1105  0.2056  1.1688
 5321SOL     OW16532   5.297   5.441   5.942  0.1648 -0.4299  0.2072
 5321SOL    HW116533   5.206   5.470   5.946  0.0276 -0.9996  1.5203
 5321SOL    HW216534   5.292   5.345   5.945  0.8250 -0.4519  1.1443
 5322SOL     OW16535   5.787   5.557   1.412 -0.1341 -0.8254 -0.1549
 5322SOL    HW116536   5.761   5.473   1.375  0.6302 -1.8438  1.4999
 5322SOL    HW216537   5.796   5.615   1.337 -2.9240 -1.5420 -1.1766
 5323SOL     OW16538   6.095   3.059   3.140 -0.1711  0.2304  0.9024
 5323SOL    HW116539   6.102   3.144   3.184 -2.4543  1.4464 -0.8766
 5323SOL    HW216540   6.118   3.077   3.049  0.5282 -1.3608  0.7325
 5324SOL     OW16541   1.005   1.877   2.787 -0.2487  0.1288 -0.1395
 5324SOL    HW116542   0.967   1.841   2.866  0.8154  0.3269  0.4765
 5324SOL    HW216543   0.934   1.874   2.723 -0.4831 -2.1165  0.1565
 5325SOL     OW16544   5.748   5.102   2.915  0.2540  0.0828 -0.4551
 5325SOL    HW116545   5.813   5.033   2.901  0.5194  0.3011 -0.3158
 5325SOL    HW216546   5.782   5.177   2.867 -0.0857  0.0848 -0.6887
 5326SOL     OW16547   2.296   7.051   2.048 -0.0511 -0.4655 -0.5098
 5326SOL    HW116548   2.335   7.013   1.969 -1.9511 -2.0789 -0.7589
 5326SOL    HW216549   2.355   7.123   2.072  0.8247 -0.1886 -3.1386
 5327SOL     OW16550   6.019   0.050   6.698 -0.1757  0.0184 -0.5002
 5327SOL    HW116551   5.996  -0.042   6.713  0.0892 -0.0821 -0.6884
 5327SOL    HW216552   6.111   0.047   6.670  0.0467  0.4009  0.1724
 5328SOL     OW16553   5.237   6.533   4.803 -0.4076  0.3566 -0.3471
 5328SOL    HW116554   5.280   6.448   4.797  1.2592  1.1768 -0.6365
 5328SOL    HW216555   5.243   6.569   4.714 -0.3477  1.1268 -0.0397
 5329SOL     OW16556   1.330   5.627   1.339  0.3511  0.0547 -0.3813
 5329SOL    HW116557   1.307   5.540   1.309  0.5750  0.8499 -3.1807
 5329SOL    HW216558   1.266   5.685   1.297  0.8358  1.3470  0.5743
 5330SOL     OW16559   2.644   5.663   3.057 -0.5934  0.3065 -0.3893
 5330SOL    HW116560   2.702   5.739   3.062 -1.7339  1.2165 -0.6946
 5330SOL    HW216561   2.690   5.595   3.106 -0.4776  1.7884  1.6647
 5331SOL     OW16562   2.355   2.854   2.845 -0.7081  0.1202  0.0431
 5331SOL    HW116563   2.441   2.859   2.804 -0.0555 -1.3395  1.1523
 5331SOL    HW216564   2.365   2.902   2.927 -0.7552 -0.5735  0.4617
 5332SOL     OW16565   2.533   5.409   2.539 -0.1965 -0.2464 -1.0062
 5332SOL    HW116566   2.539   5.472   2.467 -0.0270  0.3121 -0.5057
 5332SOL    HW216567   2.531   5.462   2.618  2.2759 -0.8884 -0.4237
 5333SOL     OW16568   4.798   2.615   5.737  0.1941 -0.0053  0.2669
 5333SOL    HW116569   4.728   2.563   5.697 -0.3595  1.0905 -0.2475
 5333SOL    HW216570   4.753   2.668   5.803  0.7051 -0.0033  0.6117
 5334SOL     OW16571   5.078   0.577   1.315 -0.4318 -0.1529 -0.0151
 5334SOL    HW116572   4.992   0.535   1.315  0.4384 -2.0061 -0.0654
 5334SOL    HW216573   5.070   0.646   1.248 -1.5728 -0.9404 -0.7304
 5335SOL     OW16574   7.122   1.394   5.710  0.5248  0.4877 -0.0486
 5335SOL    HW116575   7.139   1.308   5.747  1.0639  0.6720  0.1440
 5335SOL    HW216576   7.046   1.427   5.757  0.7465  0.4053  0.3666
 5336SOL     OW16577   1.013   4.598   7.357 -0.5171 -0.0702  0.9596
 5336SOL    HW116578   0.958   4.560   7.425 -0.3952  1.1605  1.7908
 5336SOL    HW216579   0.957   4.664   7.315  0.0283  0.5977  1.2510
 5337SOL     OW16580   3.775   7.341   6.212 -0.3996  0.6190 -0.4086
 5337SOL    HW116581   3.827   7.353   6.291  2.1461 -0.2792 -1.8390
 5337SOL    HW216582   3.812   7.404   6.150 -1.2026  0.1182 -1.4169
 5338SOL     OW16583   5.963   2.715   5.591  0.5043  0.6874 -0.2817
 5338SOL    HW116584   5.917   2.639   5.627  1.5717 -0.0177 -0.3655
 5338SOL    HW216585   5.957   2.781   5.659 -0.0037  0.3511  0.0045
 5339SOL     OW16586   3.287   2.524   4.818 -0.1305 -0.0762  0.8914
 5339SOL    HW116587   3.251   2.583   4.751  1.3028 -0.3637 -0.1700
 5339SOL    HW216588   3.236   2.444   4.808 -0.9476  0.3919  1.1908
 5340SOL     OW16589   4.395   1.403   2.738  0.3346  0.0190 -0.0570
 5340SOL    HW116590   4.305   1.434   2.731  0.1568 -0.0056  1.8033
 5340SOL    HW216591   4.388   1.308   2.743  0.5909 -0.0910 -1.3881
 5341SOL     OW16592   6.306   6.876   4.369 -1.2508  0.3261  0.2360
 5341SOL    HW116593   6.222   6.868   4.324 -0.9385 -0.8259 -0.1767
 5341SOL    HW216594   6.308   6.804   4.432 -0.0511 -0.4948 -0.6779
 5342SOL     OW16595   4.337   6.573   4.136 -0.2902 -1.0545 -0.3756
 5342SOL    HW116596   4.386   6.496   4.109  0.8692 -0.3115 -0.4753
 5342SOL    HW216597   4.310   6.614   4.054  0.8780 -0.2631 -0.3840
 5343SOL     OW16598   7.142   6.175   1.430 -0.6656 -0.8996  0.2366
 5343SOL    HW116599   7.112   6.264   1.451 -0.1368 -0.6040 -0.2449
 5343SOL    HW216600   7.075   6.140   1.371  0.3532  0.0807 -1.5545
 5344SOL     OW16601   0.552   5.000   1.625  0.0947  0.0343 -0.0536
 5344SOL    HW116602   0.646   4.997   1.643  0.0610  0.2800  0.1709
 5344SOL    HW216603   0.518   5.066   1.685 -0.0707  0.6774 -0.8480
 5345SOL     OW16604   1.956   5.156   7.367 -0.2953  0.2219  0.2640
 5345SOL    HW116605   1.886   5.207   7.328  0.5357  0.1656 -1.3926
 5345SOL    HW216606   2.034   5.210   7.356 -0.2676  1.0627  3.6403
 5346SOL     OW16607   6.622   6.040   1.579 -0.1877 -0.4925  0.2056
 5346SOL    HW116608   6.665   6.097   1.514 -0.9445 -3.3679 -3.1391
 5346SOL    HW216609   6.694   5.988   1.615  0.0632  0.1557  0.6646
 5347SOL     OW16610   5.414   7.143   4.155  0.8168 -0.1225  0.0681
 5347SOL    HW116611   5.420   7.152   4.060  0.0473  1.0171  0.1166
 5347SOL    HW216612   5.324   7.167   4.176  1.3741  1.0848  1.2343
 5348SOL     OW16613   0.233   1.040   4.473  0.0176  0.0613 -0.6498
 5348SOL    HW116614   0.147   1.065   4.506  0.6929  1.1836  0.3235
 5348SOL    HW216615   0.295   1.083   4.531  1.2779 -2.6598  0.1615
 5349SOL     OW16616   7.319   0.542   5.326 -0.4989  0.1838  0.6972
 5349SOL    HW116617   7.229   0.569   5.308 -0.1147  0.1043 -1.7517
 5349SOL    HW216618   7.324   0.452   5.294 -0.0247 -0.5093  2.6112
 5350SOL     OW16619   1.803   6.042   3.723 -0.1424 -0.0823  0.0868
 5350SOL    HW116620   1.799   6.105   3.652  2.8053 -0.3834 -0.4721
 5350SOL    HW216621   1.758   5.964   3.689 -1.4203  0.7828 -0.2441
 5351SOL     OW16622   3.516   7.051   2.403 -0.4038  0.0862 -0.2830
 5351SOL    HW116623   3.580   7.065   2.333  0.1763  0.2990  0.2822
 5351SOL    HW216624   3.446   7.002   2.361 -0.2029  0.4661 -1.0919
 5352SOL     OW16625   6.601   3.541   6.763  0.1873 -0.2374  0.0011
 5352SOL    HW116626   6.614   3.449   6.785 -0.0750  0.0221  1.3736
 5352SOL    HW216627   6.654   3.588   6.828  0.8552  0.5790 -1.0938
 5353SOL     OW16628   2.735   3.761   4.005 -0.0660 -0.3590  0.0174
 5353SOL    HW116629   2.760   3.772   3.914  1.5539 -0.0551  0.4620
 5353SOL    HW216630   2.798   3.815   4.054 -0.3771 -1.1690  1.3677
 5354SOL     OW16631   0.277   2.691   4.560 -0.2808  0.6769  0.1595
 5354SOL    HW116632   0.336   2.684   4.636 -0.6119  1.7722  0.5261
 5354SOL    HW216633   0.327   2.742   4.496 -0.2106  0.2043 -0.1724
 5355SOL     OW16634   6.133   4.738   3.956 -0.0760  0.3807  0.6741
 5355SOL    HW116635   6.138   4.661   4.013  1.3811 -1.6887 -2.0450
 5355SOL    HW216636   6.048   4.731   3.913  0.7051 -0.6769 -0.7598
 5356SOL     OW16637   0.803   2.157   1.863 -0.9704  0.2588  0.2012
 5356SOL    HW116638   0.811   2.077   1.915 -1.4858  1.0665  1.5808
 5356SOL    HW216639   0.889   2.169   1.824 -0.5233 -0.2924  0.9968
 5357SOL     OW16640   4.027   5.323   3.879  0.6023 -0.4170 -0.0092
 5357SOL    HW116641   4.098   5.344   3.818  0.5695  3.0619  0.9621
 5357SOL    HW216642   4.067   5.332   3.966 -0.7867  0.8517  0.5351
 5358SOL     OW16643   5.419   0.644   2.176 -0.1708 -0.2205 -0.3312
 5358SOL    HW116644   5.332   0.608   2.160  0.1544 -0.7690 -0.9014
 5358SOL    HW216645   5.478   0.589   2.124  0.8963 -1.8319  2.3540
 5359SOL     OW16646   2.165   5.362   1.156  0.4164 -0.5808 -0.7944
 5359SOL    HW116647   2.071   5.382   1.147  0.2677 -1.0499 -0.3046
 5359SOL    HW216648   2.201   5.380   1.069 -0.2606 -1.0686 -1.1901
 5360SOL     OW16649   5.245   3.604   3.875  0.2226  0.2839  0.5159
 5360SOL    HW116650   5.153   3.577   3.878  0.2884 -0.1163 -0.6901
 5360SOL    HW216651   5.283   3.555   3.802  1.3667  0.5474  0.9051
 5361SOL     OW16652   0.363   4.393   2.364 -0.3013  0.8209  0.2639
 5361SOL    HW116653   0.319   4.449   2.428 -0.6020 -1.9021  2.6575
 5361SOL    HW216654   0.456   4.402   2.385 -0.2642  1.1575 -0.0321
 5362SOL     OW16655   0.626   3.349   5.100  0.0708 -0.0144  0.1153
 5362SOL    HW116656   0.688   3.399   5.153 -1.1704  0.5389  1.1039
 5362SOL    HW216657   0.653   3.364   5.010 -0.4327  2.7481  0.3521
 5363SOL     OW16658   2.354   1.172   4.052  0.2944 -0.0598 -0.0329
 5363SOL    HW116659   2.438   1.131   4.029  0.0407 -1.0850  0.7773
 5363SOL    HW216660   2.363   1.263   4.023  1.6447 -0.1769 -0.0592
 5364SOL     OW16661   4.466   7.249   4.971 -0.1556  0.2152 -0.6317
 5364SOL    HW116662   4.550   7.295   4.970 -1.1578  2.1529 -1.3467
 5364SOL    HW216663   4.484   7.166   5.015  1.6008  1.6164  1.5113
 5365SOL     OW16664   4.303   2.400   4.671  0.2054  0.1230  0.0965
 5365SOL    HW116665   4.270   2.325   4.622  1.4119 -1.0133  0.9503
 5365SOL    HW216666   4.292   2.474   4.612 -2.1325 -0.4832 -0.3288
 5366SOL     OW16667   1.986   2.531   6.269 -0.1577 -0.4104  0.0894
 5366SOL    HW116668   1.986   2.437   6.287 -1.6908 -0.5609 -0.5213
 5366SOL    HW216669   2.075   2.559   6.288  0.5430 -2.1319 -0.4113
 5367SOL     OW16670   5.007   0.838   3.509 -0.5653  0.1641  0.7460
 5367SOL    HW116671   4.937   0.846   3.574 -1.4277  2.0633 -0.3217
 5367SOL    HW216672   4.967   0.867   3.427  1.2031  0.3136 -0.1184
 5368SOL     OW16673   1.142   5.209   0.922  0.4014 -0.2230  0.2337
 5368SOL    HW116674   1.134   5.303   0.905  0.5624 -0.3022 -0.3096
 5368SOL    HW216675   1.053   5.176   0.919  0.5062 -0.4314 -1.7162
 5369SOL     OW16676   4.078   7.393   6.965  0.2164 -0.1196  0.2278
 5369SOL    HW116677   4.051   7.448   7.038 -1.7607 -0.7901  0.0604
 5369SOL    HW216678   4.065   7.303   6.996 -0.5198 -0.4157 -0.8558
 5370SOL     OW16679   5.784   3.329   1.406 -0.5961  0.4688  0.4325
 5370SOL    HW116680   5.749   3.277   1.478 -0.0154  0.5302  0.7686
 5370SOL    HW216681   5.735   3.301   1.329 -1.5387  0.7314  0.9271
 5371SOL     OW16682   4.749   5.845   1.163  0.1853  0.0654  0.0204
 5371SOL    HW116683   4.683   5.914   1.154  0.6735  0.5151 -0.1891
 5371SOL    HW216684   4.813   5.881   1.223 -0.5568 -0.9983  1.5077
 5372SOL     OW16685   0.873   2.939   2.096  0.2566 -0.5651  0.0451
 5372SOL    HW116686   0.790   2.893   2.081 -0.6938  1.1001 -0.0074
 5372SOL    HW216687   0.859   2.989   2.176  0.9399  0.3243 -0.3749
 5373SOL     OW16688   0.995   6.681   5.846  0.1225  0.1727  0.2584
 5373SOL    HW116689   0.982   6.756   5.788  0.7499  1.1640  1.3518
 5373SOL    HW216690   1.090   6.676   5.858  0.0159 -0.1433  1.0324
 5374SOL     OW16691   7.141   0.787   0.485 -0.4976 -0.1907  0.3013
 5374SOL    HW116692   7.148   0.744   0.570 -0.6066  0.6499  0.7494
 5374SOL    HW216693   7.056   0.831   0.487 -0.9081 -0.9041 -0.6046
 5375SOL     OW16694   1.278   6.389   4.927  0.1989 -0.0539 -0.0958
 5375SOL    HW116695   1.198   6.440   4.942  0.7311  0.6000  0.5644
 5375SOL    HW216696   1.298   6.401   4.834 -1.1405 -1.2258 -0.5797
 5376SOL     OW16697   2.528   0.139   1.705  0.1708 -0.1203 -0.5422
 5376SOL    HW116698   2.574   0.056   1.694  1.0695  0.4417 -1.1030
 5376SOL    HW216699   2.444   0.126   1.661  0.5957 -0.4924 -1.2452
 5377SOL     OW16700   6.452   2.377   3.594 -0.5668  0.4933 -0.1832
 5377SOL    HW116701   6.519   2.348   3.532 -1.4482  0.3838 -1.1072
 5377SOL    HW216702   6.427   2.297   3.642  0.2822  0.6218  0.5024
 5378SOL     OW16703   1.381   6.824   4.161 -0.4035  0.3096  0.0945
 5378SOL    HW116704   1.412   6.736   4.140  2.6412  1.1574  0.5364
 5378SOL    HW216705   1.381   6.828   4.256 -1.9667  0.4025  0.1296
 5379SOL     OW16706   6.763   3.775   5.140  0.0798 -0.4151  0.0396
 5379SOL    HW116707   6.844   3.783   5.190  0.5886 -1.9041 -0.5137
 5379SOL    HW216708   6.744   3.681   5.139 -0.4281 -0.3304 -1.7541
 5380SOL     OW16709   1.205   6.643   3.310  0.2722 -0.1175  0.4664
 5380SOL    HW116710   1.216   6.717   3.369  1.2267  0.0157  0.1409
 5380SOL    HW216711   1.287   6.638   3.262 -1.1199  0.9939 -2.2732
 5381SOL     OW16712   6.364   6.757   6.891 -0.1255  0.2701  0.4794
 5381SOL    HW116713   6.459   6.763   6.878 -0.0166 -0.2895  0.9860
 5381SOL    HW216714   6.331   6.724   6.808  0.3926 -1.7641  1.0228
 5382SOL     OW16715   1.505   2.454   1.960 -0.1127  1.1472 -0.2202
 5382SOL    HW116716   1.491   2.545   1.935 -1.6989  0.4493 -2.2142
 5382SOL    HW216717   1.504   2.406   1.877 -0.0802 -0.7613  0.8140
 5383SOL     OW16718   6.870   3.822   4.268 -0.4957  0.3022 -0.1040
 5383SOL    HW116719   6.944   3.871   4.304 -0.4244  0.2467 -0.1753
 5383SOL    HW216720   6.843   3.764   4.339 -0.8572  0.7510  0.1302
 5384SOL     OW16721   1.370   0.804   1.877 -1.2124 -0.4661 -0.4681
 5384SOL    HW116722   1.380   0.866   1.805 -1.0794  0.2770  0.1757
 5384SOL    HW216723   1.412   0.724   1.845 -0.6222  0.0393 -0.9919
 5385SOL     OW16724   3.340   5.146   5.310 -0.5013  0.3712 -0.0968
 5385SOL    HW116725   3.245   5.135   5.310 -0.3156 -1.7346  0.9664
 5385SOL    HW216726   3.372   5.081   5.247  0.2393  1.6562 -1.1164
 5386SOL     OW16727   3.064   2.785   1.739  0.5559 -0.0189 -0.6039
 5386SOL    HW116728   2.985   2.811   1.788  0.4870 -0.8071 -0.2884
 5386SOL    HW216729   3.128   2.765   1.806  1.0136  0.5366 -0.8622
 5387SOL     OW16730   2.093   0.210   4.207  0.3510 -0.0123 -0.5733
 5387SOL    HW116731   2.046   0.168   4.135  0.2298  0.4335 -0.7642
 5387SOL    HW216732   2.029   0.212   4.278 -0.4268  1.7924 -1.2482
 5388SOL     OW16733   0.867   6.092   5.084 -0.8980  0.2483 -0.2139
 5388SOL    HW116734   0.904   6.043   5.011 -0.3595 -1.3521  1.0803
 5388SOL    HW216735   0.779   6.056   5.096 -0.5821 -0.2690  0.6089
 5389SOL     OW16736   1.175   7.280   6.766 -0.0997  0.6502 -0.1787
 5389SOL    HW116737   1.112   7.352   6.758  0.7528  1.5221  0.7392
 5389SOL    HW216738   1.169   7.253   6.858  0.5059  0.4072 -0.2091
 5390SOL     OW16739   3.985   3.168   4.827  0.0135  0.5217 -0.1593
 5390SOL    HW116740   3.992   3.072   4.828  1.5201  0.6119 -0.1542
 5390SOL    HW216741   3.918   3.187   4.893 -0.4013 -0.5370 -0.2545
 5391SOL     OW16742   4.555   5.096   1.343 -0.4043 -0.3804 -0.0178
 5391SOL    HW116743   4.540   5.076   1.435  0.8296  2.0359  0.8069
 5391SOL    HW216744   4.492   5.166   1.324 -0.0372 -0.2368 -0.7381
 5392SOL     OW16745   2.979   0.086   7.254 -0.3412  0.2074 -0.2519
 5392SOL    HW116746   2.902   0.141   7.240 -1.4351 -0.7201  1.7372
 5392SOL    HW216747   2.990   0.083   7.349  1.8277 -0.1593 -0.4614
 5393SOL     OW16748   4.852   0.548   6.736 -0.2946 -0.1944  0.0024
 5393SOL    HW116749   4.944   0.546   6.760  0.0842  1.5138 -1.1715
 5393SOL    HW216750   4.806   0.521   6.816  1.1422  0.0448  0.9477
 5394SOL     OW16751   7.095   7.255   4.156 -0.5506 -0.1291 -0.2932
 5394SOL    HW116752   7.053   7.218   4.078 -0.2112  0.9909 -1.0184
 5394SOL    HW216753   7.150   7.326   4.123 -0.1668  0.1694  0.9369
 5395SOL     OW16754   2.490   0.437   4.274  0.1999 -0.5292 -0.9008
 5395SOL    HW116755   2.400   0.458   4.247 -0.8704 -1.1240  1.8918
 5395SOL    HW216756   2.531   0.523   4.288 -0.2430 -0.2644 -1.1931
 5396SOL     OW16757   1.210   3.667   5.203 -0.0606 -0.2165 -0.5682
 5396SOL    HW116758   1.130   3.653   5.254  0.7995 -1.8298  0.4011
 5396SOL    HW216759   1.205   3.602   5.133  0.6936 -0.7571 -0.1287
 5397SOL     OW16760   6.167   0.498   4.431  0.1559 -0.1017  1.1364
 5397SOL    HW116761   6.228   0.432   4.400 -1.0187 -0.2227 -1.1308
 5397SOL    HW216762   6.083   0.453   4.435 -0.1461  0.5120  2.5020
 5398SOL     OW16763   3.531   4.570   0.444  0.1211 -0.3450 -0.5724
 5398SOL    HW116764   3.460   4.598   0.502 -0.6189  0.6164 -1.9082
 5398SOL    HW216765   3.594   4.642   0.447 -0.1357 -0.0840 -1.3018
 5399SOL     OW16766   0.872   0.606   4.548 -0.5976  0.0079 -0.4035
 5399SOL    HW116767   0.918   0.553   4.612 -3.3672 -0.7325  1.1380
 5399SOL    HW216768   0.859   0.548   4.473 -0.1504 -0.1706 -0.3439
 5400SOL     OW16769   3.364   2.925   6.235 -0.4102 -0.0277  0.2896
 5400SOL    HW116770   3.427   2.855   6.250  1.3966  1.0988 -1.6260
 5400SOL    HW216771   3.306   2.921   6.311  0.7977 -2.3265  1.1846
 5401SOL     OW16772   3.758   2.916   4.362 -1.0710  0.1810  0.5550
 5401SOL    HW116773   3.750   2.829   4.323 -2.7823 -0.0311  1.2602
 5401SOL    HW216774   3.738   2.976   4.290  0.5509  0.0323 -0.0419
 5402SOL     OW16775   7.424   4.230   4.628  0.1865  0.3809  0.7469
 5402SOL    HW116776   7.453   4.314   4.591  1.8648  0.6002  2.4169
 5402SOL    HW216777   7.490   4.209   4.694  1.3179 -3.5309 -1.3118
 5403SOL     OW16778   5.724   5.959   1.310 -0.2375 -0.4111  0.0786
 5403SOL    HW116779   5.809   5.952   1.352  0.3551 -1.7441 -1.2411
 5403SOL    HW216780   5.672   5.888   1.347 -0.0185 -0.9943 -0.6843
 5404SOL     OW16781   6.446   6.809   2.239 -0.2633 -0.2591  0.3531
 5404SOL    HW116782   6.462   6.884   2.297  0.1708 -0.7762  0.9123
 5404SOL    HW216783   6.501   6.739   2.275 -1.8280 -1.3224  0.7683
 5405SOL     OW16784   4.137   3.181   0.622  0.7620 -0.0641  0.4974
 5405SOL    HW116785   4.121   3.270   0.655 -0.9986  0.2523 -1.0444
 5405SOL    HW216786   4.121   3.125   0.698 -0.5552  0.8149  0.9195
 5406SOL     OW16787   1.309   7.003   1.787  0.2154 -0.2530 -0.3375
 5406SOL    HW116788   1.338   7.087   1.823 -0.8589  0.2320 -0.5781
 5406SOL    HW216789   1.390   6.954   1.773  0.8186  0.5159  0.3503
 5407SOL     OW16790   3.401   7.022   4.697 -0.4972 -0.5407  0.2197
 5407SOL    HW116791   3.347   6.982   4.629 -0.0652 -1.2199  0.2642
 5407SOL    HW216792   3.431   7.105   4.658 -1.2457 -0.3419  0.0552
 5408SOL     OW16793   4.624   5.640   6.143 -0.7545  0.0515 -0.1948
 5408SOL    HW116794   4.701   5.688   6.114 -0.4110 -0.8199 -0.7532
 5408SOL    HW216795   4.591   5.690   6.217 -0.0017  0.7603 -0.3269
 5409SOL     OW16796   5.200   3.651   0.145  0.0605  0.5615  0.1331
 5409SOL    HW116797   5.129   3.694   0.097  0.4154  2.2981  1.0840
 5409SOL    HW216798   5.256   3.723   0.174  1.4717 -0.6722  0.5941
 5410SOL     OW16799   7.403   5.101   3.765  0.7069 -0.5047  0.2268
 5410SOL    HW116800   7.377   5.193   3.775 -0.0220 -0.6638 -0.0998
 5410SOL    HW216801   7.333   5.052   3.808  0.2431 -0.9692 -0.9975
 5411SOL     OW16802   2.401   4.554   2.831  0.0436 -0.2497 -0.3451
 5411SOL    HW116803   2.325   4.539   2.776 -0.2653 -0.2302  0.0753
 5411SOL    HW216804   2.473   4.513   2.784 -0.1589  0.0331 -0.9150
 5412SOL     OW16805   6.558   5.147   3.500 -0.2379 -0.1568  0.1068
 5412SOL    HW116806   6.579   5.240   3.502  0.7052 -0.3557 -0.2095
 5412SOL    HW216807   6.635   5.105   3.462  0.2641 -1.3101  2.2105
 5413SOL     OW16808   3.704   4.365   7.407  0.2348 -0.3861  0.1043
 5413SOL    HW116809   3.637   4.395   7.469  2.4768  0.3029  2.3485
 5413SOL    HW216810   3.709   4.435   7.342 -1.2376 -0.4970 -0.1785
 5414SOL     OW16811   5.314   1.968   0.253  0.7075 -0.4617 -0.0507
 5414SOL    HW116812   5.275   1.886   0.283 -1.3573  0.2119 -0.7106
 5414SOL    HW216813   5.296   1.971   0.159 -1.2560  1.6765  0.2908
 5415SOL     OW16814   7.199   4.007   6.187  0.4179 -0.7004 -0.1764
 5415SOL    HW116815   7.185   4.060   6.265 -0.0568  0.5517 -1.0741
 5415SOL    HW216816   7.265   4.054   6.137  1.0874 -1.7480 -0.3258
 5416SOL     OW16817   0.342   2.904   2.360  0.5048 -0.1788  0.1926
 5416SOL    HW116818   0.249   2.902   2.337  0.5031 -0.2684  0.2065
 5416SOL    HW216819   0.386   2.855   2.291  0.6797  0.8148 -0.4239
 5417SOL     OW16820   2.068   1.510   5.009 -0.2352 -0.3760  0.2398
 5417SOL    HW116821   1.997   1.447   5.012  1.2939 -2.2038 -0.1514
 5417SOL    HW216822   2.144   1.462   5.042  0.7959  1.5727  0.8516
 5418SOL     OW16823   6.246   3.966   3.230 -0.1876  0.3143 -0.3677
 5418SOL    HW116824   6.316   3.968   3.295 -0.0024  0.3610 -0.5662
 5418SOL    HW216825   6.169   3.938   3.279  0.3489 -1.5483 -0.4962
 5419SOL     OW16826   7.229   7.037   4.913 -0.4055  0.3277 -0.2224
 5419SOL    HW116827   7.234   6.949   4.876 -0.2149  0.8555 -1.4943
 5419SOL    HW216828   7.141   7.042   4.951 -0.9282  0.0490 -1.3663
 5420SOL     OW16829   5.613   3.054   0.264  0.3215 -0.0494  0.1294
 5420SOL    HW116830   5.596   3.148   0.260 -1.3161 -0.2391  1.3787
 5420SOL    HW216831   5.708   3.046   0.255  0.6271  1.8371  1.1712
 5421SOL     OW16832   5.425   1.101   3.160  0.2560 -0.3884  0.1824
 5421SOL    HW116833   5.423   1.189   3.122 -0.5453 -0.5328 -0.1388
 5421SOL    HW216834   5.482   1.051   3.103 -1.0207 -0.6321 -0.9295
 5422SOL     OW16835   5.232   5.449   0.054 -0.2955  0.3715  0.5719
 5422SOL    HW116836   5.273   5.423  -0.028  0.9794 -0.9215  1.5803
 5422SOL    HW216837   5.266   5.537   0.071  0.2038  0.2549  0.2076
 5423SOL     OW16838   4.454   1.967   4.017 -0.0594  0.9474  0.1558
 5423SOL    HW116839   4.429   1.938   3.929 -0.1005 -0.4138  0.5878
 5423SOL    HW216840   4.500   1.891   4.054 -0.4768  1.3207  1.4830
 5424SOL     OW16841   3.086   3.447   1.362 -0.5440 -0.7706 -0.5451
 5424SOL    HW116842   3.017   3.399   1.407 -0.7973  0.3981  0.3502
 5424SOL    HW216843   3.040   3.501   1.298 -0.3659 -0.8201 -0.7159
 5425SOL     OW16844   1.646   2.627   6.981  0.0782  0.0211  0.9972
 5425SOL    HW116845   1.641   2.719   6.957  0.2736 -0.1488  0.2874
 5425SOL    HW216846   1.732   2.598   6.950 -0.7608 -0.8827 -0.5675
 5426SOL     OW16847   1.061   3.921   7.220  0.1341 -0.5628  0.0228
 5426SOL    HW116848   1.052   3.881   7.133 -1.4634  0.4285 -0.3104
 5426SOL    HW216849   0.995   3.879   7.274  0.5887 -0.6131  0.5460
 5427SOL     OW16850   1.822   6.506   0.479 -0.2492  0.6875 -0.1594
 5427SOL    HW116851   1.765   6.582   0.464  1.6014  2.3409  0.6977
 5427SOL    HW216852   1.879   6.504   0.402 -1.1527 -0.7143 -0.8261
 5428SOL     OW16853   0.257   1.196   4.730 -1.2318 -0.0713  0.5198
 5428SOL    HW116854   0.230   1.111   4.762  0.0628 -0.7618 -0.1309
 5428SOL    HW216855   0.337   1.216   4.779 -1.0719  0.3808  0.0862
 5429SOL     OW16856   1.105   3.630   6.790 -0.3506  0.1463  0.0867
 5429SOL    HW116857   1.071   3.718   6.803  0.9327  0.6335  0.2467
 5429SOL    HW216858   1.035   3.573   6.822 -0.8150  1.1244  0.8846
 5430SOL     OW16859   4.941   4.971   1.394 -0.7188  0.0329  0.2864
 5430SOL    HW116860   4.915   5.049   1.444 -2.1973  0.1810 -0.6513
 5430SOL    HW216861   4.861   4.919   1.388 -0.6727  0.1337 -2.0852
 5431SOL     OW16862   4.337   0.563   2.345  0.0363 -0.8627 -0.2757
 5431SOL    HW116863   4.380   0.615   2.412 -1.8145  0.6765 -0.1920
 5431SOL    HW216864   4.362   0.605   2.263 -1.6404  0.4126 -0.1955
 5432SOL     OW16865   2.107   2.023   4.982  0.1948 -0.2315 -0.2256
 5432SOL    HW116866   2.197   2.005   5.010  0.1491  0.8075  0.6703
 5432SOL    HW216867   2.056   2.020   5.063 -0.4249  0.0458 -0.6025
 5433SOL     OW16868   5.279   5.619   3.771 -0.2058 -0.2271 -0.7084
 5433SOL    HW116869   5.358   5.654   3.812  1.2246 -2.4228 -1.3914
 5433SOL    HW216870   5.225   5.590   3.844 -0.5469  1.5083 -0.2231
 5434SOL     OW16871   6.523   1.974   5.199 -0.1476  0.2113 -0.2131
 5434SOL    HW116872   6.509   2.047   5.139 -0.7940  0.2596 -0.0074
 5434SOL    HW216873   6.445   1.974   5.255  0.6983  0.5222  0.9991
 5435SOL     OW16874   0.066   2.332   5.039  0.0692  1.0400  0.0193
 5435SOL    HW116875  -0.009   2.274   5.029  1.1067 -0.2169 -0.8051
 5435SOL    HW216876   0.054   2.398   4.971 -0.4671  1.0586  0.1296
 5436SOL     OW16877   4.119   1.891   6.148 -0.1025  0.4014  0.5296
 5436SOL    HW116878   4.125   1.977   6.190 -0.9491  1.0582 -0.6326
 5436SOL    HW216879   4.052   1.902   6.080 -0.3461 -1.2282  0.4669
 5437SOL     OW16880   0.653   6.732   4.826  0.1900  0.4909  0.3560
 5437SOL    HW116881   0.653   6.757   4.734 -0.6091  0.8071  0.4325
 5437SOL    HW216882   0.614   6.644   4.826 -2.7550  1.6640  0.6416
 5438SOL     OW16883   5.055   1.253   6.801 -0.3263  0.2633 -0.1426
 5438SOL    HW116884   5.130   1.295   6.759 -0.5156 -0.9053 -1.7440
 5438SOL    HW216885   4.979   1.284   6.750 -0.6628 -0.4558 -0.0838
 5439SOL     OW16886   3.240   5.999   0.814  0.1791  0.1250  0.8844
 5439SOL    HW116887   3.217   6.050   0.737 -0.5887  2.1415  2.3577
 5439SOL    HW216888   3.323   5.957   0.792  0.3079  1.1667 -0.7735
 5440SOL     OW16889   5.231   0.177   6.256  0.0545 -0.4515 -0.0687
 5440SOL    HW116890   5.282   0.150   6.333  0.1635 -0.4289 -0.1331
 5440SOL    HW216891   5.217   0.271   6.269 -0.0891 -0.4839  0.0176
 5441SOL     OW16892   6.807   0.385   4.435  0.4258  0.1420 -0.1887
 5441SOL    HW116893   6.778   0.374   4.526 -0.7565  2.5929 -0.1646
 5441SOL    HW216894   6.902   0.371   4.438  0.7902  2.3578  1.9495
 5442SOL     OW16895   6.275   1.840   3.334 -0.0199 -0.2226 -0.1758
 5442SOL    HW116896   6.316   1.753   3.333  0.1176 -0.1642 -1.5865
 5442SOL    HW216897   6.181   1.823   3.337 -0.0022 -0.4417 -0.6905
 5443SOL     OW16898   0.336   7.266   5.027  0.4963 -0.5114  0.1014
 5443SOL    HW116899   0.246   7.245   5.002 -0.6268  0.5566  2.8522
 5443SOL    HW216900   0.376   7.182   5.049 -0.1727 -0.8841 -0.1015
 5444SOL     OW16901   0.132   1.481   3.281  0.0671  0.0955  0.4925
 5444SOL    HW116902   0.094   1.400   3.314 -0.1138 -1.0619 -2.2405
 5444SOL    HW216903   0.057   1.540   3.272  0.2778  0.8712  3.0328
 5445SOL     OW16904   2.562   3.252   4.183  0.2500 -0.4867  0.0665
 5445SOL    HW116905   2.519   3.336   4.168  0.2275 -0.0931  2.1059
 5445SOL    HW216906   2.522   3.218   4.263  1.7053 -1.4541  0.4234
 5446SOL     OW16907   1.444   4.875   2.691 -0.1626  0.1247 -0.4326
 5446SOL    HW116908   1.432   4.821   2.769  1.0290  0.9760  0.3637
 5446SOL    HW216909   1.402   4.958   2.713 -1.6447 -0.2890 -1.5062
 5447SOL     OW16910   3.296   6.218   2.851  0.0563  0.0177 -0.2486
 5447SOL    HW116911   3.276   6.311   2.843 -0.0609 -0.1364 -2.1247
 5447SOL    HW216912   3.213   6.174   2.832  0.0756 -0.4912  0.7672
 5448SOL     OW16913   2.608   2.524   3.360 -0.1889  0.1795 -0.7431
 5448SOL    HW116914   2.559   2.567   3.290 -0.8417 -0.4478 -0.6870
 5448SOL    HW216915   2.548   2.457   3.394 -1.2782  2.6220  2.7208
 5449SOL     OW16916   3.620   3.621   5.542 -0.6171  0.3834  0.2147
 5449SOL    HW116917   3.631   3.716   5.540  0.3793  0.2779  0.1065
 5449SOL    HW216918   3.557   3.605   5.612  0.3627  1.0310  1.2912
 5450SOL     OW16919   1.183   3.627   4.088  0.6779  0.0462  0.3488
 5450SOL    HW116920   1.164   3.720   4.098  2.4612  0.4845 -0.0090
 5450SOL    HW216921   1.273   3.617   4.117  0.1927 -1.7876  1.4105
 5451SOL     OW16922   5.722   3.788   3.436  0.0761  0.1970 -0.0020
 5451SOL    HW116923   5.688   3.787   3.347  0.0819  1.6496 -0.0495
 5451SOL    HW216924   5.817   3.781   3.426 -0.0179 -1.2327 -0.0109
 5452SOL     OW16925   4.850   6.656   4.665  0.5249  0.1071 -0.0830
 5452SOL    HW116926   4.937   6.663   4.628  0.2928 -0.7637 -0.8297
 5452SOL    HW216927   4.807   6.739   4.643  0.3182 -0.4726 -2.0101
 5453SOL     OW16928   1.262   6.706   1.786 -0.1268 -0.4485 -0.1725
 5453SOL    HW116929   1.218   6.677   1.706 -1.9159 -0.0409  0.6034
 5453SOL    HW216930   1.291   6.795   1.767 -1.3305 -0.0226 -0.1220
 5454SOL     OW16931   0.706   6.623   1.056  0.2385  0.0101 -0.6924
 5454SOL    HW116932   0.611   6.610   1.052  0.0083  1.1326  0.5941
 5454SOL    HW216933   0.734   6.572   1.132  0.7095 -0.4044 -1.1271
 5455SOL     OW16934   1.162   4.512   6.317 -0.3841 -0.5935 -0.4211
 5455SOL    HW116935   1.151   4.586   6.376 -0.1577 -1.3859  0.6362
 5455SOL    HW216936   1.250   4.479   6.334 -0.6075 -1.3230 -0.6096
 5456SOL     OW16937   0.507   3.110   2.485  0.4537  0.4044 -0.2357
 5456SOL    HW116938   0.564   3.139   2.414  1.4307  1.3771  0.8879
 5456SOL    HW216939   0.444   3.051   2.444  0.2272  1.8757 -2.0967
 5457SOL     OW16940   0.080   4.637   3.550 -1.0969  0.0400 -0.1050
 5457SOL    HW116941   0.093   4.732   3.556 -1.2920  0.2451 -2.1489
 5457SOL    HW216942   0.023   4.625   3.474  0.8561 -1.8163 -1.4132
 5458SOL     OW16943   3.502   4.070   4.066 -0.2919 -0.1818  0.2623
 5458SOL    HW116944   3.544   4.156   4.072  0.0380 -0.2641 -0.6472
 5458SOL    HW216945   3.552   4.015   4.126  1.3298 -0.4233 -1.2159
 5459SOL     OW16946   6.252   1.687   6.191  0.1248  0.5557  0.2691
 5459SOL    HW116947   6.272   1.753   6.124  1.0238  0.7988  0.7575
 5459SOL    HW216948   6.229   1.609   6.142  0.6209  0.7754 -0.3324
 5460SOL     OW16949   3.521   4.164   5.152 -0.1141  0.3306 -0.4136
 5460SOL    HW116950   3.461   4.179   5.226 -0.6441  2.0075 -1.1409
 5460SOL    HW216951   3.608   4.180   5.189 -0.3093  0.3761  0.0398
 5461SOL     OW16952   5.331   4.780   7.324 -0.0320  0.1047 -0.5980
 5461SOL    HW116953   5.272   4.764   7.250  0.2228 -0.3030 -0.7179
 5461SOL    HW216954   5.335   4.696   7.370  1.6714 -0.3458 -1.4886
 5462SOL     OW16955   4.918   7.010   0.143 -0.4070  0.0514  0.2489
 5462SOL    HW116956   4.925   7.090   0.195  0.8944  0.0478  0.1012
 5462SOL    HW216957   5.004   6.970   0.147  0.5689  1.2219 -3.6972
 5463SOL     OW16958   3.814   1.036   4.061 -0.0261 -0.3529 -0.6506
 5463SOL    HW116959   3.842   1.053   3.971 -0.1014  1.3030 -0.3879
 5463SOL    HW216960   3.745   1.101   4.077  1.0101  0.3829  1.0714
 5464SOL     OW16961   3.047   6.370   6.333 -0.0542 -0.5846  0.1256
 5464SOL    HW116962   3.142   6.382   6.339 -0.3103  1.3918  0.8903
 5464SOL    HW216963   3.026   6.313   6.407  0.2757  0.9674  1.4787
 5465SOL     OW16964   5.478   7.425   1.004 -0.4670 -0.2137  0.2206
 5465SOL    HW116965   5.531   7.487   1.053 -0.8997 -0.4190  0.9617
 5465SOL    HW216966   5.464   7.468   0.919  0.4964  0.0279  0.1716
 5466SOL     OW16967   0.390   6.326   0.701  0.0088 -0.4165 -0.1375
 5466SOL    HW116968   0.310   6.309   0.651  1.3075 -2.3881 -1.7003
 5466SOL    HW216969   0.393   6.257   0.767  1.5837 -2.0234 -1.7322
 5467SOL     OW16970   0.425   6.921   5.326 -0.9112  0.8987 -0.3782
 5467SOL    HW116971   0.351   6.980   5.312 -1.5137  0.5451  1.0724
 5467SOL    HW216972   0.389   6.833   5.316 -0.4879  0.7388 -0.5225
 5468SOL     OW16973   3.878   5.541   0.392  0.4775  0.4058 -0.5739
 5468SOL    HW116974   3.811   5.532   0.460 -1.3986  1.1179 -2.2374
 5468SOL    HW216975   3.909   5.632   0.401 -0.9411  1.0328 -1.6279
 5469SOL     OW16976   0.469   5.857   2.942  0.0506  0.2380  0.4788
 5469SOL    HW116977   0.483   5.804   3.021  0.7591 -0.2901  0.0195
 5469SOL    HW216978   0.556   5.860   2.900 -0.0092  1.6361  0.4098
 5470SOL     OW16979   0.925   7.336   3.193  0.1278 -0.6876 -0.2673
 5470SOL    HW116980   0.847   7.327   3.247  1.0388  1.1448  1.4958
 5470SOL    HW216981   0.912   7.418   3.145  0.7997 -0.5317 -0.2046
 5471SOL     OW16982   1.077   5.014   4.026  0.4340  0.5040  0.0458
 5471SOL    HW116983   0.983   5.000   4.024  0.5382 -0.7033  1.9789
 5471SOL    HW216984   1.115   4.926   4.032  1.7311  0.9403 -1.0416
 5472SOL     OW16985   6.075   5.458   6.228 -0.4521  0.4315 -0.4425
 5472SOL    HW116986   6.026   5.510   6.292  0.5127  0.8258 -0.0097
 5472SOL    HW216987   6.010   5.435   6.162 -1.3979  0.2955  0.5058
 5473SOL     OW16988   5.511   3.716   0.452  0.2497  0.7841  0.1392
 5473SOL    HW116989   5.561   3.765   0.386  0.3117  0.2069 -0.2552
 5473SOL    HW216990   5.540   3.751   0.536  0.0578  1.6388 -0.1446
 5474SOL     OW16991   4.611   2.707   7.227 -0.1956 -0.2361 -0.7915
 5474SOL    HW116992   4.624   2.709   7.322 -0.0530  0.5024 -0.8204
 5474SOL    HW216993   4.655   2.786   7.196  0.4665 -0.8934 -1.5673
 5475SOL     OW16994   6.146   2.441   1.477 -0.2341 -0.1288 -0.6597
 5475SOL    HW116995   6.088   2.515   1.493  1.0549  0.8557 -0.2887
 5475SOL    HW216996   6.088   2.368   1.456 -1.5092  1.3226 -2.5320
 5476SOL     OW16997   0.277   6.493   0.179 -0.4490  0.1674  0.3446
 5476SOL    HW116998   0.199   6.548   0.168  0.5871  1.4262 -1.0661
 5476SOL    HW216999   0.325   6.533   0.251 -0.6953 -0.1246  0.6745
 5477SOL     OW17000   1.532   0.786   2.207 -0.4637  0.2651  0.2116
 5477SOL    HW117001   1.503   0.755   2.293 -0.5726  0.5478  0.2776
 5477SOL    HW217002   1.594   0.856   2.226 -0.4367  0.2819  0.0614
 5478SOL     OW17003   3.962   7.303   2.457 -0.0400  0.5502 -0.0151
 5478SOL    HW117004   3.955   7.208   2.468 -1.4737  0.6572  0.1134
 5478SOL    HW217005   4.026   7.330   2.523 -1.5101 -0.0150  1.6988
 5479SOL     OW17006   4.318   2.719   5.517  0.3404  0.6711  0.0280
 5479SOL    HW117007   4.376   2.653   5.557 -1.2053 -0.3290  0.7205
 5479SOL    HW217008   4.257   2.668   5.465 -1.2406  1.4941  1.0171
 5480SOL     OW17009   2.323   5.759   4.860 -0.3394 -0.4114  0.3972
 5480SOL    HW117010   2.334   5.696   4.931  0.1306  1.2215  1.8256
 5480SOL    HW217011   2.238   5.799   4.877 -1.0565 -1.2364 -1.0274
 5481SOL     OW17012   5.571   7.382   6.242 -0.2448 -0.4610  0.5218
 5481SOL    HW117013   5.581   7.308   6.302 -0.0301  0.5427  1.7714
 5481SOL    HW217014   5.490   7.364   6.194 -0.2331 -1.4589  0.8541
 5482SOL     OW17015   4.070   5.325   1.701 -0.2774 -0.2815 -0.3032
 5482SOL    HW117016   4.066   5.289   1.789  0.6051 -2.0627 -0.9438
 5482SOL    HW217017   4.154   5.372   1.698  0.4758 -1.6050 -0.6545
 5483SOL     OW17018   2.076   2.510   1.581  0.4391  0.1200  0.6000
 5483SOL    HW117019   2.109   2.512   1.671  3.2509  0.3720 -0.3459
 5483SOL    HW217020   2.151   2.536   1.528 -0.5110 -2.0847 -2.0106
 5484SOL     OW17021   4.512   3.960   1.519  0.0033  0.9592 -0.2497
 5484SOL    HW117022   4.555   4.041   1.493 -0.6408  0.9010 -1.5804
 5484SOL    HW217023   4.562   3.891   1.476 -0.5522  0.7977 -0.6578
 5485SOL     OW17024   7.110   4.247   7.282  0.5851  0.3111  0.6421
 5485SOL    HW117025   7.019   4.247   7.311  0.0271  0.2689 -1.0221
 5485SOL    HW217026   7.147   4.327   7.321  0.0636 -0.0514  1.9350
 5486SOL     OW17027   4.756   4.597   5.062 -0.3021 -0.2464 -0.0474
 5486SOL    HW117028   4.670   4.623   5.029 -0.7678  0.2240  1.4554
 5486SOL    HW217029   4.802   4.562   4.985 -1.4466  0.4676 -1.0902
 5487SOL     OW17030   1.384   5.463   0.074 -0.4326  0.1441 -0.9396
 5487SOL    HW117031   1.446   5.390   0.071 -0.4309 -0.0055  1.0404
 5487SOL    HW217032   1.298   5.422   0.078 -0.3882  0.1206  1.3724
 5488SOL     OW17033   5.304   6.686   6.065 -0.1376  0.3013  0.3083
 5488SOL    HW117034   5.213   6.658   6.078 -0.3721  0.5508 -0.6910
 5488SOL    HW217035   5.345   6.612   6.021 -0.4712  1.0503 -1.3294
 5489SOL     OW17036   6.233   6.039   7.343  0.0232  0.0411  0.1422
 5489SOL    HW117037   6.159   5.980   7.333  0.1777  0.0151 -0.8886
 5489SOL    HW217038   6.307   5.982   7.364  0.3210 -0.2235 -1.5385
 5490SOL     OW17039   4.863   3.475   3.187  0.1251  0.1902  0.3512
 5490SOL    HW117040   4.942   3.423   3.177  0.2826  0.6559 -1.0752
 5490SOL    HW217041   4.887   3.545   3.247  0.2186 -0.7605  1.4430
 5491SOL     OW17042   3.413   6.613   6.677  0.4237 -0.1471 -0.3937
 5491SOL    HW117043   3.409   6.523   6.645 -0.1668 -1.0132  1.8643
 5491SOL    HW217044   3.324   6.647   6.665  0.2892 -0.3566 -0.0103
 5492SOL     OW17045   1.868   5.927   4.674 -0.5761  0.1925  0.1282
 5492SOL    HW117046   1.936   5.994   4.681  1.3986 -1.5778 -0.8221
 5492SOL    HW217047   1.840   5.931   4.582 -0.0026 -0.6375 -0.0964
 5493SOL     OW17048   1.449   6.269   7.067  0.3336 -0.3235  0.0237
 5493SOL    HW117049   1.455   6.185   7.022  0.5828 -1.3621  1.8944
 5493SOL    HW217050   1.484   6.252   7.154 -0.6782  1.4470  0.8301
 5494SOL     OW17051   1.600   3.190   6.640  0.3565  0.3991 -0.8027
 5494SOL    HW117052   1.535   3.191   6.710  1.1928 -0.5108  0.0236
 5494SOL    HW217053   1.550   3.207   6.560 -0.6584  1.1975 -0.0284
 5495SOL     OW17054   5.193   0.939   3.044 -0.1530  0.4834 -0.2557
 5495SOL    HW117055   5.121   0.997   3.071 -0.2271  0.0641  0.4648
 5495SOL    HW217056   5.272   0.982   3.077 -0.0198  1.1677 -1.4253
 5496SOL     OW17057   3.625   4.433   4.977 -0.5439 -0.1929 -0.5371
 5496SOL    HW117058   3.575   4.478   4.907  1.7204  2.4194 -0.6313
 5496SOL    HW217059   3.670   4.504   5.022  2.5618 -2.3315 -0.0600
 5497SOL     OW17060   1.909   5.441   1.087  0.0846  0.0210  0.9104
 5497SOL    HW117061   1.852   5.390   1.144 -1.2576 -0.4477 -0.7650
 5497SOL    HW217062   1.880   5.532   1.098 -0.6430 -0.1526  0.4897
 5498SOL     OW17063   7.183   6.003   1.684  0.4001 -0.9468  0.3315
 5498SOL    HW117064   7.170   6.037   1.772 -0.1147 -0.5284  0.0980
 5498SOL    HW217065   7.143   6.069   1.626 -0.3933 -1.8177 -0.1459
 5499SOL     OW17066   0.043   3.134   3.107  0.5378 -0.4763  0.0200
 5499SOL    HW117067  -0.016   3.168   3.039  1.0751  1.5708  0.5132
 5499SOL    HW217068   0.119   3.192   3.104  1.8030 -2.0476  0.5277
 5500SOL     OW17069   4.414   7.239   4.633  0.3124 -0.7114 -0.6050
 5500SOL    HW117070   4.476   7.219   4.703  0.2079 -1.7238 -0.7969
 5500SOL    HW217071   4.409   7.335   4.633 -1.5773 -0.6804  2.4427
 5501SOL     OW17072   0.509   7.389   6.951 -0.0101 -0.0296 -0.0816
 5501SOL    HW117073   0.568   7.429   6.887  0.4087 -0.6587 -0.0999
 5501SOL    HW217074   0.567   7.344   7.013 -0.3174  1.9339  1.7325
 5502SOL     OW17075   2.977   0.831   2.725  0.0442  0.4874 -0.2380
 5502SOL    HW117076   2.895   0.781   2.726 -0.4698  1.2676 -1.3392
 5502SOL    HW217077   3.046   0.764   2.719 -0.6558 -0.1423 -2.4533
 5503SOL     OW17078   1.032   6.660   6.718 -0.0254  0.4497 -0.1628
 5503SOL    HW117079   0.957   6.649   6.659  0.1061 -1.5978 -0.0091
 5503SOL    HW217080   1.089   6.721   6.672 -1.1576  1.0014 -0.8991
 5504SOL     OW17081   4.939   5.737   1.001 -0.3128  0.9384 -0.2786
 5504SOL    HW117082   4.888   5.786   1.065 -0.7513  1.1137 -0.7507
 5504SOL    HW217083   4.956   5.799   0.931 -0.6256  0.5098 -0.7486
 5505SOL     OW17084   5.342   3.471   5.246  0.5548 -0.4481 -0.3024
 5505SOL    HW117085   5.410   3.422   5.292  1.2179 -0.3249 -1.1098
 5505SOL    HW217086   5.380   3.557   5.230  0.7425 -0.7795 -1.8914
 5506SOL     OW17087   5.140   2.830   1.051 -0.5083 -0.2071 -0.2298
 5506SOL    HW117088   5.187   2.907   1.020  0.6608 -0.6191  0.4569
 5506SOL    HW217089   5.056   2.863   1.082 -0.7686  0.5167 -1.6648
 5507SOL     OW17090   6.005   4.960   5.084  0.1182  0.4576 -0.8842
 5507SOL    HW117091   6.031   4.869   5.073 -1.8687 -0.1127 -1.2111
 5507SOL    HW217092   5.999   4.971   5.179  1.9180  0.7719 -0.7592
 5508SOL     OW17093   1.857   2.669   7.208 -0.1057  0.4242 -0.2421
 5508SOL    HW117094   1.952   2.679   7.207  0.1428 -1.6488 -0.4967
 5508SOL    HW217095   1.840   2.592   7.154 -2.0558  1.5144 -1.2675
 5509SOL     OW17096   6.920   2.080   6.604 -0.3624  0.1016  0.0238
 5509SOL    HW117097   6.977   2.153   6.582 -2.4284  1.2954 -1.8354
 5509SOL    HW217098   6.831   2.114   6.589 -1.4629 -2.3224  0.5600
 5510SOL     OW17099   0.061   2.561   2.525  0.2144 -0.0930 -0.2058
 5510SOL    HW117100   0.035   2.626   2.590  3.0497  2.6650 -1.5117
 5510SOL    HW217101   0.128   2.508   2.568 -0.8930 -1.0570  0.3505
 5511SOL     OW17102   6.205   4.069   2.124  0.0573  0.1410 -0.0139
 5511SOL    HW117103   6.221   4.023   2.042 -0.3239  0.8143 -0.4719
 5511SOL    HW217104   6.289   4.065   2.170  0.3163 -0.1109 -0.4966
 5512SOL     OW17105   6.487   6.742   1.513 -0.3541 -0.4773  0.0826
 5512SOL    HW117106   6.465   6.679   1.582  1.4219 -1.3038 -0.0448
 5512SOL    HW217107   6.435   6.819   1.534 -0.5044 -1.0095  1.8715
 5513SOL     OW17108   5.160   3.962   6.425 -0.2671 -0.4270 -0.0197
 5513SOL    HW117109   5.248   3.941   6.458 -0.5716 -1.2762  0.2882
 5513SOL    HW217110   5.121   3.876   6.407 -0.1348 -0.0360 -2.5752
 5514SOL     OW17111   6.952   3.940   7.161  0.0622  0.3138  0.4065
 5514SOL    HW117112   7.043   3.968   7.146  0.2529 -0.6271 -0.2729
 5514SOL    HW217113   6.955   3.890   7.242  0.2444 -0.0720  0.1690
 5515SOL     OW17114   6.738   6.919   3.378  0.3288  0.0972  0.1178
 5515SOL    HW117115   6.756   6.974   3.455  0.5906  1.3070 -0.7827
 5515SOL    HW217116   6.754   6.976   3.303 -2.7500 -0.0891 -0.8395
 5516SOL     OW17117   3.085   2.434   0.628 -0.0389 -0.3690  0.5789
 5516SOL    HW117118   3.038   2.508   0.589 -2.5126 -1.7003  0.8613
 5516SOL    HW217119   3.070   2.444   0.722  1.4634 -0.0803  0.8120
 5517SOL     OW17120   2.416   2.494   2.910  0.4749  0.4798  0.3191
 5517SOL    HW117121   2.363   2.513   2.987  1.0115  1.0462  0.5609
 5517SOL    HW217122   2.496   2.547   2.922 -0.0798  1.8049 -1.3545
 5518SOL     OW17123   6.469   1.026   2.605  0.5471 -0.0560  0.3273
 5518SOL    HW117124   6.427   1.017   2.519  0.3010 -2.2295  0.6439
 5518SOL    HW217125   6.554   1.068   2.585  0.4573 -0.4347 -0.9627
 5519SOL     OW17126   0.394   6.090   7.345  0.3696 -0.0655 -0.2962
 5519SOL    HW117127   0.371   6.093   7.252  2.6391  2.0984 -0.8951
 5519SOL    HW217128   0.312   6.112   7.390 -0.6460 -0.6309 -1.7937
 5520SOL     OW17129   3.300   2.437   0.439 -0.0780 -0.7320  0.5217
 5520SOL    HW117130   3.222   2.431   0.493  0.9243  1.3727  2.3920
 5520SOL    HW217131   3.352   2.360   0.463 -0.3031 -0.5975  1.4954
 5521SOL     OW17132   3.615   0.486   2.876  0.6971 -0.2387  0.0205
 5521SOL    HW117133   3.601   0.579   2.857 -0.1920 -0.4443 -0.4044
 5521SOL    HW217134   3.527   0.448   2.875  0.9318 -0.8748  1.3934
 5522SOL     OW17135   5.179   5.310   0.536  0.8414 -0.0939  0.5129
 5522SOL    HW117136   5.152   5.262   0.614 -0.8287  0.3868  0.2827
 5522SOL    HW217137   5.211   5.394   0.568  2.3926 -0.7737  0.8148
 5523SOL     OW17138   4.097   6.840   5.545 -0.4007  0.0895  0.0735
 5523SOL    HW117139   4.139   6.803   5.467 -0.4516 -0.8079  0.4644
 5523SOL    HW217140   4.079   6.764   5.601 -2.7180  0.3960 -0.1422
 5524SOL     OW17141   0.107   6.728   1.284 -0.0791  0.6332  0.0326
 5524SOL    HW117142   0.152   6.811   1.271  1.0263  0.0322 -0.0514
 5524SOL    HW217143   0.015   6.747   1.263 -0.2544  2.3366  2.0644
 5525SOL     OW17144   3.583   0.764   1.868  0.4908 -0.1557  0.0879
 5525SOL    HW117145   3.625   0.718   1.941  2.2824  0.2314 -0.6507
 5525SOL    HW217146   3.498   0.721   1.859  0.4503 -0.5777  2.0268
 5526SOL     OW17147   4.253   6.307   4.442 -0.1226 -0.5539  0.7327
 5526SOL    HW117148   4.201   6.311   4.363 -2.0819 -2.2250  1.8321
 5526SOL    HW217149   4.337   6.271   4.414 -0.6972 -0.8886 -0.6129
 5527SOL     OW17150   7.278   0.965   5.260 -0.0845  0.2649  0.0959
 5527SOL    HW117151   7.188   0.995   5.255 -0.7023 -1.0937  2.0407
 5527SOL    HW217152   7.319   1.024   5.324 -0.5245 -1.0923  1.7012
 5528SOL     OW17153   0.604   6.960   3.829 -0.2912 -0.0602 -0.2449
 5528SOL    HW117154   0.604   6.897   3.901 -0.4122  0.7536  0.4802
 5528SOL    HW217155   0.589   6.907   3.750  0.9145 -1.0963  0.1960
 5529SOL     OW17156   5.157   2.009   3.408 -0.3272  0.2410  0.4970
 5529SOL    HW117157   5.251   2.013   3.426 -0.3159  1.0503  0.3254
 5529SOL    HW217158   5.120   1.962   3.482  0.5017 -2.3559 -0.6438
 5530SOL     OW17159   6.520   4.586   5.582 -0.2778  0.6825  0.0503
 5530SOL    HW117160   6.560   4.519   5.637 -0.1750  0.3692 -0.3918
 5530SOL    HW217161   6.429   4.556   5.571 -0.3201  0.7865  0.1242
 5531SOL     OW17162   1.209   4.461   1.541  0.4495  0.4534  0.2818
 5531SOL    HW117163   1.238   4.443   1.452  1.4855  3.3837 -0.0804
 5531SOL    HW217164   1.133   4.404   1.554  0.3556 -0.1393 -2.4082
 5532SOL     OW17165   2.840   4.337   6.526 -0.0624 -0.2720 -0.4328
 5532SOL    HW117166   2.767   4.343   6.465 -0.3676 -2.1235 -0.2978
 5532SOL    HW217167   2.815   4.393   6.600 -1.3423 -0.8594 -0.4056
 5533SOL     OW17168   3.184   6.129   1.096  0.0282  0.0432  0.5882
 5533SOL    HW117169   3.243   6.176   1.037 -0.7400  1.6352  1.0267
 5533SOL    HW217170   3.121   6.195   1.124 -1.6241 -1.4643  0.5810
 5534SOL     OW17171   4.045   3.615   3.951 -0.0911 -0.6637  0.2808
 5534SOL    HW117172   4.061   3.533   3.903 -0.3396 -0.7713  0.3838
 5534SOL    HW217173   4.132   3.653   3.961 -0.2450  0.4777 -2.2243
 5535SOL     OW17174   2.678   0.936   4.556  0.5658 -0.4478  0.1659
 5535SOL    HW117175   2.640   0.990   4.487  1.1890 -0.6494 -0.3332
 5535SOL    HW217176   2.765   0.973   4.571  0.2355 -0.0590  1.2321
 5536SOL     OW17177   7.157   4.590   3.557 -0.8496  0.1410 -0.0839
 5536SOL    HW117178   7.102   4.514   3.536  0.5790 -0.8245 -0.4971
 5536SOL    HW217179   7.159   4.642   3.477 -0.5096 -0.2652 -0.3484
 5537SOL     OW17180   1.639   1.138   1.239 -0.6354 -0.5001  0.1231
 5537SOL    HW117181   1.601   1.158   1.325  1.7766  1.9844  0.7374
 5537SOL    HW217182   1.708   1.075   1.258  1.3384  1.6462  0.4503
 5538SOL     OW17183   4.108   1.358   4.264  0.1887  0.1951 -0.5198
 5538SOL    HW117184   4.014   1.348   4.277  0.2980 -0.9486 -0.5382
 5538SOL    HW217185   4.118   1.366   4.169  0.0367  1.2452 -0.4558
 5539SOL     OW17186   3.930   5.032   2.119  0.3826  0.0044 -0.5379
 5539SOL    HW117187   3.904   5.107   2.064 -0.5040 -0.0911 -0.2552
 5539SOL    HW217188   3.904   4.955   2.069 -0.5672 -0.0823  0.0653
 5540SOL     OW17189   5.634   0.649   6.153 -0.0707  0.5396 -0.1352
 5540SOL    HW117190   5.710   0.595   6.173 -0.7712 -0.7342 -0.7899
 5540SOL    HW217191   5.559   0.599   6.186 -0.7830  0.8164 -1.2530
 5541SOL     OW17192   2.880   2.277   3.212  0.4752  0.5157 -0.4971
 5541SOL    HW117193   2.839   2.341   3.154 -1.8967 -1.2194 -0.9010
 5541SOL    HW217194   2.942   2.230   3.156 -0.5315 -0.0009 -1.2047
 5542SOL     OW17195   6.033   1.271   5.800  0.1600 -0.0734  0.3310
 5542SOL    HW117196   5.975   1.203   5.766 -1.2893  1.0516  0.4473
 5542SOL    HW217197   6.080   1.303   5.722  0.8589 -1.1914  0.2807
 5543SOL     OW17198   2.549   5.457   6.278 -0.6065  0.4805  0.2537
 5543SOL    HW117199   2.517   5.416   6.197 -2.6320 -1.4136  1.8742
 5543SOL    HW217200   2.470   5.471   6.330  0.8357 -0.6014  2.8901
 5544SOL     OW17201   7.018   1.585   2.215 -0.3034  0.1586 -0.5177
 5544SOL    HW117202   7.104   1.628   2.212 -0.7838  1.0915 -1.5434
 5544SOL    HW217203   6.955   1.657   2.210 -1.1619 -0.5142  0.3028
 5545SOL     OW17204   0.475   4.804   0.799  0.4090 -0.1812  0.0101
 5545SOL    HW117205   0.498   4.717   0.768 -0.7731 -0.7063  0.5391
 5545SOL    HW217206   0.392   4.823   0.755 -0.3172 -0.1356  1.3461
 5546SOL     OW17207   6.463   2.714   1.133 -0.0140  0.2376  0.0026
 5546SOL    HW117208   6.378   2.672   1.136  0.3634 -0.5061  1.7510
 5546SOL    HW217209   6.457   2.785   1.197  0.8067 -0.1038  0.4720
 5547SOL     OW17210   0.378   6.460   7.259 -0.1011 -0.1452 -0.3099
 5547SOL    HW117211   0.378   6.543   7.211 -0.3410 -0.9590 -1.7822
 5547SOL    HW217212   0.299   6.415   7.229 -0.6010 -0.4432  1.3480
 5548SOL     OW17213   6.811   6.036   2.849 -0.6518 -0.3748 -0.0404
 5548SOL    HW117214   6.772   6.002   2.930 -0.8691 -0.5735 -0.2263
 5548SOL    HW217215   6.876   5.970   2.824 -2.3192 -1.6226 -1.3839
 5549SOL     OW17216   6.171   5.483   4.500  0.2792  0.4854 -0.2921
 5549SOL    HW117217   6.131   5.406   4.460 -0.4594  1.0162 -0.6067
 5549SOL    HW217218   6.264   5.476   4.480  0.0639  0.2355 -1.2544
 5550SOL     OW17219   0.291   4.069   1.801  0.2139  0.4172 -0.4306
 5550SOL    HW117220   0.196   4.057   1.802  0.4365 -1.8840 -0.8746
 5550SOL    HW217221   0.326   3.986   1.832  2.1091  0.8437 -1.2458
 5551SOL     OW17222   6.606   2.631   7.400 -0.7078  0.1429 -0.0883
 5551SOL    HW117223   6.583   2.583   7.320  1.0460  1.0952 -1.2326
 5551SOL    HW217224   6.527   2.679   7.423 -0.9073  0.7876 -1.9780
 5552SOL     OW17225   1.019   0.277   5.294  0.2276 -0.4317 -0.3591
 5552SOL    HW117226   1.004   0.193   5.251  2.3079 -2.4955  2.5691
 5552SOL    HW217227   1.110   0.298   5.274  1.0227 -1.0866  2.2037
 5553SOL     OW17228   0.241   1.937   4.041  0.0438 -0.7874 -0.4454
 5553SOL    HW117229   0.209   1.939   3.951 -1.2566  0.5761 -0.0057
 5553SOL    HW217230   0.172   1.981   4.092  0.9627 -1.0947  1.1418
 5554SOL     OW17231   4.949   6.354   6.900 -0.2154 -0.1769  0.1499
 5554SOL    HW117232   4.956   6.325   6.809 -0.5992 -1.2816  0.4692
 5554SOL    HW217233   5.005   6.432   6.904 -1.5493  0.9375 -1.4607
 5555SOL     OW17234   5.602   1.697   2.272 -0.1556  0.5339  0.0427
 5555SOL    HW117235   5.666   1.678   2.203 -0.3179 -2.0603  0.5272
 5555SOL    HW217236   5.558   1.777   2.242 -0.1875 -0.4479 -2.8608
 5556SOL     OW17237   0.718   1.735   5.386 -0.4594  0.4670 -0.7987
 5556SOL    HW117238   0.714   1.668   5.454  0.0782  2.4213  1.2860
 5556SOL    HW217239   0.628   1.763   5.374 -0.4960  0.4810 -0.4996
 5557SOL     OW17240   2.050   3.348   4.918 -0.2803 -0.6450 -0.4359
 5557SOL    HW117241   2.117   3.294   4.876  1.2234  0.9570 -0.1837
 5557SOL    HW217242   2.060   3.434   4.878 -2.1457 -0.3398 -0.3114
 5558SOL     OW17243   5.571   0.286   5.250 -0.3610 -0.2821 -0.3174
 5558SOL    HW117244   5.489   0.285   5.200 -0.1086  0.9474 -0.8062
 5558SOL    HW217245   5.610   0.371   5.229  0.3294 -0.2383  1.0672
 5559SOL     OW17246   5.437   2.471   1.660 -0.4424  0.1483 -0.1427
 5559SOL    HW117247   5.498   2.399   1.674  0.0987  0.4595 -0.8823
 5559SOL    HW217248   5.353   2.437   1.693 -0.3888 -1.1392 -1.2403
 5560SOL     OW17249   3.612   7.369   2.201  0.3535 -0.0039 -0.0515
 5560SOL    HW117250   3.647   7.415   2.125 -0.0838 -1.2821 -1.0877
 5560SOL    HW217251   3.658   7.285   2.201 -1.7584 -1.2555 -0.7599
 5561SOL     OW17252   0.768   4.269   3.141 -0.5473  0.1542 -0.2124
 5561SOL    HW117253   0.773   4.179   3.173  0.9854  0.2431 -0.1295
 5561SOL    HW217254   0.855   4.304   3.156 -0.7811  1.2849 -1.3714
 5562SOL     OW17255   4.938   2.457   0.740 -0.1233 -0.1097 -0.5799
 5562SOL    HW117256   4.987   2.496   0.813 -0.3098 -0.7947 -0.0741
 5562SOL    HW217257   4.992   2.382   0.713 -0.2384 -0.0753 -0.9077
 5563SOL     OW17258   2.361   5.335   1.360 -0.2740  0.2801  0.0886
 5563SOL    HW117259   2.287   5.336   1.299 -0.9359 -0.6720  0.8489
 5563SOL    HW217260   2.323   5.358   1.444  0.0539 -1.3657  0.7214
 5564SOL     OW17261   6.979   5.725   2.336 -0.2167  0.3132 -0.0389
 5564SOL    HW117262   6.903   5.761   2.380  0.4562  0.3477  1.1477
 5564SOL    HW217263   6.972   5.756   2.246 -1.8160 -0.0463 -0.0711
 5565SOL     OW17264   6.474   0.149   6.331  0.2605 -0.0789  0.2495
 5565SOL    HW117265   6.566   0.132   6.348  0.9507  2.1417 -0.8563
 5565SOL    HW217266   6.458   0.236   6.367 -0.9220  0.2928 -1.0519
 5566SOL     OW17267   5.022   5.289   7.188  0.6268 -0.0107 -0.8958
 5566SOL    HW117268   5.106   5.277   7.144  0.8005  0.7562 -0.7998
 5566SOL    HW217269   5.037   5.259   7.278  0.3619 -1.2805 -1.2552
 5567SOL     OW17270   0.117   3.005   2.631 -0.4103 -0.0203  0.0311
 5567SOL    HW117271   0.205   3.016   2.665  0.0709 -3.3878  0.2202
 5567SOL    HW217272   0.060   3.006   2.709 -0.2099 -0.2985  0.1835
 5568SOL     OW17273   2.297   6.672   5.556 -0.3384 -0.4408 -0.6176
 5568SOL    HW117274   2.218   6.725   5.547  0.7070  1.2556 -0.3298
 5568SOL    HW217275   2.326   6.687   5.646  0.7298 -0.4056 -0.9597
 5569SOL     OW17276   5.423   7.211   7.297  0.1752 -0.2388  0.2880
 5569SOL    HW117277   5.498   7.186   7.352 -1.4894 -0.4886  2.5850
 5569SOL    HW217278   5.452   7.193   7.207  3.2836  0.8316  0.9548
 5570SOL     OW17279   4.041   6.544   3.732 -0.1684 -0.4530  0.2840
 5570SOL    HW117280   3.950   6.569   3.748  0.0468  0.7310 -0.3151
 5570SOL    HW217281   4.036   6.453   3.703 -1.4130  0.3783 -2.3163
 5571SOL     OW17282   3.217   4.630   3.008 -0.2879  0.1855  0.0531
 5571SOL    HW117283   3.190   4.600   3.095  0.6298  1.6496  0.8810
 5571SOL    HW217284   3.272   4.559   2.975 -0.6715 -0.4046  0.6355
 5572SOL     OW17285   7.194   5.613   3.478  0.1233 -0.2347  0.6260
 5572SOL    HW117286   7.113   5.569   3.504 -0.4044 -0.1646 -0.8089
 5572SOL    HW217287   7.166   5.682   3.419  1.3245 -1.5834 -1.6673
 5573SOL     OW17288   5.344   2.534   4.911  0.1820  0.2678 -0.6176
 5573SOL    HW117289   5.403   2.569   4.844 -0.0009 -2.4205 -2.3539
 5573SOL    HW217290   5.261   2.520   4.865 -0.7796  0.7628  0.8909
 5574SOL     OW17291   6.189   6.365   4.833  0.6550 -0.3146  0.3263
 5574SOL    HW117292   6.186   6.271   4.853 -0.6627 -0.2580  0.4838
 5574SOL    HW217293   6.132   6.405   4.898  0.1111  0.4350 -0.5884
 5575SOL     OW17294   5.518   0.870   4.331  0.7084  0.5755  0.3458
 5575SOL    HW117295   5.523   0.928   4.407  1.8987  0.7502  0.1529
 5575SOL    HW217296   5.609   0.846   4.313  0.4353  0.4273 -0.9360
 5576SOL     OW17297   3.084   1.103   0.880  0.4652  0.5301  0.6414
 5576SOL    HW117298   3.061   1.020   0.840 -0.7497  1.7006 -1.2039
 5576SOL    HW217299   3.180   1.105   0.878  0.4692 -0.1623 -0.6960
 5577SOL     OW17300   5.479   1.710   0.197  0.2601 -0.0265 -0.5384
 5577SOL    HW117301   5.385   1.716   0.213  0.2863  0.0222 -0.4024
 5577SOL    HW217302   5.520   1.749   0.274  0.4650 -2.1464  0.4788
 5578SOL     OW17303   1.823   2.467   5.616 -0.7672  0.3732  0.3643
 5578SOL    HW117304   1.903   2.519   5.622 -0.9615  0.6576  0.4688
 5578SOL    HW217305   1.770   2.496   5.690 -1.3091  0.7566 -0.1712
 5579SOL     OW17306   2.475   3.412   2.826  0.2763  0.0015  0.2765
 5579SOL    HW117307   2.415   3.392   2.898  0.3527 -1.5299 -0.0643
 5579SOL    HW217308   2.426   3.388   2.747  1.1674 -0.8886 -0.0297
 5580SOL     OW17309   6.813   5.929   1.927  0.3443 -0.3321 -0.4726
 5580SOL    HW117310   6.775   6.011   1.896  0.5782 -0.2305 -0.4948
 5580SOL    HW217311   6.835   5.881   1.847  1.7513  0.2971 -0.5047
 5581SOL     OW17312   4.529   5.192   2.689 -0.5880  0.1605  0.5201
 5581SOL    HW117313   4.540   5.285   2.710  0.2342  0.2762 -0.3212
 5581SOL    HW217314   4.521   5.191   2.594  0.6687 -0.7210  0.4006
 5582SOL     OW17315   4.275   6.772   6.899  0.2112 -0.0260  0.0237
 5582SOL    HW117316   4.266   6.788   6.806  0.7388  0.6479  0.0901
 5582SOL    HW217317   4.203   6.821   6.939 -1.1386 -1.7320 -0.1385
 5583SOL     OW17318   6.474   2.838   6.725 -0.4578 -0.0215 -0.2378
 5583SOL    HW117319   6.566   2.860   6.742 -0.2785 -1.6086  1.1310
 5583SOL    HW217320   6.473   2.743   6.722 -2.1711 -0.0647  0.5666
 5584SOL     OW17321   5.241   5.719   0.354 -0.0715  0.2564 -0.0375
 5584SOL    HW117322   5.331   5.728   0.386 -0.9263  2.8718  2.0784
 5584SOL    HW217323   5.250   5.710   0.259  2.4287 -0.5376  0.2058
 5585SOL     OW17324   7.267   2.417   2.410 -0.4902  0.0830  0.1773
 5585SOL    HW117325   7.341   2.468   2.377 -1.5816  1.3845 -0.3584
 5585SOL    HW217326   7.228   2.473   2.478 -1.9984  0.1997 -0.7528
 5586SOL     OW17327   4.300   7.420   6.764  0.3843  0.5977  0.0676
 5586SOL    HW117328   4.274   7.391   6.852  1.7088  0.0404  0.2949
 5586SOL    HW217329   4.283   7.345   6.708 -1.0401  1.1555 -0.2940
 5587SOL     OW17330   1.221   2.361   2.693  0.0754 -0.1070  0.5807
 5587SOL    HW117331   1.212   2.266   2.687  0.9885 -0.1648 -0.1576
 5587SOL    HW217332   1.315   2.375   2.709  0.7675  0.7650 -3.2458
 5588SOL     OW17333   1.445   5.125   3.862  0.2183 -0.2281 -0.2860
 5588SOL    HW117334   1.470   5.055   3.802 -0.5774 -0.3266 -0.5159
 5588SOL    HW217335   1.465   5.090   3.949  1.5550 -0.0119 -0.4804
 5589SOL     OW17336   1.412   3.781   6.647  0.1491  0.2764 -0.2196
 5589SOL    HW117337   1.348   3.716   6.620  1.2254 -1.2714  0.7881
 5589SOL    HW217338   1.455   3.808   6.565  0.3157 -0.9913 -0.5680
 5590SOL     OW17339   3.316   2.892   1.289  0.2775  0.3467  0.2507
 5590SOL    HW117340   3.292   2.945   1.213  0.5629 -0.4535 -0.4168
 5590SOL    HW217341   3.263   2.926   1.360 -1.9334 -0.5195 -0.8714
 5591SOL     OW17342   2.935   3.097   5.008  0.0674  0.1711  0.2070
 5591SOL    HW117343   2.899   3.099   4.920  0.0292  1.2091  0.2312
 5591SOL    HW217344   2.859   3.079   5.064 -0.0734  0.4109  0.0973
 5592SOL     OW17345   6.000   3.535   6.171 -0.3578  0.2839  0.0719
 5592SOL    HW117346   5.996   3.566   6.080  0.2937  0.2419  0.0220
 5592SOL    HW217347   5.968   3.609   6.223 -2.3412 -0.2849 -0.2952
 5593SOL     OW17348   1.708   1.771   2.943  0.2938 -0.3609  0.1329
 5593SOL    HW117349   1.621   1.736   2.961  0.2628 -0.4086 -0.1036
 5593SOL    HW217350   1.761   1.743   3.018 -0.3735  1.4213  1.3399
 5594SOL     OW17351   0.366   0.776   4.722 -0.0964  0.6030 -0.3725
 5594SOL    HW117352   0.309   0.804   4.794 -0.3651  1.8183 -1.0284
 5594SOL    HW217353   0.419   0.853   4.703  1.1543 -0.2448 -0.3639
 5595SOL     OW17354   2.700   6.001   4.772  0.2592 -0.1006 -0.6335
 5595SOL    HW117355   2.758   5.948   4.717 -0.1983 -1.0345 -0.2299
 5595SOL    HW217356   2.656   6.060   4.710 -0.7526 -1.5904 -1.3981
 5596SOL     OW17357   7.275   3.535   3.713  0.3427 -0.2425  0.1801
 5596SOL    HW117358   7.266   3.462   3.773 -0.3206 -1.1036 -0.9166
 5596SOL    HW217359   7.269   3.495   3.626 -0.2424  1.1290 -0.4463
 5597SOL     OW17360   0.185   3.736   6.642  0.4595  0.4060 -0.4777
 5597SOL    HW117361   0.263   3.698   6.683  1.0231  1.2197 -0.7644
 5597SOL    HW217362   0.219   3.808   6.589 -0.4061  0.2252 -1.2971
 5598SOL     OW17363   5.502   2.521   0.644 -0.0418 -0.8125  0.4361
 5598SOL    HW117364   5.498   2.463   0.720  2.1065  0.7098  1.8313
 5598SOL    HW217365   5.591   2.555   0.644 -0.8212  1.4732 -1.0807
 5599SOL     OW17366   1.636   7.052   2.040 -0.2712  0.1474  0.2591
 5599SOL    HW117367   1.561   7.108   2.062 -0.6451  0.0514 -0.7525
 5599SOL    HW217368   1.668   7.021   2.125 -0.1410  1.7751  0.8235
 5600SOL     OW17369   3.996   0.995   3.447  0.2509 -0.3849  0.4561
 5600SOL    HW117370   3.914   1.038   3.425 -0.5126 -1.9696  0.0441
 5600SOL    HW217371   4.064   1.059   3.424 -0.6176 -0.6781 -3.7267
 5601SOL     OW17372   6.202   6.229   0.457  0.4057  0.1094 -1.0335
 5601SOL    HW117373   6.141   6.276   0.401 -0.0930 -0.5856 -1.0968
 5601SOL    HW217374   6.212   6.144   0.414 -1.3665 -1.1200  0.7927
 5602SOL     OW17375   1.712   1.757   0.391  0.2458 -0.1607  0.1067
 5602SOL    HW117376   1.790   1.771   0.445  0.4423  0.2913 -0.2870
 5602SOL    HW217377   1.745   1.755   0.301 -0.3260  1.2606 -0.1754
 5603SOL     OW17378   6.435   1.494   4.099  0.1291 -0.3884  0.7384
 5603SOL    HW117379   6.505   1.469   4.159  0.9848  3.6178  1.7128
 5603SOL    HW217380   6.480   1.523   4.020 -0.2121  2.5642  1.5010
 5604SOL     OW17381   0.935   5.167   2.933 -0.3156  0.2522  0.0220
 5604SOL    HW117382   0.910   5.075   2.945 -0.3443 -0.0374 -1.8655
 5604SOL    HW217383   0.855   5.216   2.950 -0.3210 -0.0640  0.9657
 5605SOL     OW17384   0.267   0.108   6.887  0.0944 -0.6200 -0.1634
 5605SOL    HW117385   0.279   0.202   6.898 -0.8430 -0.5332  0.1803
 5605SOL    HW217386   0.350   0.070   6.914  0.8270  0.1632 -1.2242
 5606SOL     OW17387   3.043   3.168   3.811  0.2010 -0.6360  0.0451
 5606SOL    HW117388   2.999   3.242   3.770  0.9387 -0.9818 -1.4293
 5606SOL    HW217389   2.977   3.099   3.815 -0.3766 -0.0596  1.0801
 5607SOL     OW17390   0.492   5.968   5.849  0.1367 -0.1399 -0.1338
 5607SOL    HW117391   0.557   5.900   5.833 -1.0893 -1.1791 -0.9562
 5607SOL    HW217392   0.422   5.924   5.897 -1.7553 -0.1548 -2.6854
 5608SOL     OW17393   6.879   2.300   0.933 -0.2092  0.0057  0.5784
 5608SOL    HW117394   6.925   2.364   0.988  2.1628 -0.8190 -0.3143
 5608SOL    HW217395   6.878   2.220   0.986 -3.3055  0.6818  1.7571
 5609SOL     OW17396   7.233   4.377   3.721  0.3672 -0.4324 -0.4435
 5609SOL    HW117397   7.317   4.386   3.766  0.2170  0.7002 -0.3483
 5609SOL    HW217398   7.236   4.441   3.650 -0.9686  0.7389  0.4780
 5610SOL     OW17399   6.698   2.404   7.016 -0.2601 -0.3480  0.6459
 5610SOL    HW117400   6.743   2.429   7.096  1.0153  2.1863 -0.7371
 5610SOL    HW217401   6.652   2.483   6.989  2.9699  0.5067 -3.3803
 5611SOL     OW17402   0.397   0.728   0.162 -0.1484  0.5540  0.1414
 5611SOL    HW117403   0.417   0.635   0.175  2.2512  1.0161  0.2569
 5611SOL    HW217404   0.353   0.731   0.077  0.8823 -0.5937 -0.4694
 5612SOL     OW17405   3.184   7.151   3.258  0.8286 -0.4627  0.5428
 5612SOL    HW117406   3.260   7.093   3.260  0.3669 -1.1067  0.0679
 5612SOL    HW217407   3.140   7.129   3.175  1.5258  1.7215 -0.4899
 5613SOL     OW17408   1.157   1.362   7.207  0.0442  0.4343  0.1398
 5613SOL    HW117409   1.106   1.315   7.142  0.8315 -2.6102  1.5590
 5613SOL    HW217410   1.124   1.331   7.291  0.6433  2.4592  1.1953
 5614SOL     OW17411   1.619   4.243   3.182  0.1434  0.3195 -0.1910
 5614SOL    HW117412   1.667   4.162   3.164 -0.8112  0.0625 -1.7701
 5614SOL    HW217413   1.675   4.312   3.148 -0.3835  0.0525 -1.6648
 5615SOL     OW17414   0.375   4.435   4.621 -0.6751  0.4087  0.3729
 5615SOL    HW117415   0.390   4.444   4.716 -0.9003 -0.2193  0.4708
 5615SOL    HW217416   0.281   4.445   4.611 -0.6071  0.8541  0.1661
 5616SOL     OW17417   0.015   0.676   2.049  0.1343 -0.5559 -0.1820
 5616SOL    HW117418  -0.005   0.688   2.142 -2.2624  1.2640 -0.8289
 5616SOL    HW217419  -0.046   0.608   2.020 -0.5984  0.3473 -0.8149
 5617SOL     OW17420   1.157   0.713   3.507 -0.3975 -0.0186  0.5611
 5617SOL    HW117421   1.138   0.650   3.437  0.4221 -0.0784  0.3856
 5617SOL    HW217422   1.151   0.662   3.587 -0.9992 -0.0293  0.5112
 5618SOL     OW17423   6.298   1.193   5.007 -0.1260  0.0177  0.2710
 5618SOL    HW117424   6.254   1.192   4.921 -1.4112  2.4745  0.7960
 5618SOL    HW217425   6.270   1.275   5.047  0.0908 -1.2391  3.2649
 5619SOL     OW17426   4.652   5.665   2.513 -0.0212 -0.1875 -0.3054
 5619SOL    HW117427   4.649   5.748   2.465 -0.3986 -0.2217 -0.3453
 5619SOL    HW217428   4.743   5.659   2.544  0.0961  0.0762 -0.5853
 5620SOL     OW17429   0.847   2.039   3.353 -0.3705 -0.2436 -0.3573
 5620SOL    HW117430   0.842   2.038   3.258  0.1617 -1.7261 -0.4047
 5620SOL    HW217431   0.911   1.970   3.374  0.5121  0.9241  1.0192
 5621SOL     OW17432   3.270   6.037   6.052 -0.3526 -0.4873  0.1414
 5621SOL    HW117433   3.194   6.075   6.097 -1.1662 -1.0397 -0.7211
 5621SOL    HW217434   3.313   5.985   6.119  0.7133  1.7829  1.3111
 5622SOL     OW17435   1.146   5.006   6.250 -0.0859  0.2899 -0.2714
 5622SOL    HW117436   1.167   4.953   6.327  0.3603  1.0942  0.1692
 5622SOL    HW217437   1.206   4.974   6.183 -0.9036 -0.8468 -0.4889
 5623SOL     OW17438   5.015   3.043   0.014  0.2109  0.1399  0.4611
 5623SOL    HW117439   5.008   3.129  -0.027  1.0115  0.1820  0.3953
 5623SOL    HW217440   5.095   3.049   0.067 -0.2687 -0.2351  1.2459
 5624SOL     OW17441   4.131   0.651   0.622  0.1269 -0.4947  0.3708
 5624SOL    HW117442   4.186   0.641   0.699 -0.8419 -0.4399  1.0843
 5624SOL    HW217443   4.043   0.627   0.652 -0.6485  1.4923 -0.1710
 5625SOL     OW17444   2.313   2.661   2.208 -0.0571  0.2223 -0.0396
 5625SOL    HW117445   2.323   2.661   2.303 -0.0725 -0.3157 -0.0336
 5625SOL    HW217446   2.219   2.666   2.193 -0.1522 -0.9935  0.0041
 5626SOL     OW17447   1.397   1.020   2.068  0.3376  0.1242 -0.1312
 5626SOL    HW117448   1.391   0.936   2.023  0.0529 -0.4233  0.8947
 5626SOL    HW217449   1.480   1.015   2.116  0.1591  0.2812  0.1979
 5627SOL     OW17450   6.773   1.866   0.366 -0.3214  0.0112  0.1446
 5627SOL    HW117451   6.800   1.826   0.449  0.6161  0.2855 -0.0212
 5627SOL    HW217452   6.837   1.935   0.350 -1.5226  1.1556  0.0856
 5628SOL     OW17453   4.121   6.563   1.190  0.2134  0.0753 -0.4570
 5628SOL    HW117454   4.141   6.526   1.276  1.6662  0.6618 -0.5177
 5628SOL    HW217455   4.136   6.492   1.128 -1.2816 -0.4883 -0.2235
 5629SOL     OW17456   0.762   0.085   1.089 -0.8173  0.0283 -0.0413
 5629SOL    HW117457   0.782   0.088   1.182  1.5049  1.0633 -0.5111
 5629SOL    HW217458   0.799   0.002   1.059 -0.3112  0.3420 -0.2897
 5630SOL     OW17459   6.686   5.175   3.138  0.4374  0.0653  0.3001
 5630SOL    HW117460   6.616   5.205   3.080 -0.0222 -0.1950  0.7184
 5630SOL    HW217461   6.753   5.142   3.079  0.3348  0.5799 -0.1155
 5631SOL     OW17462   2.711   5.000   2.991 -0.0142  0.0662 -0.4301
 5631SOL    HW117463   2.636   4.975   2.937 -0.5064 -1.8280  1.0445
 5631SOL    HW217464   2.684   4.981   3.081  2.3134 -0.9183  0.1299
 5632SOL     OW17465   6.134   3.517   2.463  0.1471 -0.2160  0.2680
 5632SOL    HW117466   6.119   3.488   2.553 -1.6508 -0.1411  0.0338
 5632SOL    HW217467   6.064   3.475   2.412  0.2808  0.8464 -0.8426
 5633SOL     OW17468   3.172   1.964   6.552  0.0121 -0.3214 -0.0410
 5633SOL    HW117469   3.202   1.920   6.632 -0.0665 -1.5383 -0.6520
 5633SOL    HW217470   3.174   1.895   6.485  1.5985  1.0329 -1.4763
 5634SOL     OW17471   3.645   6.407   1.860 -0.1328 -0.2871  0.6809
 5634SOL    HW117472   3.584   6.337   1.886  0.7894 -1.6256 -0.6401
 5634SOL    HW217473   3.665   6.389   1.768  1.5357  0.6706  0.8211
 5635SOL     OW17474   0.329   2.170   4.702 -0.0586  0.0037  0.0425
 5635SOL    HW117475   0.392   2.104   4.731 -0.9119 -0.9122 -0.1650
 5635SOL    HW217476   0.300   2.140   4.615 -1.5804 -0.1730  0.5834
 5636SOL     OW17477   1.316   4.047   1.450 -0.0334 -0.4101 -0.0669
 5636SOL    HW117478   1.235   4.044   1.501 -1.2086 -2.5791 -1.8793
 5636SOL    HW217479   1.376   3.990   1.497 -1.5259 -3.4352 -1.5859
 5637SOL     OW17480   2.334   4.581   3.103  0.3337 -0.0601  0.7680
 5637SOL    HW117481   2.297   4.669   3.098 -3.0444 -1.3693  0.0002
 5637SOL    HW217482   2.358   4.559   3.013  0.6813 -0.1128  0.8733
 5638SOL     OW17483   0.442   3.292   2.686  0.6389  0.1818  0.6730
 5638SOL    HW117484   0.388   3.260   2.758  1.4608  2.2633  2.2992
 5638SOL    HW217485   0.471   3.212   2.641 -1.3293 -1.0917  1.5312
 5639SOL     OW17486   4.613   4.289   6.653 -0.3456  0.4998 -0.5313
 5639SOL    HW117487   4.579   4.365   6.701 -1.3291 -1.1768  1.6256
 5639SOL    HW217488   4.628   4.223   6.720 -0.6556 -1.6278 -2.4258
 5640SOL     OW17489   6.230   4.416   5.012  0.1594 -0.1668  0.2852
 5640SOL    HW117490   6.152   4.466   4.989 -0.2073 -0.3778  1.0379
 5640SOL    HW217491   6.292   4.434   4.941 -0.6353 -0.1491 -0.4279
 5641SOL     OW17492   5.093   0.951   2.143 -0.2918 -0.3487  0.1406
 5641SOL    HW117493   5.146   0.916   2.215  0.9505 -0.1360 -0.6376
 5641SOL    HW217494   5.066   0.874   2.093 -1.1844 -0.4994  0.8340
 5642SOL     OW17495   4.406   6.849   5.558 -0.6133 -0.8875  0.4763
 5642SOL    HW117496   4.388   6.860   5.465  1.1039  1.6322  0.3578
 5642SOL    HW217497   4.330   6.888   5.602 -0.1029  0.5935  0.0793
 5643SOL     OW17498   4.291   3.683   6.275  0.5223 -0.0480  0.5552
 5643SOL    HW117499   4.226   3.656   6.209 -1.7761  0.2467  2.5680
 5643SOL    HW217500   4.339   3.754   6.233 -2.3611  1.6635 -0.1486
 5644SOL     OW17501   2.169   7.214   2.383 -0.3342 -0.0907  0.3660
 5644SOL    HW117502   2.197   7.131   2.423 -1.2731 -0.2095  0.8213
 5644SOL    HW217503   2.220   7.221   2.303 -0.0047 -0.9561  0.4864
 5645SOL     OW17504   2.516   0.214   4.594 -0.3003  0.2388  0.3482
 5645SOL    HW117505   2.559   0.133   4.620  1.4672  0.5603 -1.2887
 5645SOL    HW217506   2.546   0.279   4.658  0.6163  0.1645  0.0167
 5646SOL     OW17507   3.730   0.069   0.738 -0.5152 -0.1452 -0.1155
 5646SOL    HW117508   3.682   0.147   0.711 -0.3547  0.1929  0.5613
 5646SOL    HW217509   3.820   0.087   0.711  0.0895  1.1332  2.4529
 5647SOL     OW17510   4.225   1.556   0.415  0.7094  0.3207  0.0543
 5647SOL    HW117511   4.243   1.463   0.400  0.9793  0.4417 -0.3957
 5647SOL    HW217512   4.135   1.568   0.384  0.4183  0.0669  0.7683
 5648SOL     OW17513   3.716   5.660   6.778  0.1283  0.5649 -0.2887
 5648SOL    HW117514   3.708   5.755   6.773 -0.3531  0.6256  1.2436
 5648SOL    HW217515   3.810   5.643   6.783  0.2384  0.9162 -1.0481
 5649SOL     OW17516   5.713   0.225   4.012  0.4712  0.1198 -0.5569
 5649SOL    HW117517   5.675   0.305   3.976  0.2435 -0.4909 -1.7401
 5649SOL    HW217518   5.742   0.176   3.935 -0.3103 -1.3869  0.0678
 5650SOL     OW17519   5.205   1.351   2.001 -0.5486 -0.2672 -0.1965
 5650SOL    HW117520   5.124   1.334   1.952 -0.4675  0.4003 -0.5774
 5650SOL    HW217521   5.194   1.439   2.037 -0.2791 -0.4457  0.3417
 5651SOL     OW17522   6.384   4.738   4.263  0.1776  0.0878  0.1163
 5651SOL    HW117523   6.457   4.797   4.283 -0.2969 -0.0763  2.6643
 5651SOL    HW217524   6.306   4.791   4.282 -0.4345  0.1562 -2.2542
 5652SOL     OW17525   3.028   5.064   2.064  0.3712  0.3010  0.0875
 5652SOL    HW117526   3.049   5.071   2.158 -1.5307 -0.0024  0.5670
 5652SOL    HW217527   3.110   5.033   2.024  1.9835  2.7091  1.2439
 5653SOL     OW17528   0.718   2.043   1.177  0.1083  0.2468  0.1998
 5653SOL    HW117529   0.750   2.099   1.107  2.1240 -3.5775 -2.3435
 5653SOL    HW217530   0.786   2.047   1.244 -0.0161  1.1344  0.2850
 5654SOL     OW17531   3.987   2.608   5.046 -0.0030 -0.4599 -0.2177
 5654SOL    HW117532   4.074   2.644   5.063 -0.1748  0.1875 -0.6701
 5654SOL    HW217533   3.973   2.622   4.952 -1.2003  0.8483  0.1030
 5655SOL     OW17534   1.183   3.592   2.190  0.9461  0.3042  0.0155
 5655SOL    HW117535   1.226   3.649   2.126 -0.6103  3.6210  1.6826
 5655SOL    HW217536   1.256   3.549   2.235  2.2309  0.9775 -1.3239
 5656SOL     OW17537   4.409   1.530   3.601 -0.0784 -0.3955 -0.6033
 5656SOL    HW117538   4.399   1.459   3.665 -0.9275  0.3159  0.0800
 5656SOL    HW217539   4.475   1.588   3.640  0.0123 -0.3878 -0.7699
 5657SOL     OW17540   6.096   5.305   4.841  0.5105 -0.3626 -0.0917
 5657SOL    HW117541   6.011   5.260   4.847  0.6187 -0.4648  0.7023
 5657SOL    HW217542   6.129   5.308   4.931 -0.2311  2.7799  0.1833
 5658SOL     OW17543   4.054   6.953   1.770 -0.5552 -0.1162 -0.4654
 5658SOL    HW117544   4.007   6.890   1.716  1.7914 -2.4240 -0.0482
 5658SOL    HW217545   4.077   6.905   1.850  0.3315  1.6525  0.4308
 5659SOL     OW17546   4.457   6.201   5.358  0.0198 -0.2893 -0.0276
 5659SOL    HW117547   4.496   6.181   5.443 -2.6694 -0.1930  1.3314
 5659SOL    HW217548   4.491   6.288   5.335  0.0393  0.0999  1.4294
 5660SOL     OW17549   4.588   5.520   4.856  0.0499  0.2187  0.3817
 5660SOL    HW117550   4.613   5.431   4.880 -1.1605 -0.0242  0.7961
 5660SOL    HW217551   4.495   5.525   4.875 -0.1886  1.1584 -0.9102
 5661SOL     OW17552   2.977   6.334   1.209  0.2984  0.0031  0.0893
 5661SOL    HW117553   2.905   6.329   1.272  0.1308 -0.9744 -0.1635
 5661SOL    HW217554   3.055   6.341   1.264  0.1719 -1.0778  0.4332
 5662SOL     OW17555   4.487   3.740   5.984  0.0870 -0.3825  0.3384
 5662SOL    HW117556   4.557   3.802   5.966  1.1964 -2.3327 -3.0191
 5662SOL    HW217557   4.502   3.712   6.074  1.9120  1.2964  0.6049
 5663SOL     OW17558   6.193   1.462   4.704 -0.0924  0.3740  0.2896
 5663SOL    HW117559   6.189   1.368   4.722 -0.5974  0.2688 -0.3317
 5663SOL    HW217560   6.168   1.504   4.786 -0.5415 -0.0542  0.3741
 5664SOL     OW17561   6.798   4.456   4.234 -0.6166  0.2751  0.0772
 5664SOL    HW117562   6.880   4.444   4.187 -0.8699  1.0758 -0.6005
 5664SOL    HW217563   6.751   4.521   4.183 -1.2429  0.5798  1.0219
 5665SOL     OW17564   6.662   1.314   5.331 -0.3069  0.6724 -0.3348
 5665SOL    HW117565   6.568   1.299   5.337 -0.0968 -0.3927  0.6893
 5665SOL    HW217566   6.678   1.330   5.238 -1.5327  1.2105 -0.4725
 5666SOL     OW17567   4.398   2.608   1.800 -0.0407  0.0331  0.1016
 5666SOL    HW117568   4.329   2.541   1.800 -1.2079  1.1811 -0.5646
 5666SOL    HW217569   4.456   2.583   1.872  2.1028 -4.1796 -2.6640
 5667SOL     OW17570   0.533   5.271   2.013  0.1552 -0.4611 -0.2483
 5667SOL    HW117571   0.608   5.288   2.069  0.3909  2.0740 -1.2271
 5667SOL    HW217572   0.460   5.315   2.056 -0.2322 -0.7586 -0.5898
 5668SOL     OW17573   1.406   1.766   3.040  0.0647 -0.3178 -0.1517
 5668SOL    HW117574   1.439   1.844   2.995 -0.1040  0.6776  1.3758
 5668SOL    HW217575   1.337   1.799   3.097 -2.0411 -2.0249 -1.5844
 5669SOL     OW17576   6.888   1.412   6.745  0.4549 -0.3176 -0.2943
 5669SOL    HW117577   6.861   1.491   6.699  0.8474  0.4751  0.8053
 5669SOL    HW217578   6.836   1.342   6.704 -1.2224  0.7639 -0.0914
 5670SOL     OW17579   1.643   3.445   5.830  0.3876  0.0209  0.3943
 5670SOL    HW117580   1.586   3.522   5.824 -0.9886 -0.9682  0.1940
 5670SOL    HW217581   1.614   3.388   5.758  1.7365 -0.4639  0.2123
 5671SOL     OW17582   3.616   6.627   0.940 -0.3246  0.1440  0.4064
 5671SOL    HW117583   3.602   6.696   0.875 -2.2837 -1.2558 -0.7746
 5671SOL    HW217584   3.587   6.665   1.022  0.3076  1.3007  0.1136
 5672SOL     OW17585   5.781   6.061   3.603 -0.2673  0.0732 -0.7707
 5672SOL    HW117586   5.755   5.969   3.595 -0.3135 -0.0955  1.0195
 5672SOL    HW217587   5.862   6.059   3.654 -0.4266  1.0392 -0.4564
 5673SOL     OW17588   2.855   5.836   4.628  0.3733  0.0845  0.3225
 5673SOL    HW117589   2.853   5.740   4.637  2.2180  0.0573  0.8065
 5673SOL    HW217590   2.934   5.854   4.577 -1.6347  1.2209 -2.6442
 5674SOL     OW17591   7.148   1.426   4.881 -0.1273  0.3131 -0.3086
 5674SOL    HW117592   7.191   1.343   4.902  1.2319  0.9496 -0.5149
 5674SOL    HW217593   7.054   1.406   4.888  0.1638 -1.2778 -0.5315
 5675SOL     OW17594   6.582   2.350   0.254  0.4749 -0.1705  0.4465
 5675SOL    HW117595   6.526   2.282   0.217 -0.7955  0.4749  1.1281
 5675SOL    HW217596   6.670   2.311   0.256 -0.2799 -1.9090  1.1174
 5676SOL     OW17597   5.503   4.175   2.048 -0.0153 -0.0637 -0.3181
 5676SOL    HW117598   5.551   4.257   2.043 -1.0814  0.5825 -0.1315
 5676SOL    HW217599   5.568   4.108   2.026  0.1747  1.0314 -3.6778
 5677SOL     OW17600   2.002   0.497   2.028 -0.3963 -0.4527  0.0915
 5677SOL    HW117601   1.913   0.530   2.036 -1.0414 -1.7744 -1.2124
 5677SOL    HW217602   2.001   0.443   1.949  1.9509  0.6865 -0.8042
 5678SOL     OW17603   1.997   7.398   1.987 -0.3098  0.0372 -0.0309
 5678SOL    HW117604   1.939   7.474   1.996 -0.1632  0.3723 -1.5551
 5678SOL    HW217605   1.942   7.332   1.944 -0.6601 -1.0342  1.9360
 5679SOL     OW17606   5.298   6.812   1.070 -0.3696 -0.0531  0.4495
 5679SOL    HW117607   5.294   6.785   0.979 -0.8050 -3.4590  1.3400
 5679SOL    HW217608   5.227   6.876   1.079 -0.3193  0.3494 -1.5684
 5680SOL     OW17609   1.355   4.311   1.307  0.0915 -0.2366 -0.0545
 5680SOL    HW117610   1.326   4.230   1.350 -0.1960  0.4526  1.0965
 5680SOL    HW217611   1.426   4.284   1.250 -2.0735 -1.8432 -2.1996
 5681SOL     OW17612   5.713   1.788   5.442  0.6673 -0.3951  0.3988
 5681SOL    HW117613   5.642   1.734   5.406  1.2929 -0.2824 -1.1136
 5681SOL    HW217614   5.766   1.727   5.494  0.5929 -0.9456 -0.1569
 5682SOL     OW17615   0.856   1.471   6.581  0.4078  0.5832  0.1093
 5682SOL    HW117616   0.902   1.397   6.543  1.3174  1.6994 -1.0347
 5682SOL    HW217617   0.808   1.434   6.655  0.1028 -1.3045 -0.9763
 5683SOL     OW17618   6.570   5.155   1.522  0.1310 -0.4023  0.0951
 5683SOL    HW117619   6.527   5.113   1.448 -2.7024  2.3592 -0.0047
 5683SOL    HW217620   6.605   5.237   1.487  0.2488  0.1530  1.4448
 5684SOL     OW17621   3.875   0.128   2.217  0.2638 -0.4909  0.0687
 5684SOL    HW117622   3.951   0.185   2.223  2.2487 -2.8291 -0.8775
 5684SOL    HW217623   3.810   0.179   2.169  2.4453  0.5229 -2.0249
 5685SOL     OW17624   3.008   5.782   5.313 -0.2079  0.2352  0.1938
 5685SOL    HW117625   3.074   5.727   5.271 -0.7406 -0.7109  0.5632
 5685SOL    HW217626   3.028   5.870   5.282  0.1152 -0.2723 -1.1383
 5686SOL     OW17627   2.722   7.419   2.459  0.1957  0.1461  0.0662
 5686SOL    HW117628   2.775   7.346   2.429 -0.2342  0.1603 -0.7420
 5686SOL    HW217629   2.690   7.461   2.379  1.3511  1.9045  0.4810
 5687SOL     OW17630   2.052   5.893   1.613 -0.0241  0.1328 -0.4637
 5687SOL    HW117631   1.995   5.822   1.643  0.5806 -0.0669  0.2547
 5687SOL    HW217632   2.066   5.948   1.690  1.7563 -0.5224 -0.2564
 5688SOL     OW17633   2.690   0.703   4.743 -0.4330  0.1083  0.3833
 5688SOL    HW117634   2.682   0.767   4.673 -2.8173 -0.3498  0.1520
 5688SOL    HW217635   2.620   0.726   4.804 -0.4050 -1.3930  1.0216
 5689SOL     OW17636   1.632   1.993   0.718 -0.3758 -0.1892 -0.3056
 5689SOL    HW117637   1.570   1.960   0.784 -0.7414  0.5854 -0.2476
 5689SOL    HW217638   1.717   1.960   0.747  0.1147  3.0246  2.6916
 5690SOL     OW17639   0.003   3.331   4.348  0.4767 -0.0074 -0.1703
 5690SOL    HW117640  -0.079   3.376   4.369 -0.5471 -1.4040 -1.0007
 5690SOL    HW217641   0.066   3.402   4.336 -0.5157  1.0926  0.7857
 5691SOL     OW17642   4.291   1.344   1.272  0.5649 -0.2846  0.1271
 5691SOL    HW117643   4.339   1.354   1.189 -0.6975  1.1635 -0.4616
 5691SOL    HW217644   4.359   1.345   1.339  1.4500  0.6268 -0.7566
 5692SOL     OW17645   2.281   6.166   2.359  0.3132  0.6023  0.1113
 5692SOL    HW117646   2.208   6.144   2.301 -0.8722  0.5329  1.5759
 5692SOL    HW217647   2.240   6.210   2.434  1.9529  1.9984  0.2403
 5693SOL     OW17648   5.257   3.914   0.661 -0.0315  0.4155  0.5448
 5693SOL    HW117649   5.268   3.947   0.750  1.1498 -0.9405  0.9466
 5693SOL    HW217650   5.345   3.915   0.624 -0.4211  0.4170 -0.4075
 5694SOL     OW17651   1.357   0.859   2.827 -0.8764 -0.4529  0.5989
 5694SOL    HW117652   1.381   0.777   2.868  2.7882  0.0468 -0.2547
 5694SOL    HW217653   1.410   0.925   2.871 -0.7884  0.8576 -1.3321
 5695SOL     OW17654   0.204   2.524   5.496 -0.0132 -0.0934  0.5759
 5695SOL    HW117655   0.157   2.442   5.483 -1.1619  0.0192  3.2341
 5695SOL    HW217656   0.139   2.591   5.473  0.2201  0.0730  0.4023
 5696SOL     OW17657   3.319   2.350   6.017  0.1086 -0.4966  0.1851
 5696SOL    HW117658   3.260   2.297   5.963  0.9685  0.1392 -1.4396
 5696SOL    HW217659   3.388   2.289   6.042  0.4256 -0.4679 -0.5988
 5697SOL     OW17660   4.952   1.151   3.209  1.1328  0.1317 -0.8268
 5697SOL    HW117661   4.912   1.066   3.227 -0.8847  1.0815 -0.5453
 5697SOL    HW217662   4.907   1.184   3.131 -0.1035  2.0677  0.5952
 5698SOL     OW17663   0.932   4.819   1.492  0.3901 -0.4297 -0.1260
 5698SOL    HW117664   0.900   4.871   1.565  1.5794  2.1133 -1.2784
 5698SOL    HW217665   1.011   4.777   1.525 -1.2881 -2.7878  1.2256
 5699SOL     OW17666   0.104   5.454   1.876  0.4091 -0.0502 -0.4474
 5699SOL    HW117667   0.196   5.466   1.903  0.0897  0.6933  0.3913
 5699SOL    HW217668   0.081   5.538   1.836  0.2937 -0.4818 -1.2990
 5700SOL     OW17669   5.781   1.535   2.053 -0.0347  0.2856 -0.0662
 5700SOL    HW117670   5.692   1.533   2.017  0.4047 -0.3216 -1.1744
 5700SOL    HW217671   5.793   1.448   2.093  0.0612  0.3727  0.0975
 5701SOL     OW17672   7.377   4.717   0.297  0.2581 -0.6197  0.7162
 5701SOL    HW117673   7.470   4.722   0.320  0.1773  0.0744  0.9235
 5701SOL    HW217674   7.339   4.660   0.364  0.7200 -1.8065 -0.0072
 5702SOL     OW17675   4.570   3.115   5.383  0.0671  0.1762 -0.0016
 5702SOL    HW117676   4.666   3.117   5.379  0.2376  0.5149  2.6743
 5702SOL    HW217677   4.549   3.115   5.476 -2.5791  0.8665 -0.5018
 5703SOL     OW17678   2.419   3.373   0.302 -0.3920  0.2421  0.2244
 5703SOL    HW117679   2.386   3.386   0.213  0.2014  0.6554  0.0606
 5703SOL    HW217680   2.373   3.296   0.333  0.3251 -0.6723 -0.9019
 5704SOL     OW17681   6.108   0.257   1.463 -0.1771 -0.3677  0.3380
 5704SOL    HW117682   6.069   0.211   1.389  1.4654 -0.0451 -0.7934
 5704SOL    HW217683   6.069   0.344   1.460  1.0700  0.1815 -1.2122
 5705SOL     OW17684   3.560   5.433   0.759  0.1031 -0.1865  0.6679
 5705SOL    HW117685   3.592   5.496   0.824  0.0760  1.0483 -0.4578
 5705SOL    HW217686   3.639   5.401   0.715  0.1218 -1.0218  1.2884
 5706SOL     OW17687   2.120   5.619   5.215 -0.0542  0.2541 -0.2305
 5706SOL    HW117688   2.179   5.571   5.157 -1.9866 -0.8429 -1.3783
 5706SOL    HW217689   2.109   5.562   5.291 -1.5629 -0.7521 -1.1508
 5707SOL     OW17690   3.928   5.525   1.914 -0.0664  0.1076 -0.2538
 5707SOL    HW117691   3.937   5.620   1.907  0.8801 -0.0581 -1.9563
 5707SOL    HW217692   4.009   5.495   1.956 -0.3915  0.0489  0.3411
 5708SOL     OW17693   6.550   2.517   0.518 -0.1330 -0.1422  0.2803
 5708SOL    HW117694   6.531   2.456   0.447 -0.6072 -1.4555  1.4830
 5708SOL    HW217695   6.486   2.587   0.508  0.3505  0.1363 -1.0588
 5709SOL     OW17696   2.660   1.317   0.289  0.4635 -0.4818  0.1261
 5709SOL    HW117697   2.577   1.333   0.334 -1.1286 -3.7308 -1.3269
 5709SOL    HW217698   2.642   1.336   0.197  0.9744 -2.1428 -0.3477
 5710SOL     OW17699   4.762   2.999   1.689 -0.2638 -0.7483 -0.0428
 5710SOL    HW117700   4.725   3.083   1.717 -0.8297 -1.2823  0.8518
 5710SOL    HW217701   4.773   2.949   1.770  2.3147 -0.6934 -0.2783
 5711SOL     OW17702   5.204   6.004   0.006  0.5988 -0.1820 -0.0238
 5711SOL    HW117703   5.230   6.012  -0.086 -0.8119  0.9258 -0.3504
 5711SOL    HW217704   5.270   6.055   0.054  1.3561 -0.7864 -0.3859
 5712SOL     OW17705   6.890   4.705   3.891  0.6161 -0.4672 -0.1542
 5712SOL    HW117706   6.912   4.673   3.978 -0.8561  1.0012  0.8254
 5712SOL    HW217707   6.879   4.626   3.838 -0.7984 -1.5132  1.5997
 5713SOL     OW17708   2.913   0.288   2.342  0.2077  0.2088 -0.1851
 5713SOL    HW117709   2.920   0.241   2.425  1.1463  0.7596  0.0714
 5713SOL    HW217710   2.967   0.238   2.281  0.8964  0.7109 -0.0098
 5714SOL     OW17711   1.568   1.230   5.046 -0.3774 -0.4606 -0.2458
 5714SOL    HW117712   1.642   1.204   4.991  0.0154 -1.8176  0.8734
 5714SOL    HW217713   1.543   1.316   5.012  0.8781 -0.5380 -1.4819
 5715SOL     OW17714   0.295   0.628   3.656 -0.3027 -0.2002  0.0506
 5715SOL    HW117715   0.242   0.556   3.622  0.5305 -0.9698  0.3327
 5715SOL    HW217716   0.250   0.655   3.736 -0.9277 -0.0244 -0.3563
 5716SOL     OW17717   1.797   0.488   0.188 -0.6471  0.4666 -0.5173
 5716SOL    HW117718   1.786   0.396   0.212  1.7987 -0.1395 -1.4788
 5716SOL    HW217719   1.718   0.531   0.222 -1.3997 -1.7935  0.8009
 5717SOL     OW17720   4.365   1.421   2.432  0.3812  0.4615 -0.5531
 5717SOL    HW117721   4.429   1.440   2.500 -2.4363  1.1961  2.1552
 5717SOL    HW217722   4.349   1.326   2.440  0.5458  0.4273 -0.6416
 5718SOL     OW17723   5.675   5.899   7.212 -0.9416  0.2514  0.0989
 5718SOL    HW117724   5.725   5.847   7.150  1.6470 -0.5443  2.6533
 5718SOL    HW217725   5.615   5.836   7.253  0.7155 -0.3785  1.6897
 5719SOL     OW17726   6.350   1.242   7.149  0.5631  0.3879  0.4402
 5719SOL    HW117727   6.321   1.289   7.227  2.2063  0.1763  1.2267
 5719SOL    HW217728   6.385   1.159   7.183  2.9873  1.0353 -0.2510
 5720SOL     OW17729   0.226   0.424   5.432  0.2736  0.3019  0.4394
 5720SOL    HW117730   0.201   0.332   5.429  0.5511  0.2003  1.0356
 5720SOL    HW217731   0.252   0.445   5.342  0.8934 -0.3955  0.4495
 5721SOL     OW17732   3.970   0.369   5.591  0.0252  0.0706  0.7618
 5721SOL    HW117733   4.045   0.349   5.647  0.1466 -0.7551  0.3092
 5721SOL    HW217734   3.957   0.290   5.539  0.1461  0.9601 -0.6588
 5722SOL     OW17735   6.009   0.103   5.093 -0.1930 -0.0048  0.6086
 5722SOL    HW117736   5.941   0.163   5.062  0.7436  0.3377 -0.9026
 5722SOL    HW217737   6.090   0.155   5.089  0.3786 -0.8437  0.9729
 5723SOL     OW17738   4.135   0.332   1.671  0.4402  0.0613  0.2413
 5723SOL    HW117739   4.064   0.332   1.606  0.5677 -1.7924  0.0569
 5723SOL    HW217740   4.089   0.326   1.755  0.3169 -2.5363  0.0754
 5724SOL     OW17741   5.503   4.552   0.436  0.3180  0.7597  0.0002
 5724SOL    HW117742   5.517   4.540   0.530 -1.0955  0.4025  0.1854
 5724SOL    HW217743   5.509   4.646   0.422 -0.9106  0.9693  0.7198
 5725SOL     OW17744   2.592   0.038   0.703  0.1791 -0.8731  0.5552
 5725SOL    HW117745   2.547   0.101   0.647 -0.1136 -1.4351  0.1483
 5725SOL    HW217746   2.526  -0.030   0.719  0.3292 -0.8248  1.4013
 5726SOL     OW17747   5.424   1.354   3.049 -0.8094  0.0236 -0.4575
 5726SOL    HW117748   5.332   1.363   3.075 -0.5104 -0.4835  0.7996
 5726SOL    HW217749   5.456   1.445   3.043 -1.3957  0.2067 -0.9820
 5727SOL     OW17750   1.723   4.112   6.540 -1.0162  0.0210 -0.2659
 5727SOL    HW117751   1.717   4.049   6.611  1.9944  0.6020  0.6595
 5727SOL    HW217752   1.669   4.186   6.568  0.3789  0.3755  1.6472
 5728SOL     OW17753   3.827   1.892   7.167 -0.2250  0.1719 -0.8163
 5728SOL    HW117754   3.794   1.804   7.183  0.1692  0.2336  0.4444
 5728SOL    HW217755   3.803   1.941   7.246  0.4779  0.9211 -1.0500
 5729SOL     OW17756   2.180   0.716   3.875  0.4465 -0.4564 -0.2331
 5729SOL    HW117757   2.084   0.707   3.879  0.5825 -1.4196  1.0922
 5729SOL    HW217758   2.210   0.697   3.963  1.8078  0.9148 -0.3551
 5730SOL     OW17759   4.188   6.220   5.283  0.3230 -0.3731  0.9219
 5730SOL    HW117760   4.272   6.233   5.327 -0.5852 -0.9006  2.8920
 5730SOL    HW217761   4.209   6.167   5.207  1.9963  0.8469  0.4662
 5731SOL     OW17762   5.285   4.480   3.593  0.0378 -0.0344  0.5756
 5731SOL    HW117763   5.200   4.494   3.634 -0.8169  0.2365 -1.1603
 5731SOL    HW217764   5.265   4.472   3.499  2.0762  1.8401 -0.1233
 5732SOL     OW17765   2.726   0.114   2.771  0.0825  0.4349  0.2792
 5732SOL    HW117766   2.683   0.045   2.823  0.5310  0.4809  0.7253
 5732SOL    HW217767   2.704   0.093   2.681 -0.9552  0.5105  0.5024
 5733SOL     OW17768   2.598   1.410   2.599  0.6735  0.1588  0.0979
 5733SOL    HW117769   2.512   1.391   2.637  1.5926  1.0558  2.8895
 5733SOL    HW217770   2.651   1.334   2.623  1.1097  0.4357  0.0072
 5734SOL     OW17771   1.548   5.163   4.137  0.1065 -0.0035 -0.2207
 5734SOL    HW117772   1.576   5.107   4.210  0.2864  0.6094  0.1845
 5734SOL    HW217773   1.577   5.251   4.161  1.5260 -0.0131 -1.7443
 5735SOL     OW17774   6.999   2.855   6.683 -0.2773  0.0965  0.1817
 5735SOL    HW117775   7.047   2.773   6.669 -1.4741 -0.5890 -0.0082
 5735SOL    HW217776   7.051   2.921   6.638  3.0430  0.3103  3.7609
 5736SOL     OW17777   6.041   7.027   1.817 -0.8995 -0.3485 -0.4076
 5736SOL    HW117778   5.992   6.983   1.747 -0.1065 -0.3656 -0.9631
 5736SOL    HW217779   6.114   7.070   1.772  0.4760 -1.5875  0.5787
 5737SOL     OW17780   6.867   5.820   6.246 -0.1993  0.2924 -0.9845
 5737SOL    HW117781   6.793   5.824   6.184 -0.9668 -1.6350 -0.2703
 5737SOL    HW217782   6.853   5.739   6.294  0.4783  1.6283  1.6259
 5738SOL     OW17783   5.634   5.934   2.359  0.1391 -0.0094 -0.0838
 5738SOL    HW117784   5.662   5.990   2.431  0.9848 -0.0322 -0.3893
 5738SOL    HW217785   5.714   5.912   2.313 -0.5546  1.7182 -2.2900
 5739SOL     OW17786   2.075   4.467   2.277 -0.1164  0.3856 -0.9405
 5739SOL    HW117787   2.053   4.391   2.224 -0.9925  1.5390 -2.3279
 5739SOL    HW217788   2.039   4.448   2.364 -0.5013 -0.6730 -1.3218
 5740SOL     OW17789   5.042   7.050   6.572 -0.7949  0.2076  0.4314
 5740SOL    HW117790   4.964   7.071   6.520 -0.2657 -0.3656 -0.6197
 5740SOL    HW217791   5.055   6.956   6.559 -0.9658 -0.0804  2.0615
 5741SOL     OW17792   3.805   5.047   6.293  0.6467  0.0094 -0.0320
 5741SOL    HW117793   3.748   5.001   6.231 -0.0077 -0.8757  1.1838
 5741SOL    HW217794   3.745   5.101   6.345  1.4437  2.9687 -1.9112
 5742SOL     OW17795   2.745   2.766   6.264 -0.1478  0.0798  0.0778
 5742SOL    HW117796   2.691   2.818   6.323  0.0399  0.3421  0.0196
 5742SOL    HW217797   2.832   2.807   6.268 -0.0363 -0.1373 -0.0826
 5743SOL     OW17798   3.267   4.094   4.191 -0.2495  0.7840 -0.1174
 5743SOL    HW117799   3.341   4.057   4.144  1.0649  2.6215  0.4270
 5743SOL    HW217800   3.271   4.053   4.278 -2.6513 -2.5731 -1.3669
 5744SOL     OW17801   2.747   4.389   7.434 -0.0071  0.2414  0.5050
 5744SOL    HW117802   2.829   4.375   7.387 -1.2984  0.5280 -2.0088
 5744SOL    HW217803   2.682   4.405   7.366 -2.0808  0.5863  2.4141
 5745SOL     OW17804   0.278   3.043   0.045  0.0406  0.4108 -0.6956
 5745SOL    HW117805   0.312   3.094  -0.028 -1.8036  1.9266 -0.5758
 5745SOL    HW217806   0.186   3.070   0.053 -0.9648 -2.7037 -0.3885
 5746SOL     OW17807   6.000   3.936   3.309  0.3588  0.1043  0.3816
 5746SOL    HW117808   5.977   3.847   3.336  0.5561  0.3280  1.3142
 5746SOL    HW217809   5.933   3.960   3.244  1.3226 -1.3823 -1.2604
 5747SOL     OW17810   0.543   5.340   0.275 -0.2217  0.8657  0.0415
 5747SOL    HW117811   0.482   5.306   0.341  0.3897 -2.3903 -0.8850
 5747SOL    HW217812   0.515   5.299   0.193  2.7970 -0.3342 -0.5036
 5748SOL     OW17813   6.766   6.111   3.853  0.3569 -0.0611 -0.1296
 5748SOL    HW117814   6.734   6.195   3.884  0.9924 -0.4362  1.6608
 5748SOL    HW217815   6.693   6.074   3.803 -1.0048  0.2876  1.5474
 5749SOL     OW17816   1.872   4.328   4.491 -0.1210 -0.1088  0.3389
 5749SOL    HW117817   1.936   4.374   4.545  0.4800 -0.8225  0.2450
 5749SOL    HW217818   1.865   4.241   4.531 -1.3931  0.1081  0.6363
 5750SOL     OW17819   5.318   1.995   5.037 -0.1382 -0.5111  0.4434
 5750SOL    HW117820   5.338   1.960   4.950  1.2246  2.3041 -0.4985
 5750SOL    HW217821   5.290   2.085   5.020  1.1655  0.4633  2.9500
 5751SOL     OW17822   3.018   6.276   2.681  0.2427 -0.5911 -0.0520
 5751SOL    HW117823   3.020   6.193   2.727 -0.5335 -1.2387 -1.1285
 5751SOL    HW217824   2.954   6.263   2.611  1.2207  0.4059 -1.1810
 5752SOL     OW17825   5.309   6.672   2.200 -0.2392 -0.1568  0.6739
 5752SOL    HW117826   5.324   6.685   2.106  0.4412 -0.3791  0.7453
 5752SOL    HW217827   5.317   6.578   2.212  0.4854 -0.0480  1.0853
 5753SOL     OW17828   0.681   1.844   0.178  0.0927  0.0529 -0.3979
 5753SOL    HW117829   0.757   1.819   0.126 -0.1327  0.4069 -0.8968
 5753SOL    HW217830   0.714   1.912   0.237  0.1030  0.4106 -0.8087
 5754SOL     OW17831   1.641   0.265   2.935  0.2751 -0.4956 -0.6225
 5754SOL    HW117832   1.618   0.353   2.963 -0.6604 -1.2410  1.1128
 5754SOL    HW217833   1.731   0.253   2.964  0.9981  0.4443 -2.3665
 5755SOL     OW17834   6.203   5.764   6.604  0.7315  0.2262 -0.0032
 5755SOL    HW117835   6.144   5.828   6.564 -1.3226 -0.1922  2.1106
 5755SOL    HW217836   6.230   5.708   6.531 -1.7102  0.2981 -1.0808
 5756SOL     OW17837   2.987   4.659   2.697 -0.5003  0.0006  0.1990
 5756SOL    HW117838   2.897   4.652   2.664 -1.1436 -2.4925  2.1639
 5756SOL    HW217839   2.976   4.673   2.791  1.1998  0.6642  0.3210
 5757SOL     OW17840   5.464   5.957   3.312  0.1632  0.4659 -0.5033
 5757SOL    HW117841   5.491   5.958   3.403  2.0420  1.4783 -1.0274
 5757SOL    HW217842   5.471   6.048   3.283 -1.6915  0.3928 -1.3303
 5758SOL     OW17843   2.120   1.551   1.540  0.2455  0.1113 -0.5046
 5758SOL    HW117844   2.048   1.598   1.497 -0.6895  0.3768  1.2595
 5758SOL    HW217845   2.088   1.533   1.628  2.2219 -0.0937  0.2244
 5759SOL     OW17846   4.870   2.116   3.076 -0.1582 -0.1564  0.3367
 5759SOL    HW117847   4.957   2.077   3.072 -0.5848 -1.0652 -0.3662
 5759SOL    HW217848   4.814   2.057   3.025 -0.9598  1.0031 -0.1784
 5760SOL     OW17849   0.120   1.516   6.689 -0.7537 -0.5855 -0.2528
 5760SOL    HW117850   0.059   1.450   6.657 -1.6026  0.2190 -0.3241
 5760SOL    HW217851   0.198   1.504   6.634 -1.7382 -0.0204 -1.8702
 5761SOL     OW17852   0.868   7.157   5.470 -0.1648  0.2123 -0.0032
 5761SOL    HW117853   0.779   7.128   5.450 -0.2232  1.4331 -1.6589
 5761SOL    HW217854   0.914   7.158   5.386  1.2665  0.1541  0.7330
 5762SOL     OW17855   0.067   7.424   5.406  0.1269 -0.9431  0.7084
 5762SOL    HW117856   0.012   7.421   5.484  0.0788 -1.3407  0.6582
 5762SOL    HW217857   0.129   7.495   5.423 -1.4052  0.6032  0.0995
 5763SOL     OW17858   0.917   1.256   5.859 -0.2669 -0.4795  0.2458
 5763SOL    HW117859   0.903   1.299   5.943 -0.7566  1.1967 -0.6516
 5763SOL    HW217860   1.012   1.263   5.844 -0.5375  2.1104 -0.7549
 5764SOL     OW17861   3.249   3.369   1.929  0.2341 -0.2609  0.0483
 5764SOL    HW117862   3.202   3.425   1.868 -0.5731  1.3512  2.0277
 5764SOL    HW217863   3.191   3.363   2.005  2.6584  0.8384  2.1219
 5765SOL     OW17864   7.311   2.754   6.654 -0.2713  0.6973  0.9433
 5765SOL    HW117865   7.261   2.694   6.598 -1.2404  0.1804  2.3004
 5765SOL    HW217866   7.365   2.803   6.594 -0.6663 -0.4115 -0.3753
 5766SOL     OW17867   3.404   0.296   3.977  0.2973 -0.4589 -0.0659
 5766SOL    HW117868   3.447   0.370   3.933 -2.9708  1.1048 -0.9535
 5766SOL    HW217869   3.356   0.251   3.907 -1.6364 -0.4718  1.1979
 5767SOL     OW17870   4.905   3.598   2.580  0.1231 -0.5444 -0.2561
 5767SOL    HW117871   4.817   3.617   2.550 -0.8314 -1.3318  1.8247
 5767SOL    HW217872   4.916   3.651   2.659  0.7035 -1.9128  0.6417
 5768SOL     OW17873   7.366   2.752   6.275  0.1727 -0.2680 -0.4197
 5768SOL    HW117874   7.378   2.811   6.201 -1.4366 -0.7679 -1.1252
 5768SOL    HW217875   7.379   2.807   6.353 -0.0351  0.7106 -1.0664
 5769SOL     OW17876   0.022   4.412   2.283  0.3538  0.1244 -0.0921
 5769SOL    HW117877   0.013   4.494   2.331 -0.3105 -0.8960  1.6001
 5769SOL    HW217878  -0.036   4.422   2.207  0.8589  1.4834 -0.3268
 5770SOL     OW17879   5.587   3.828   7.298  0.1506 -0.5019  0.3499
 5770SOL    HW117880   5.640   3.799   7.224 -0.0532 -2.4144  0.9073
 5770SOL    HW217881   5.549   3.911   7.269  1.5972 -0.2329 -0.9281
 5771SOL     OW17882   3.006   7.217   5.747 -0.3572  0.1949  0.6383
 5771SOL    HW117883   2.939   7.278   5.718 -1.1782 -1.2236 -0.5387
 5771SOL    HW217884   2.986   7.202   5.840 -0.4635  1.2619  0.8056
 5772SOL     OW17885   2.663   2.094   1.798  0.0194  0.1954  0.4639
 5772SOL    HW117886   2.644   2.091   1.892 -0.7552 -2.1901  0.2820
 5772SOL    HW217887   2.584   2.061   1.756  0.8576 -0.0905 -0.9490
 5773SOL     OW17888   5.827   0.447   6.238 -0.0767 -0.4176 -0.0744
 5773SOL    HW117889   5.892   0.393   6.194 -0.3351 -0.2461 -0.6699
 5773SOL    HW217890   5.874   0.484   6.313  0.0108 -1.7252  0.5480
 5774SOL     OW17891   3.973   5.450   5.715  0.0359 -0.0694 -0.1239
 5774SOL    HW117892   3.983   5.424   5.623  0.2194  2.0433 -0.7475
 5774SOL    HW217893   4.045   5.511   5.730 -0.5468  0.3248  1.1542
 5775SOL     OW17894   6.540   0.513   6.651  0.7961 -0.0343 -0.0870
 5775SOL    HW117895   6.455   0.555   6.648  0.1762 -1.1920  0.4855
 5775SOL    HW217896   6.575   0.521   6.563  1.3858  2.9526  0.3162
 5776SOL     OW17897   3.616   6.813   4.084  0.1194  0.5879  0.5478
 5776SOL    HW117898   3.627   6.766   4.167 -1.0229  0.0174  0.3946
 5776SOL    HW217899   3.704   6.816   4.046  0.1832 -1.8149  0.3737
 5777SOL     OW17900   1.049   0.330   3.282  0.0184  0.3155 -0.0629
 5777SOL    HW117901   1.112   0.351   3.212  1.3807 -2.4114  0.2144
 5777SOL    HW217902   1.100   0.281   3.346 -2.2584 -1.5402  0.4682
 5778SOL     OW17903   6.318   6.135   5.109 -0.5390 -0.0843 -0.3222
 5778SOL    HW117904   6.388   6.186   5.068  2.3403 -1.4746  2.4035
 5778SOL    HW217905   6.324   6.049   5.067 -3.6200  0.8240 -3.0323
 5779SOL     OW17906   0.440   7.342   4.491 -0.3334  0.3890 -0.2140
 5779SOL    HW117907   0.423   7.387   4.574 -0.5411  0.1982 -0.1507
 5779SOL    HW217908   0.527   7.371   4.465  0.5966 -1.1150  1.0904
 5780SOL     OW17909   1.257   3.962   1.012 -0.2906  0.4084 -0.0562
 5780SOL    HW117910   1.179   3.928   1.055 -0.6766 -0.2962 -1.2474
 5780SOL    HW217911   1.330   3.913   1.050 -0.7486 -1.1186 -1.0789
 5781SOL     OW17912   0.871   4.586   2.349 -0.1703  0.1698  0.1140
 5781SOL    HW117913   0.950   4.532   2.349  0.3510  0.8472  2.1216
 5781SOL    HW217914   0.880   4.640   2.270 -1.1298 -3.1155 -2.4441
 5782SOL     OW17915   4.248   3.851   3.335 -0.8139 -0.0954 -0.3104
 5782SOL    HW117916   4.200   3.926   3.301 -1.3994  0.0692  0.8274
 5782SOL    HW217917   4.215   3.777   3.285 -1.0219  0.2525 -0.6923
 5783SOL     OW17918   3.401   1.906   2.159  0.5448 -0.0577 -0.0824
 5783SOL    HW117919   3.411   1.818   2.123  0.5368  0.4371 -1.3162
 5783SOL    HW217920   3.454   1.962   2.103 -1.2983  1.0839 -0.7705
 5784SOL     OW17921   4.969   6.884   2.383 -0.6098  0.0767  0.9327
 5784SOL    HW117922   5.004   6.948   2.446 -0.9264 -0.5642  1.7777
 5784SOL    HW217923   4.904   6.835   2.433 -2.8132  1.2740 -0.6337
 5785SOL     OW17924   0.660   0.071   4.728 -0.5188 -0.3546  0.1941
 5785SOL    HW117925   0.588   0.070   4.791  0.2300  1.7254  1.1773
 5785SOL    HW217926   0.734   0.106   4.776  0.3872  0.2600 -1.5432
 5786SOL     OW17927   3.709   7.078   4.970 -0.4328  0.0022  0.0166
 5786SOL    HW117928   3.683   6.999   4.921 -2.2490 -0.9073  2.2957
 5786SOL    HW217929   3.731   7.141   4.902 -0.5966 -1.9014 -1.9368
 5787SOL     OW17930   1.257   0.549   1.691  0.0029  0.3321 -0.3333
 5787SOL    HW117931   1.216   0.586   1.613 -0.4309 -2.3960 -1.5177
 5787SOL    HW217932   1.201   0.575   1.763 -1.3757  0.3084 -1.3619
 5788SOL     OW17933   7.277   5.394   6.652 -0.2652  0.2144  0.3881
 5788SOL    HW117934   7.372   5.399   6.641 -0.3535 -0.9586 -1.1758
 5788SOL    HW217935   7.256   5.466   6.711  1.7870 -0.5148  2.1132
 5789SOL     OW17936   5.802   2.366   6.071  0.2080 -0.6157  0.0771
 5789SOL    HW117937   5.863   2.390   6.002  0.6113  1.7360  1.1477
 5789SOL    HW217938   5.856   2.362   6.150 -0.8828  1.0230  0.9634
 5790SOL     OW17939   2.655   4.621   5.692 -0.2951  0.0550 -0.6038
 5790SOL    HW117940   2.600   4.633   5.615  1.0410 -0.0643 -1.6126
 5790SOL    HW217941   2.739   4.661   5.668  0.7474 -1.6278  0.0853
 5791SOL     OW17942   3.482   2.338   5.508 -0.2344  0.0608 -0.8121
 5791SOL    HW117943   3.455   2.290   5.430  2.3849 -1.7758 -0.7228
 5791SOL    HW217944   3.477   2.274   5.579 -0.7442  1.1703  0.2028
 5792SOL     OW17945   5.931   6.422   3.595 -0.4372 -0.1222  0.4584
 5792SOL    HW117946   5.922   6.472   3.514  1.0389 -0.3660  0.1160
 5792SOL    HW217947   6.023   6.429   3.618 -0.7567 -0.3639  1.9345
 5793SOL     OW17948   0.708   0.736   1.243 -0.1495  0.8697  0.3030
 5793SOL    HW117949   0.627   0.786   1.240  0.4806  1.8985 -0.4929
 5793SOL    HW217950   0.765   0.786   1.301  0.2137  0.6417  0.1472
 5794SOL     OW17951   1.900   5.791   1.109  0.0933 -0.3257 -0.0599
 5794SOL    HW117952   1.808   5.773   1.124  0.3509 -1.5784  0.1174
 5794SOL    HW217953   1.916   5.764   1.019 -0.0984  1.6109 -0.7344
 5795SOL     OW17954   2.957   7.035   3.092  0.1553 -0.0295  0.2735
 5795SOL    HW117955   3.028   7.062   3.033 -0.1001 -0.2673 -0.1547
 5795SOL    HW217956   2.882   7.023   3.034 -0.0373 -0.5083  0.6160
 5796SOL     OW17957   0.519   3.531   4.130 -0.0401  0.1083 -0.5540
 5796SOL    HW117958   0.609   3.539   4.099 -0.0448  1.0255 -0.3605
 5796SOL    HW217959   0.492   3.621   4.150 -1.6024  0.1144 -2.3401
 5797SOL     OW17960   2.272   0.582   7.012 -0.2565 -0.0531 -0.2928
 5797SOL    HW117961   2.366   0.602   7.012 -0.1359 -0.6004 -0.4335
 5797SOL    HW217962   2.265   0.504   6.957 -0.4505 -1.6363  1.8470
 5798SOL     OW17963   4.686   4.475   6.442  0.4841 -0.5026  0.1471
 5798SOL    HW117964   4.666   4.396   6.392  1.0415  0.9942 -2.6285
 5798SOL    HW217965   4.600   4.516   6.458  0.3461 -0.6820 -0.1297
 5799SOL     OW17966   4.734   2.005   7.410  0.2296  0.3116  0.2399
 5799SOL    HW117967   4.673   2.059   7.360 -1.3883  0.1046  1.8837
 5799SOL    HW217968   4.697   2.004   7.499  1.3861 -1.7395  0.7485
 5800SOL     OW17969   1.116   2.276   1.314 -0.4735 -0.3013  0.1069
 5800SOL    HW117970   1.197   2.283   1.263 -1.2246 -1.1049 -1.2425
 5800SOL    HW217971   1.136   2.321   1.396  1.5011 -0.8962  0.0044
 5801SOL     OW17972   4.116   2.258   5.522  0.5760  0.1162  0.2561
 5801SOL    HW117973   4.039   2.257   5.465  0.4476  1.5941  0.3497
 5801SOL    HW217974   4.189   2.276   5.462  0.9979 -1.9990  0.0569
 5802SOL     OW17975   2.104   5.383   4.291  0.3288  0.4160  0.0061
 5802SOL    HW117976   2.192   5.380   4.329  1.2781  0.1796 -2.0644
 5802SOL    HW217977   2.052   5.325   4.347  0.9157  2.1217  2.4957
 5803SOL     OW17978   1.662   1.122   4.198  0.1051  0.2087 -0.2756
 5803SOL    HW117979   1.737   1.169   4.234 -0.1055  0.6983 -0.4723
 5803SOL    HW217980   1.626   1.074   4.273  1.1629 -0.7753 -0.3796
 5804SOL     OW17981   4.644   7.088   4.790 -0.0377  0.0500 -0.3204
 5804SOL    HW117982   4.624   7.066   4.881  1.2026 -0.1137 -0.0688
 5804SOL    HW217983   4.574   7.046   4.740 -1.1560  0.7504  0.5873
 5805SOL     OW17984   6.690   0.142   4.264 -0.3546 -0.0146 -0.3917
 5805SOL    HW117985   6.785   0.141   4.250 -0.4181  1.0471 -1.0106
 5805SOL    HW217986   6.654   0.170   4.180 -1.2913 -1.3517 -0.4668
 5806SOL     OW17987   3.714   4.383   0.418 -0.3086  1.2312  0.3059
 5806SOL    HW117988   3.761   4.396   0.500 -0.1591  1.0621  0.2479
 5806SOL    HW217989   3.646   4.450   0.418 -0.1092  1.4345  0.4218
 5807SOL     OW17990   7.373   5.331   7.051 -0.1201 -0.0216  0.7001
 5807SOL    HW117991   7.421   5.383   6.987  0.1404 -0.8632  0.1935
 5807SOL    HW217992   7.295   5.383   7.071  0.2471  0.6603  0.3833
 5808SOL     OW17993   1.019   6.067   6.764 -0.3149  0.5097 -0.2441
 5808SOL    HW117994   1.025   5.979   6.800 -0.7177  1.1113  1.3798
 5808SOL    HW217995   0.994   6.122   6.838  0.6677  2.1247 -1.0542
 5809SOL     OW17996   5.535   6.470   1.852 -0.1981 -0.1751 -0.1983
 5809SOL    HW117997   5.601   6.471   1.782  0.7191 -1.4513  0.6011
 5809SOL    HW217998   5.586   6.454   1.932 -1.1454  1.7944  0.8757
 5810SOL     OW17999   6.570   6.818   1.814 -0.1747  0.8932  0.1282
 5810SOL    HW118000   6.651   6.824   1.763 -0.3952  0.6297 -0.2631
 5810SOL    HW218001   6.528   6.738   1.782  0.2654  0.0402  1.6146
 5811SOL     OW18002   5.904   3.566   2.056  0.1714 -0.1126  0.0568
 5811SOL    HW118003   5.941   3.513   1.986  1.6244  1.2788 -0.3109
 5811SOL    HW218004   5.965   3.640   2.064 -2.3652  2.1564 -0.2894
 5812SOL     OW18005   2.325   5.787   6.002  0.2096 -0.0204 -0.2214
 5812SOL    HW118006   2.344   5.846   6.076  2.7206 -0.9212 -0.0756
 5812SOL    HW218007   2.384   5.816   5.933 -1.0903 -0.1326 -1.4125
 5813SOL     OW18008   3.968   3.531   2.749  0.3174  0.1828  0.0034
 5813SOL    HW118009   3.976   3.450   2.800 -1.2356  0.3852  0.6013
 5813SOL    HW218010   3.874   3.545   2.740  0.5558  1.9583 -0.0294
 5814SOL     OW18011   1.230   4.924   7.334 -0.6622  0.5421 -0.0751
 5814SOL    HW118012   1.218   4.830   7.325 -0.5636  0.4818  0.3675
 5814SOL    HW218013   1.148   4.955   7.371 -1.9504  1.1206 -3.1362
 5815SOL     OW18014   5.523   0.965   6.077  0.4214 -0.3789  0.4274
 5815SOL    HW118015   5.490   0.878   6.099  0.7059 -0.1557  1.8737
 5815SOL    HW218016   5.522   0.968   5.981 -0.2448 -1.7090  0.3673
 5816SOL     OW18017   3.862   2.777   5.799 -0.2910  0.3250  0.6829
 5816SOL    HW118018   3.920   2.756   5.726  0.3327 -0.8650  1.4847
 5816SOL    HW218019   3.915   2.834   5.856 -0.6538  0.9653  0.3881
 5817SOL     OW18020   1.696   6.834   2.402  0.0482 -0.0164  0.2432
 5817SOL    HW118021   1.765   6.871   2.458  1.5118 -1.3202 -0.6149
 5817SOL    HW218022   1.729   6.747   2.379 -1.5341 -0.3530 -0.8732
 5818SOL     OW18023   1.165   0.644   5.259  0.1612  0.0431  0.2710
 5818SOL    HW118024   1.252   0.612   5.234 -0.3659 -1.0188 -0.2604
 5818SOL    HW218025   1.135   0.694   5.183 -0.2408 -0.7433 -0.1034
 5819SOL     OW18026   6.890   0.806   7.230 -0.1470 -0.4723  0.3682
 5819SOL    HW118027   6.900   0.900   7.247 -0.3012 -0.3063 -0.4079
 5819SOL    HW218028   6.945   0.764   7.295 -0.3643  0.1465  0.9590
 5820SOL     OW18029   1.140   2.696   6.584 -0.0850  0.3350 -0.5632
 5820SOL    HW118030   1.198   2.683   6.660  0.0290  0.0238 -0.6977
 5820SOL    HW218031   1.200   2.715   6.512 -0.0732 -0.7659 -0.8762
 5821SOL     OW18032   2.326   2.631   1.495 -0.4547  0.2527 -0.2965
 5821SOL    HW118033   2.365   2.602   1.412 -2.2908 -0.7162 -0.8749
 5821SOL    HW218034   2.277   2.711   1.472 -0.6791  0.1830 -0.0701
 5822SOL     OW18035   1.537   2.186   2.366 -0.1776 -0.0172 -0.6174
 5822SOL    HW118036   1.577   2.240   2.298 -2.1132  1.3553 -0.7528
 5822SOL    HW218037   1.453   2.228   2.383  0.0359 -0.5634  2.3114
 5823SOL     OW18038   6.606   5.294   0.664  0.5704 -0.0374  0.4808
 5823SOL    HW118039   6.569   5.206   0.654 -0.3763  0.1318  2.1091
 5823SOL    HW218040   6.531   5.348   0.687  1.6704  0.4664  3.2075
 5824SOL     OW18041   1.500   1.298   3.376  0.3225  0.1665 -0.0332
 5824SOL    HW118042   1.470   1.388   3.362 -0.5334  0.0242  0.8288
 5824SOL    HW218043   1.556   1.303   3.454  0.9141  0.0737 -0.4405
 5825SOL     OW18044   5.215   6.115   2.784  0.3175 -0.2040 -0.3044
 5825SOL    HW118045   5.140   6.173   2.770  1.1950  0.7202 -1.3789
 5825SOL    HW218046   5.215   6.099   2.878  0.9699  2.9444  0.3581
 5826SOL     OW18047   2.847   1.087   1.034  0.6695 -0.3130 -0.1018
 5826SOL    HW118048   2.804   1.117   0.954  0.2293 -0.7448 -0.0304
 5826SOL    HW218049   2.938   1.116   1.025  0.0743  1.8138  0.3638
 5827SOL     OW18050   1.444   6.172   4.991  0.0778 -0.3744  0.8604
 5827SOL    HW118051   1.380   6.240   4.968  1.0422  0.3013  0.0602
 5827SOL    HW218052   1.393   6.106   5.038 -0.8637  0.9661  1.7871
 5828SOL     OW18053   5.601   0.648   2.384  0.2239 -0.2460 -0.2118
 5828SOL    HW118054   5.541   0.653   2.310  0.1167  1.3819 -0.0684
 5828SOL    HW218055   5.567   0.713   2.446  0.4469 -1.3886  1.1716
 5829SOL     OW18056   6.540   4.099   1.488 -0.1062 -0.1056 -0.4678
 5829SOL    HW118057   6.469   4.063   1.541  1.3641 -0.4058  1.4489
 5829SOL    HW218058   6.499   4.166   1.434 -1.8822 -0.4487  0.3843
 5830SOL     OW18059   5.205   2.457   1.829  0.3780 -0.0260 -0.3346
 5830SOL    HW118060   5.166   2.505   1.902  0.0094 -2.7938  1.4376
 5830SOL    HW218061   5.277   2.407   1.869 -0.4900 -2.4317 -1.5876
 5831SOL     OW18062   3.548   6.674   6.187  0.0797  0.5050  0.1231
 5831SOL    HW118063   3.607   6.748   6.196  1.2024 -0.4777  1.2054
 5831SOL    HW218064   3.550   6.631   6.273 -0.9407 -0.4879 -0.3186
 5832SOL     OW18065   5.555   0.384   6.152 -0.0372  0.6919 -0.0377
 5832SOL    HW118066   5.504   0.344   6.222 -0.4551 -0.0469 -0.7493
 5832SOL    HW218067   5.645   0.383   6.185 -0.2434  0.4379  0.5301
 5833SOL     OW18068   4.629   4.685   2.393 -0.2610 -0.8690 -0.0872
 5833SOL    HW118069   4.689   4.694   2.467 -0.9544 -0.7607  0.4754
 5833SOL    HW218070   4.541   4.687   2.433 -0.8219  2.4890 -1.1557
 5834SOL     OW18071   4.586   3.146   4.318 -0.3842 -0.3281  0.7277
 5834SOL    HW118072   4.510   3.128   4.374  0.4966 -1.3396  1.6497
 5834SOL    HW218073   4.612   3.234   4.342 -1.5109  0.2123  0.0764
 5835SOL     OW18074   4.935   6.741   1.133  0.0147 -0.2887  0.1452
 5835SOL    HW118075   5.005   6.695   1.181  0.7067  1.0494  0.4828
 5835SOL    HW218076   4.974   6.826   1.111 -1.9007  1.0153  1.4584
 5836SOL     OW18077   4.526   2.870   2.040  0.0343  0.0734 -0.7061
 5836SOL    HW118078   4.528   2.779   2.069 -1.5923 -0.5328 -2.2772
 5836SOL    HW218079   4.464   2.913   2.099 -0.0619 -0.1234 -0.6620
 5837SOL     OW18080   1.929   6.323   5.751 -0.2166 -0.9950 -0.1086
 5837SOL    HW118081   1.924   6.398   5.691 -0.4201 -2.3315 -1.8394
 5837SOL    HW218082   2.022   6.313   5.769 -0.2925  0.6144  1.4426
 5838SOL     OW18083   7.008   2.479   1.595  0.6472 -0.5133 -0.2626
 5838SOL    HW118084   6.913   2.463   1.594  0.8562 -3.2795  3.0815
 5838SOL    HW218085   7.038   2.454   1.508 -1.4584 -1.8534 -0.6827
 5839SOL     OW18086   0.211   1.066   3.813  0.0868  0.1173 -0.5998
 5839SOL    HW118087   0.299   1.063   3.850 -0.0434  2.0342 -0.0703
 5839SOL    HW218088   0.153   1.041   3.885 -0.1174  3.2898  0.4894
 5840SOL     OW18089   0.990   6.679   1.220  0.3712 -0.3617 -0.5970
 5840SOL    HW118090   1.027   6.656   1.306  1.4458 -0.4851 -1.0790
 5840SOL    HW218091   0.925   6.746   1.240  0.6134 -0.3781  0.3219
 5841SOL     OW18092   3.681   1.768   2.969  0.1601 -0.3754  0.3011
 5841SOL    HW118093   3.743   1.741   3.036  1.6751  0.3823 -0.7352
 5841SOL    HW218094   3.735   1.795   2.895 -1.4291 -2.8933 -1.9743
 5842SOL     OW18095   3.351   3.577   0.677  0.0665 -0.2774 -0.1656
 5842SOL    HW118096   3.389   3.620   0.754  2.2749 -0.3648 -1.1385
 5842SOL    HW218097   3.329   3.650   0.618 -4.5363  0.0843  1.5787
 5843SOL     OW18098   2.239   6.760   4.846  0.7745  0.8173 -0.0288
 5843SOL    HW118099   2.191   6.706   4.909  1.3318  0.9489  0.5153
 5843SOL    HW218100   2.243   6.847   4.887 -2.9745  2.2866 -2.2739
 5844SOL     OW18101   1.638   1.999   1.688  0.0553  0.1290  0.6054
 5844SOL    HW118102   1.623   1.929   1.624 -0.9737  1.7626 -1.0293
 5844SOL    HW218103   1.595   1.968   1.768  0.4105 -1.4738  0.2185
 5845SOL     OW18104   0.439   3.982   3.011 -0.0738  0.0700  0.1375
 5845SOL    HW118105   0.354   4.025   3.006  0.9185  2.1718  0.1055
 5845SOL    HW218106   0.449   3.959   3.103 -0.2740  0.7352  0.3322
 5846SOL     OW18107   3.588   6.028   2.308 -0.1672 -0.1532 -0.0760
 5846SOL    HW118108   3.583   6.117   2.273 -2.1013 -0.2302 -0.1311
 5846SOL    HW218109   3.500   5.992   2.293 -0.4134 -0.9708  2.7917
 5847SOL     OW18110   2.067   4.887   0.787  0.1365 -0.8836  0.3972
 5847SOL    HW118111   2.022   4.836   0.720  1.3834 -0.9514 -0.4290
 5847SOL    HW218112   2.160   4.872   0.770  0.5248  1.0128  0.6296
 5848SOL     OW18113   3.415   3.453   4.077 -0.0690 -0.6162  0.0512
 5848SOL    HW118114   3.408   3.545   4.054 -1.8712 -1.0069 -1.1441
 5848SOL    HW218115   3.449   3.411   3.998  0.1485 -1.0664  0.3794
 5849SOL     OW18116   4.822   6.039   6.693 -0.3402  0.1405  0.3452
 5849SOL    HW118117   4.888   6.076   6.751 -0.5538 -0.1672  0.7884
 5849SOL    HW218118   4.853   6.062   6.605  1.4330 -1.6962  0.4108
 5850SOL     OW18119   0.792   3.413   0.855  0.4130  0.2545 -0.2504
 5850SOL    HW118120   0.814   3.493   0.806 -3.4170  0.7616 -1.4610
 5850SOL    HW218121   0.828   3.342   0.802 -0.1571  1.0195 -1.7189
 5851SOL     OW18122   5.996   1.619   6.306  0.0539  0.1224 -0.0671
 5851SOL    HW118123   6.030   1.553   6.367  0.6256  1.0937  0.6865
 5851SOL    HW218124   6.073   1.670   6.281 -0.6526  1.6918  0.8359
 5852SOL     OW18125   4.537   0.809   1.486  0.3034  0.0674 -0.1447
 5852SOL    HW118126   4.504   0.887   1.440  2.1592  0.2284 -1.3186
 5852SOL    HW218127   4.459   0.767   1.521 -1.0068  1.0753 -1.6984
 5853SOL     OW18128   2.447   1.175   3.748  0.1431 -0.2175  0.0414
 5853SOL    HW118129   2.382   1.105   3.739 -0.0678  0.0753 -0.7877
 5853SOL    HW218130   2.517   1.136   3.801  0.8866 -1.6768 -1.8927
 5854SOL     OW18131   5.679   3.456   3.398 -0.4768 -0.1647 -0.0636
 5854SOL    HW118132   5.770   3.483   3.410  0.5446 -3.1149 -0.3791
 5854SOL    HW218133   5.631   3.502   3.467  1.4172  0.7134  0.7213
 5855SOL     OW18134   2.514   3.146   0.984  0.1462 -0.4466 -0.0860
 5855SOL    HW118135   2.500   3.069   0.928  0.4466 -0.2485 -0.4406
 5855SOL    HW218136   2.463   3.215   0.943 -0.7989 -0.6550  0.7017
 5856SOL     OW18137   5.866   7.302   5.989 -0.3118  0.5305 -0.6198
 5856SOL    HW118138   5.824   7.369   6.043 -0.5435 -0.0179 -0.1117
 5856SOL    HW218139   5.856   7.334   5.899 -1.2980  0.6901 -0.4597
 5857SOL     OW18140   5.864   0.506   1.740  0.0173  0.3271  0.0656
 5857SOL    HW118141   5.925   0.567   1.781  0.2417 -0.2561  0.6340
 5857SOL    HW218142   5.892   0.501   1.649 -0.3380  1.4722 -0.1114
 5858SOL     OW18143   6.452   6.814   5.872  0.6246  0.5405  0.5379
 5858SOL    HW118144   6.408   6.862   5.942 -4.1645 -0.4590 -1.3879
 5858SOL    HW218145   6.449   6.723   5.899  2.2279  0.4919  0.6274
 5859SOL     OW18146   6.664   7.289   3.510  0.1398 -0.4441  0.3125
 5859SOL    HW118147   6.714   7.313   3.432 -0.2063 -3.6077 -1.0331
 5859SOL    HW218148   6.574   7.279   3.478 -0.1631 -1.0257  1.3038
 5860SOL     OW18149   3.516   4.609   6.766 -0.1152 -0.3094 -0.0112
 5860SOL    HW118150   3.609   4.588   6.763 -0.0432  0.0389 -0.2673
 5860SOL    HW218151   3.472   4.527   6.741  0.1972  0.1164 -2.0895
 5861SOL     OW18152   0.641   5.195   6.123  0.5328 -0.1802  0.0996
 5861SOL    HW118153   0.708   5.148   6.173  0.1432 -0.7539  0.0912
 5861SOL    HW218154   0.573   5.129   6.106 -0.6351  0.6852  1.1986
 5862SOL     OW18155   1.402   2.561   0.209 -0.4119  0.6272 -0.0846
 5862SOL    HW118156   1.311   2.532   0.202 -1.4111  3.5076 -0.7835
 5862SOL    HW218157   1.441   2.538   0.124 -0.8900  0.5138 -0.2795
 5863SOL     OW18158   1.637   0.099   3.904 -0.3015 -0.1563  0.2587
 5863SOL    HW118159   1.629   0.052   3.821  1.2223 -2.0868  1.1110
 5863SOL    HW218160   1.551   0.140   3.917 -1.1884 -1.3752 -1.3591
 5864SOL     OW18161   6.801   1.893   5.588  0.1077 -0.4584  0.7592
 5864SOL    HW118162   6.757   1.837   5.524 -0.4046  0.1687  0.5595
 5864SOL    HW218163   6.826   1.971   5.539 -0.7199  0.2396  1.4273
 5865SOL     OW18164   6.090   1.126   1.713 -0.2396 -0.0894 -0.2105
 5865SOL    HW118165   6.102   1.190   1.783  1.5596 -0.2948 -0.2847
 5865SOL    HW218166   6.040   1.055   1.754  1.0999 -0.3807  1.0137
 5866SOL     OW18167   4.059   5.396   3.060 -0.4604  0.3031 -0.7224
 5866SOL    HW118168   4.098   5.387   3.147  1.0867  1.3714 -1.2638
 5866SOL    HW218169   3.970   5.362   3.070 -0.3672  0.5304  1.3014
 5867SOL     OW18170   3.455   7.117   0.917  0.3124 -0.1460  0.1044
 5867SOL    HW118171   3.496   7.203   0.908 -1.7565  0.9284  0.2824
 5867SOL    HW218172   3.361   7.134   0.903 -0.0362 -2.5692 -1.0665
 5868SOL     OW18173   7.352   4.662   6.508 -0.3485  0.1624  0.6585
 5868SOL    HW118174   7.265   4.678   6.470 -0.0432 -0.6689 -0.4580
 5868SOL    HW218175   7.341   4.582   6.559 -0.4599  0.6112  1.3622
 5869SOL     OW18176   3.859   2.060   6.949  0.0230 -0.7181  0.0640
 5869SOL    HW118177   3.878   2.010   7.028 -0.3278 -1.2663 -0.1908
 5869SOL    HW218178   3.816   1.997   6.891 -0.2603 -0.1657 -0.3330
 5870SOL     OW18179   0.082   1.770   6.797 -0.1463  0.3311 -0.3469
 5870SOL    HW118180   0.139   1.817   6.736  0.6128 -1.2300 -0.9030
 5870SOL    HW218181   0.101   1.677   6.781 -0.2622 -0.1464  1.9458
 5871SOL     OW18182   1.200   7.208   7.025  0.0421 -0.2638 -0.5557
 5871SOL    HW118183   1.151   7.271   7.078 -0.0280 -1.5873  1.0506
 5871SOL    HW218184   1.291   7.223   7.049  0.0701 -0.4324 -0.5587
 5872SOL     OW18185   3.721   2.420   0.888 -0.0375 -0.3593  0.2078
 5872SOL    HW118186   3.697   2.510   0.864 -0.2865 -0.2159  0.9485
 5872SOL    HW218187   3.767   2.429   0.971 -0.3854 -0.9452  0.4730
 5873SOL     OW18188   0.680   2.590   0.971 -0.0358 -0.1172  0.0839
 5873SOL    HW118189   0.644   2.532   0.904 -0.9864  0.6978 -0.1267
 5873SOL    HW218190   0.746   2.642   0.923  0.5677 -0.7550  0.1971
 5874SOL     OW18191   1.396   2.097   6.341  0.2844  0.4193  0.2275
 5874SOL    HW118192   1.441   2.012   6.344  0.6941  0.4787 -2.3806
 5874SOL    HW218193   1.305   2.077   6.362  0.7377 -0.3165  1.6293
 5875SOL     OW18194   1.375   6.854   5.118  0.5413 -0.6473  0.7242
 5875SOL    HW118195   1.380   6.934   5.171  1.1265  0.2878 -0.6872
 5875SOL    HW218196   1.466   6.830   5.101  0.3747 -0.6220 -0.2895
 5876SOL     OW18197   1.241   3.791   2.609 -0.7216 -0.2726 -0.0430
 5876SOL    HW118198   1.259   3.884   2.590  1.0928 -0.2489  1.4520
 5876SOL    HW218199   1.146   3.783   2.602 -1.0706  2.0148  0.9248
 5877SOL     OW18200   6.608   5.450   1.115 -0.3166 -0.5357 -0.3119
 5877SOL    HW118201   6.590   5.529   1.064 -0.1157  0.1748  0.6903
 5877SOL    HW218202   6.524   5.405   1.120 -0.8586  0.5326  0.6203
 5878SOL     OW18203   6.175   5.402   2.230  0.0258 -0.0838  0.3003
 5878SOL    HW118204   6.104   5.462   2.251 -1.0541 -1.4020  0.5862
 5878SOL    HW218205   6.137   5.315   2.244  1.8865 -0.8230  1.1106
 5879SOL     OW18206   5.194   2.253   0.361  0.3066 -0.1523 -0.0490
 5879SOL    HW118207   5.225   2.341   0.340 -1.7932  0.6441  0.0615
 5879SOL    HW218208   5.259   2.195   0.320  0.8989  1.4140 -1.4395
 5880SOL     OW18209   7.336   7.392   7.144  0.2296  0.6213  0.2027
 5880SOL    HW118210   7.399   7.350   7.086 -0.4626  0.3674 -0.3744
 5880SOL    HW218211   7.371   7.377   7.232 -0.7672 -2.5314  0.1744
 5881SOL     OW18212   6.265   4.948   6.144 -0.0999 -0.6152  0.2616
 5881SOL    HW118213   6.207   4.990   6.208  1.1559  1.2719  0.2785
 5881SOL    HW218214   6.228   4.971   6.059  0.4163  0.3248  0.2771
 5882SOL     OW18215   1.059   6.664   2.028  0.7921  0.1063  0.3334
 5882SOL    HW118216   1.110   6.740   2.000 -1.0137  1.2110 -0.1104
 5882SOL    HW218217   1.031   6.685   2.117 -0.3543  0.3215 -0.0667
 5883SOL     OW18218   0.949   2.096   5.424  0.5603 -0.1680 -0.2081
 5883SOL    HW118219   0.931   2.036   5.352  0.7454 -1.3465  0.6909
 5883SOL    HW218220   0.988   2.173   5.383  1.7570 -1.2898 -1.2595
 5884SOL     OW18221   6.961   7.106   7.254  0.0186  0.0432  0.2623
 5884SOL    HW118222   6.888   7.081   7.310 -0.2305  0.9087  0.3310
 5884SOL    HW218223   6.934   7.187   7.212  0.8837  0.3112  0.1902
 5885SOL     OW18224   1.467   5.728   5.095  0.5049 -0.5994 -0.9603
 5885SOL    HW118225   1.472   5.663   5.165  0.2620 -0.1978 -0.5729
 5885SOL    HW218226   1.451   5.676   5.016 -0.2594 -0.9640 -0.5705
 5886SOL     OW18227   3.382   5.570   6.272  0.1990  0.6252  0.4707
 5886SOL    HW118228   3.288   5.567   6.257  0.4013 -1.2775 -0.7980
 5886SOL    HW218229   3.409   5.478   6.274  1.9337  1.1045  1.5733
 5887SOL     OW18230   0.222   6.545   4.469 -0.1328 -0.4939  0.0332
 5887SOL    HW118231   0.312   6.519   4.488  0.8115  0.6617 -2.4214
 5887SOL    HW218232   0.229   6.637   4.442 -2.2029 -0.0927  0.6567
 5888SOL     OW18233   2.940   1.036   2.027  0.1982 -0.5263  0.4179
 5888SOL    HW118234   2.887   1.083   2.091  0.9941 -0.0566  0.7512
 5888SOL    HW218235   2.953   0.949   2.064  0.7735 -0.2125  0.9733
 5889SOL     OW18236   5.479   0.726   5.264 -0.0155  0.3958 -0.3248
 5889SOL    HW118237   5.465   0.632   5.272  1.4624  0.2772  1.9588
 5889SOL    HW218238   5.522   0.737   5.179  0.2156 -1.0464 -0.4166
 5890SOL     OW18239   3.769   5.780   4.042 -0.3937 -0.0549  0.2302
 5890SOL    HW118240   3.772   5.706   3.982  0.2775 -0.8174  1.1728
 5890SOL    HW218241   3.700   5.759   4.104 -1.0541  0.7088 -0.2177
 5891SOL     OW18242   7.173   1.011   3.356 -0.0642 -0.1002  0.5728
 5891SOL    HW118243   7.121   1.064   3.416 -0.1762 -1.0583  1.3567
 5891SOL    HW218244   7.138   1.031   3.270  4.0114  6.0879 -0.2754
 5892SOL     OW18245   0.230   2.272   5.898  0.2438 -0.0208 -0.1809
 5892SOL    HW118246   0.195   2.350   5.940 -0.6036 -0.4119 -0.1469
 5892SOL    HW218247   0.262   2.303   5.813 -0.3924  0.3011 -0.3073
 5893SOL     OW18248   5.629   0.707   1.744 -0.1204 -0.3835 -0.1043
 5893SOL    HW118249   5.681   0.764   1.687  0.0427 -0.1252  0.3018
 5893SOL    HW218250   5.679   0.625   1.746 -1.5849 -1.4617 -2.6911
 5894SOL     OW18251   6.955   0.951   4.562  0.2646 -0.1346  0.2515
 5894SOL    HW118252   7.014   0.914   4.497  0.4080 -0.8869  0.8048
 5894SOL    HW218253   7.012   0.980   4.633  0.1141  0.7408  0.0271
 5895SOL     OW18254   1.942   6.277   5.116  0.4177 -0.6805 -0.2688
 5895SOL    HW118255   2.021   6.233   5.086  0.2182 -0.0881 -1.7480
 5895SOL    HW218256   1.871   6.233   5.071  0.1427  0.5288 -1.0620
 5896SOL     OW18257   2.840   4.823   0.066 -0.0957  0.5071 -0.2224
 5896SOL    HW118258   2.862   4.737   0.102  1.6600  2.0446  2.7561
 5896SOL    HW218259   2.744   4.826   0.069 -0.2258 -1.4766 -0.8719
 5897SOL     OW18260   5.929   0.142   4.585 -0.0524 -0.2623 -0.0215
 5897SOL    HW118261   5.928   0.215   4.647 -0.7409 -0.6641  0.4520
 5897SOL    HW218262   6.019   0.110   4.588  0.5341  1.2067 -1.0175
 5898SOL     OW18263   1.649   3.996   5.801  0.0937 -0.3352  0.2464
 5898SOL    HW118264   1.603   4.055   5.741  0.6163 -0.5740 -0.4040
 5898SOL    HW218265   1.673   4.051   5.876 -1.0515 -0.1635  0.4976
 5899SOL     OW18266   1.064   1.391   1.572  0.1661  0.1948 -0.4606
 5899SOL    HW118267   1.152   1.355   1.563  0.3231  0.0814  1.0899
 5899SOL    HW218268   1.052   1.448   1.496  1.7241  0.5161 -0.4919
 5900SOL     OW18269   1.238   6.871   3.502  0.4653 -0.2451 -0.3787
 5900SOL    HW118270   1.262   6.901   3.590 -0.3238 -1.2396  0.1893
 5900SOL    HW218271   1.156   6.917   3.483 -0.7362 -1.9433  0.4849
 5901SOL     OW18272   3.558   4.033   1.806  0.3157  0.0524  0.2946
 5901SOL    HW118273   3.588   4.079   1.884 -0.5934  0.4976  0.3833
 5901SOL    HW218274   3.595   3.945   1.814  0.3689  0.1502  1.1325
 5902SOL     OW18275   3.447   0.884   7.196  0.5723  0.3353 -0.0102
 5902SOL    HW118276   3.467   0.858   7.107 -0.6618 -1.5069  0.2114
 5902SOL    HW218277   3.415   0.974   7.188 -0.6057 -0.1922 -1.5697
 5903SOL     OW18278   7.422   4.371   1.784  0.9122  0.1436  0.5013
 5903SOL    HW118279   7.499   4.427   1.772  0.9351  0.0134  0.0379
 5903SOL    HW218280   7.447   4.287   1.747  0.6103  0.0497  0.5091
 5904SOL     OW18281   0.246   4.273   6.928  0.1864 -0.0077  0.1111
 5904SOL    HW118282   0.195   4.350   6.903  0.9260  0.4233 -0.1070
 5904SOL    HW218283   0.183   4.201   6.927 -0.2491  0.3672 -0.9406
 5905SOL     OW18284   5.033   6.324   3.681  0.6896 -0.1477  0.0914
 5905SOL    HW118285   5.023   6.398   3.741 -0.3147  0.5791 -0.9430
 5905SOL    HW218286   4.998   6.355   3.598 -0.4449 -2.0067 -0.1830
 5906SOL     OW18287   5.220   2.234   4.964  0.3122  0.8101 -0.0548
 5906SOL    HW118288   5.170   2.249   4.884  2.6018  0.8758 -1.5734
 5906SOL    HW218289   5.280   2.308   4.970  1.3324 -0.0386  0.7900
 5907SOL     OW18290   0.074   1.116   6.437 -0.1073 -0.6297 -0.2400
 5907SOL    HW118291   0.144   1.116   6.502 -0.6846 -0.1310  0.4039
 5907SOL    HW218292   0.025   1.196   6.455 -1.5350 -1.5458  0.0851
 5908SOL     OW18293   6.028   1.422   7.416 -0.5202  0.7297 -0.4727
 5908SOL    HW118294   6.043   1.472   7.496 -1.0233  0.5973 -0.2922
 5908SOL    HW218295   6.093   1.456   7.354  0.3890  0.2892  0.2229
 5909SOL     OW18296   1.672   5.909   5.036 -0.4598 -0.6627 -0.3636
 5909SOL    HW118297   1.761   5.881   5.059 -0.6712 -0.8271  0.2879
 5909SOL    HW218298   1.615   5.843   5.074 -0.9240  0.1184  0.3452
 5910SOL     OW18299   3.492   3.817   1.444 -0.1510  0.1598  0.2114
 5910SOL    HW118300   3.456   3.739   1.401  1.3223 -1.3838  1.6069
 5910SOL    HW218301   3.455   3.815   1.532  0.1401  0.8837  0.3579
 5911SOL     OW18302   5.442   4.146   2.460 -0.1741 -0.5178  0.4810
 5911SOL    HW118303   5.405   4.065   2.494  0.3990 -1.8254 -1.8063
 5911SOL    HW218304   5.373   4.211   2.473 -1.9777 -2.1170 -0.5446
 5912SOL     OW18305   3.369   3.508   2.519 -0.7335  0.1027  0.3668
 5912SOL    HW118306   3.443   3.568   2.520 -0.4189 -0.2854  1.0566
 5912SOL    HW218307   3.308   3.543   2.584  0.1575 -1.1654  1.9524
 5913SOL     OW18308   5.506   7.282   5.741 -0.0716 -0.2688 -0.2669
 5913SOL    HW118309   5.581   7.335   5.765  0.1347 -0.8314  0.3550
 5913SOL    HW218310   5.540   7.193   5.733 -0.4943 -0.3856 -0.8771
 5914SOL     OW18311   4.889   1.001   2.603  0.3145  0.0114  0.3457
 5914SOL    HW118312   4.980   1.031   2.611  0.9829 -1.6403 -0.4749
 5914SOL    HW218313   4.843   1.076   2.566  1.3485  0.8692  0.7280
 5915SOL     OW18314   5.055   2.468   2.825  0.1276 -0.1067 -0.5234
 5915SOL    HW118315   5.115   2.529   2.867  0.3677 -0.4508 -0.3605
 5915SOL    HW218316   5.102   2.437   2.747 -0.9989  1.8812 -2.0943
 5916SOL     OW18317   7.002   4.118   1.714 -0.2914 -0.1384  0.3597
 5916SOL    HW118318   7.038   4.152   1.632  2.1109  0.4539  1.5723
 5916SOL    HW218319   6.913   4.089   1.691  0.4688 -0.4710 -2.5356
 5917SOL     OW18320   7.319   1.197   4.989 -0.1544  0.0317 -0.1518
 5917SOL    HW118321   7.376   1.125   4.962 -1.3827 -1.2283  0.4803
 5917SOL    HW218322   7.374   1.250   5.046  0.5480 -0.8614  0.0383
 5918SOL     OW18323   2.187   4.381   6.906 -0.2379 -0.2014 -0.5018
 5918SOL    HW118324   2.203   4.435   6.829 -1.8666  0.5387 -0.3484
 5918SOL    HW218325   2.096   4.352   6.897  0.1753 -1.8403  0.1022
 5919SOL     OW18326   5.387   1.804   4.267  0.1421  0.1374  0.3005
 5919SOL    HW118327   5.404   1.713   4.291  3.1399  0.5729  0.2249
 5919SOL    HW218328   5.311   1.828   4.320 -1.7098 -2.7669 -0.7681
 5920SOL     OW18329   3.463   0.049   5.768  0.2764 -0.2592 -0.0903
 5920SOL    HW118330   3.493   0.049   5.677  0.8726  0.3551  0.0982
 5920SOL    HW218331   3.386  -0.008   5.768 -1.2581  1.6653 -1.4844
 5921SOL     OW18332   1.572   5.786   4.740 -1.1144  0.2905 -0.1051
 5921SOL    HW118333   1.612   5.858   4.789 -0.6175  0.0884 -0.2072
 5921SOL    HW218334   1.618   5.785   4.656  1.1354 -2.1140  1.0112
 5922SOL     OW18335   3.950   5.837   0.410  0.0334  0.0486  0.3944
 5922SOL    HW118336   3.859   5.858   0.393  0.1738 -0.4812 -1.3009
 5922SOL    HW218337   3.963   5.855   0.503 -1.6905  0.4591  0.5864
 5923SOL     OW18338   5.021   3.688   4.185 -0.6552 -0.3006  0.3960
 5923SOL    HW118339   5.085   3.716   4.251  2.1302 -0.2764 -2.0731
 5923SOL    HW218340   4.976   3.768   4.160  1.4799  0.6240 -0.8122
 5924SOL     OW18341   7.003   1.230   1.323  0.7087  1.1269  0.2806
 5924SOL    HW118342   7.070   1.191   1.267  0.0985  0.8820 -0.2883
 5924SOL    HW218343   6.936   1.162   1.331 -0.8398  2.3351 -1.5294
 5925SOL     OW18344   2.037   1.627   2.478 -0.2220  0.5688  0.1665
 5925SOL    HW118345   2.038   1.721   2.458 -0.9893  0.1992 -1.8975
 5925SOL    HW218346   2.126   1.597   2.459  0.3155  1.0135  1.8135
 5926SOL     OW18347   1.268   2.949   3.513 -0.3832 -0.3864  0.2342
 5926SOL    HW118348   1.360   2.928   3.499 -0.2278  0.3276  0.1147
 5926SOL    HW218349   1.242   2.900   3.591 -0.1497 -1.2886 -0.2500
 5927SOL     OW18350   0.528   6.439   4.607 -0.3374 -0.1828  0.0938
 5927SOL    HW118351   0.468   6.508   4.633  0.0253 -0.3692  1.4878
 5927SOL    HW218352   0.556   6.464   4.518 -0.5650  1.2106  0.3914
 5928SOL     OW18353   0.616   6.147   5.467 -0.2263 -0.7652 -0.0114
 5928SOL    HW118354   0.701   6.108   5.490 -0.2407 -0.3665  0.7703
 5928SOL    HW218355   0.638   6.230   5.426 -0.2199  0.4240  2.2147
 5929SOL     OW18356   6.664   0.843   3.667 -0.7376 -0.3432  1.1409
 5929SOL    HW118357   6.638   0.809   3.753  0.9025 -1.9240  1.0882
 5929SOL    HW218358   6.738   0.901   3.686 -0.1441 -0.9719  0.7964
 5930SOL     OW18359   4.161   4.972   5.013 -0.0606 -0.5260  0.1021
 5930SOL    HW118360   4.200   5.043   5.064 -0.8769  0.4490 -0.5819
 5930SOL    HW218361   4.075   5.007   4.987 -0.4066 -1.7093 -0.3809
 5931SOL     OW18362   0.656   1.532   5.636  0.3889 -0.2265  0.1006
 5931SOL    HW118363   0.714   1.458   5.622 -0.3799 -1.1095  1.3966
 5931SOL    HW218364   0.696   1.580   5.709 -0.3364 -0.6916  0.8224
 5932SOL     OW18365   6.200   0.670   1.424  0.1188 -0.0042  0.3751
 5932SOL    HW118366   6.196   0.760   1.393  2.0624 -0.0776 -0.1635
 5932SOL    HW218367   6.274   0.631   1.378  0.2291 -1.4503  1.6845
 5933SOL     OW18368   2.492   2.681   7.194 -0.4963  0.5405 -0.2461
 5933SOL    HW118369   2.503   2.644   7.282 -1.0675 -3.2979 -1.5921
 5933SOL    HW218370   2.417   2.741   7.203 -1.4589 -0.8310  1.6347
 5934SOL     OW18371   2.391   4.181   2.420  0.2120 -0.4525 -0.8194
 5934SOL    HW118372   2.378   4.137   2.504  1.0700 -0.4512 -0.6806
 5934SOL    HW218373   2.367   4.115   2.355  0.7527 -0.8777 -0.5982
 5935SOL     OW18374   6.660   0.044   4.956  0.5087 -0.4746  0.6605
 5935SOL    HW118375   6.644   0.138   4.961 -1.8585 -0.8108  0.6126
 5935SOL    HW218376   6.660   0.015   5.047 -3.1547 -0.9546  0.6708
 5936SOL     OW18377   3.683   0.942   5.786 -0.2330  0.5847 -0.2227
 5936SOL    HW118378   3.776   0.958   5.769 -0.3948  1.5676 -0.1919
 5936SOL    HW218379   3.644   1.029   5.794 -0.7483  0.1886  2.1184
 5937SOL     OW18380   6.910   7.308   5.982  0.6476 -0.7047  0.4912
 5937SOL    HW118381   6.839   7.286   5.922  0.1550  0.6315  0.5597
 5937SOL    HW218382   6.945   7.391   5.950  1.6196 -0.9149  0.9633
 5938SOL     OW18383   3.606   5.410   0.324  0.2525 -0.2514 -0.1111
 5938SOL    HW118384   3.701   5.422   0.319  0.1090  0.4665 -1.3512
 5938SOL    HW218385   3.577   5.407   0.233 -0.6863 -2.5820  0.2038
 5939SOL     OW18386   5.472   4.817   3.881  0.1564 -0.3789  0.0573
 5939SOL    HW118387   5.520   4.851   3.806 -1.6722 -1.6040 -1.7644
 5939SOL    HW218388   5.503   4.727   3.891 -2.0466 -1.4462 -1.6063
 5940SOL     OW18389   6.895   6.155   1.290  0.5886 -0.0806  0.5785
 5940SOL    HW118390   6.852   6.229   1.248  0.5607  0.5789  1.7300
 5940SOL    HW218391   6.891   6.085   1.225  0.5318  0.8948 -0.4914
 5941SOL     OW18392   0.868   6.885   5.035  0.0586 -0.8885  0.3020
 5941SOL    HW118393   0.890   6.857   4.947 -0.4441 -0.1122 -0.0858
 5941SOL    HW218394   0.817   6.813   5.072 -0.1669 -1.0039 -0.2323
 5942SOL     OW18395   6.123   0.803   4.250 -0.1936  0.7147  0.6141
 5942SOL    HW118396   6.122   0.720   4.299  1.2046 -0.0918 -0.6396
 5942SOL    HW218397   6.076   0.864   4.306 -0.8798 -0.8134  1.7852
 5943SOL     OW18398   7.178   1.333   4.176  0.6117  0.4201 -0.6252
 5943SOL    HW118399   7.094   1.287   4.169  0.9742 -0.4609  0.5667
 5943SOL    HW218400   7.154   1.426   4.173 -0.4617  0.1905  0.1811
 5944SOL     OW18401   1.487   2.937   3.763  0.2989  0.2992 -0.2176
 5944SOL    HW118402   1.513   2.958   3.853 -0.5931 -0.3093  0.2000
 5944SOL    HW218403   1.398   2.971   3.755  0.8005  1.4656 -1.2980
 5945SOL     OW18404   0.428   6.124   3.554  0.4758  0.1361  0.0069
 5945SOL    HW118405   0.335   6.102   3.546  0.4450 -0.1227  0.9260
 5945SOL    HW218406   0.474   6.043   3.532  0.5128  0.4609 -1.1439
 5946SOL     OW18407   3.453   0.199   6.663  0.1482  0.1962  0.1211
 5946SOL    HW118408   3.437   0.294   6.666  0.3273  0.2396 -0.2133
 5946SOL    HW218409   3.392   0.167   6.596  0.0379  0.0611  0.2838
 5947SOL     OW18410   2.738   3.846   4.382  0.3038 -0.1277 -0.2867
 5947SOL    HW118411   2.673   3.893   4.329 -0.3750 -0.8340 -0.1038
 5947SOL    HW218412   2.770   3.911   4.444 -0.3317  0.1990 -0.2926
 5948SOL     OW18413   0.771   0.958   2.107 -0.5981 -0.6801  0.2222
 5948SOL    HW118414   0.765   0.877   2.056 -0.9079 -0.3550 -0.2651
 5948SOL    HW218415   0.736   0.934   2.193  0.1786 -1.3020  0.3765
 5949SOL     OW18416   4.289   3.664   2.588  0.5858 -0.9079  0.2050
 5949SOL    HW118417   4.266   3.572   2.577  0.1582 -0.6206 -1.6034
 5949SOL    HW218418   4.217   3.701   2.640 -1.1333 -0.8667 -2.0731
 5950SOL     OW18419   3.913   2.437   0.392 -0.4781  0.0935 -0.0518
 5950SOL    HW118420   3.970   2.360   0.381 -0.7140 -0.0424 -0.3340
 5950SOL    HW218421   3.950   2.483   0.468  0.7181  0.6239 -0.9178
 5951SOL     OW18422   5.790   5.242   5.519 -0.0984  0.5851  0.4501
 5951SOL    HW118423   5.732   5.273   5.450 -0.3113 -0.7174  0.0231
 5951SOL    HW218424   5.750   5.161   5.550  0.7583  0.4002  1.1107
 5952SOL     OW18425   3.566   7.237   1.867  0.1782  0.8842 -0.0477
 5952SOL    HW118426   3.633   7.286   1.914 -0.5463  2.0015 -0.1228
 5952SOL    HW218427   3.553   7.287   1.786  1.6519 -1.1658 -1.6720
 5953SOL     OW18428   1.319   0.107   2.565 -0.4305 -0.5785  0.0458
 5953SOL    HW118429   1.261   0.145   2.630 -0.9233 -1.1224 -0.0687
 5953SOL    HW218430   1.405   0.144   2.585 -1.0712  1.5024 -0.7606
 5954SOL     OW18431   1.456   1.419   0.977  0.0834 -0.2259 -0.2626
 5954SOL    HW118432   1.489   1.438   1.065 -0.5536  0.9437 -0.2505
 5954SOL    HW218433   1.373   1.467   0.972  0.1466 -0.2174 -1.5170
 5955SOL     OW18434   3.309   3.489   6.884 -0.3418 -0.2116 -0.5581
 5955SOL    HW118435   3.344   3.515   6.969  0.7926  1.0739 -1.3917
 5955SOL    HW218436   3.222   3.454   6.904  0.4104 -1.1681  1.2736
 5956SOL     OW18437   7.095   3.994   5.626  0.0153  0.5074  0.4165
 5956SOL    HW118438   7.171   4.028   5.673 -0.1216  0.0563  0.9770
 5956SOL    HW218439   7.131   3.938   5.557  0.1968  0.6588  0.3880
 5957SOL     OW18440   0.355   7.033   7.304  0.1891 -0.1000  0.0815
 5957SOL    HW118441   0.354   7.006   7.213 -2.1825 -0.9338  0.2826
 5957SOL    HW218442   0.354   6.951   7.354 -1.0449  0.3164  0.7875
 5958SOL     OW18443   4.765   0.356   3.719  0.0088  0.3059  0.8833
 5958SOL    HW118444   4.818   0.289   3.676  0.4397  0.6046  0.9412
 5958SOL    HW218445   4.791   0.438   3.676 -1.9959  0.2144 -0.6625
 5959SOL     OW18446   0.253   4.943   2.159  0.6347 -0.1420  0.7251
 5959SOL    HW118447   0.232   5.027   2.201  0.2808  0.8036 -1.2020
 5959SOL    HW218448   0.169   4.898   2.153  0.3094  0.5825 -0.6536
 5960SOL     OW18449   3.873   4.000   3.981  0.1223 -0.5924 -0.1253
 5960SOL    HW118450   3.835   4.087   3.993 -1.3121 -1.2417  0.2058
 5960SOL    HW218451   3.809   3.952   3.929  1.0740 -1.3488 -0.6388
 5961SOL     OW18452   4.014   0.100   5.159 -0.2614 -0.0003 -0.4157
 5961SOL    HW118453   4.078   0.048   5.110 -1.3781 -0.7629 -1.1009
 5961SOL    HW218454   3.941   0.113   5.098 -0.3670  1.6945  0.0165
 5962SOL     OW18455   1.082   6.931   6.651  0.0719  0.2363 -0.5552
 5962SOL    HW118456   1.147   7.001   6.654  0.5163 -0.0796 -2.0891
 5962SOL    HW218457   1.002   6.973   6.620  0.4640 -0.0041 -1.9296
 5963SOL     OW18458   6.979   5.934   5.578 -0.0236  0.0803  0.5622
 5963SOL    HW118459   7.019   5.955   5.662  0.3580  0.4517  0.2896
 5963SOL    HW218460   6.896   5.982   5.577 -0.3355 -0.4381  0.9943
 5964SOL     OW18461   6.986   2.157   1.911  0.6392  0.5236 -0.2054
 5964SOL    HW118462   7.024   2.124   1.829  1.2795 -1.4540  0.8137
 5964SOL    HW218463   7.020   2.246   1.919  1.9030  0.1715 -1.2810
 5965SOL     OW18464   7.262   7.205   2.819  0.0343  0.1623 -0.3102
 5965SOL    HW118465   7.185   7.229   2.767 -0.0389 -0.1383 -0.3393
 5965SOL    HW218466   7.281   7.284   2.871 -2.0333 -0.6434  1.8734
 5966SOL     OW18467   2.445   4.795   4.616 -0.0177 -0.3100 -0.5903
 5966SOL    HW118468   2.434   4.867   4.678 -1.8817 -0.6407 -0.4772
 5966SOL    HW218469   2.356   4.771   4.592  0.6341 -0.1162 -3.5140
 5967SOL     OW18470   3.715   3.262   2.208  0.2043  0.3162 -0.4112
 5967SOL    HW118471   3.738   3.173   2.179  1.2764 -0.2154  1.8348
 5967SOL    HW218472   3.621   3.270   2.189  0.4757 -0.5822 -2.3194
 5968SOL     OW18473   2.845   6.246   0.333 -0.6867  0.1203  0.0175
 5968SOL    HW118474   2.813   6.309   0.398  1.6364  2.0349 -0.5466
 5968SOL    HW218475   2.918   6.202   0.376 -0.6621 -0.3326 -0.4764
 5969SOL     OW18476   1.168   0.716   5.530  0.0227  0.3643 -0.5605
 5969SOL    HW118477   1.111   0.715   5.454 -0.6992 -1.6107 -0.0530
 5969SOL    HW218478   1.180   0.624   5.553  1.2355  0.8461  0.9731
 5970SOL     OW18479   0.656   2.267   3.549  0.1410  0.0919  0.0175
 5970SOL    HW118480   0.618   2.185   3.580  0.4639  0.1291  0.5276
 5970SOL    HW218481   0.673   2.253   3.456 -1.0247  0.0386 -0.2117
 5971SOL     OW18482   5.282   0.751   6.128 -0.2561  0.1167 -0.6036
 5971SOL    HW118483   5.200   0.711   6.099 -1.1214  1.0852  0.3612
 5971SOL    HW218484   5.301   0.709   6.212 -1.1380  1.5833  0.3853
 5972SOL     OW18485   5.787   3.256   0.941 -0.0771  0.5190  0.5355
 5972SOL    HW118486   5.874   3.295   0.936 -0.1872  0.7648  0.5229
 5972SOL    HW218487   5.783   3.195   0.868  0.2663  0.1363  0.8344
 5973SOL     OW18488   2.278   7.222   1.243  0.1884  0.2383 -0.1050
 5973SOL    HW118489   2.329   7.302   1.256 -0.4316  0.8528 -1.3376
 5973SOL    HW218490   2.187   7.250   1.254  0.0060 -0.4620  0.2099
 5974SOL     OW18491   4.391   1.607   4.674 -0.1820  0.6845 -0.3496
 5974SOL    HW118492   4.472   1.595   4.724  0.4042 -0.4460 -1.5086
 5974SOL    HW218493   4.322   1.604   4.740  0.6296  0.1561  0.5045
 5975SOL     OW18494   2.821   1.318   2.892 -0.1440  0.4598 -0.1162
 5975SOL    HW118495   2.762   1.270   2.950 -0.1272  1.4166  0.7172
 5975SOL    HW218496   2.821   1.407   2.926 -0.1233  1.0558 -1.5952
 5976SOL     OW18497   4.800   2.186   4.476 -0.5550  0.6805 -0.3623
 5976SOL    HW118498   4.824   2.277   4.497  0.7144  0.2815 -0.0168
 5976SOL    HW218499   4.749   2.193   4.395 -2.2239  1.8917  0.7092
 5977SOL     OW18500   1.074   2.885   0.217  0.2644  0.1202  0.3383
 5977SOL    HW118501   1.162   2.868   0.249 -0.0632 -1.1716  0.6054
 5977SOL    HW218502   1.017   2.842   0.281 -0.5431  0.5734 -0.0648
 5978SOL     OW18503   7.097   4.492   6.743  0.5629 -0.2297 -0.7055
 5978SOL    HW118504   7.096   4.432   6.818 -1.0542 -1.6083 -1.7803
 5978SOL    HW218505   7.185   4.482   6.706  1.5068  0.6919  1.0994
 5979SOL     OW18506   3.910   6.627   0.052 -0.0056 -0.0590  0.3025
 5979SOL    HW118507   3.926   6.577  -0.027 -0.4713  0.3798 -0.0776
 5979SOL    HW218508   3.982   6.604   0.111 -0.1314 -1.0378  0.0771
 5980SOL     OW18509   3.784   0.323   0.462 -0.0267 -0.0015 -0.0068
 5980SOL    HW118510   3.738   0.258   0.409  0.0777 -0.3311  0.3099
 5980SOL    HW218511   3.838   0.272   0.523  0.2272  0.3784  0.0931
 5981SOL     OW18512   1.125   4.659   5.021  0.1364 -0.2088 -0.1320
 5981SOL    HW118513   1.053   4.723   5.029  0.3157  0.1236 -1.0445
 5981SOL    HW218514   1.081   4.578   4.993  0.1765  0.2063 -1.4984
 5982SOL     OW18515   6.945   3.311   1.424  0.0172  0.2803  0.1446
 5982SOL    HW118516   6.853   3.297   1.446  0.4941 -1.1524  1.4037
 5982SOL    HW218517   6.990   3.234   1.458  1.5854  0.5435 -1.2151
 5983SOL     OW18518   1.098   0.177   0.769  0.1288  0.2659 -0.1309
 5983SOL    HW118519   1.170   0.173   0.832 -1.8052 -1.7703  2.1901
 5983SOL    HW218520   1.020   0.192   0.823 -1.6755 -1.7800 -1.9703
 5984SOL     OW18521   5.045   0.866   0.439 -0.0909  0.3064  0.3127
 5984SOL    HW118522   5.042   0.856   0.344  0.1543  0.9447  0.2345
 5984SOL    HW218523   5.132   0.836   0.464  0.5107  1.8248  0.1199
 5985SOL     OW18524   0.738   0.257   5.379  0.0614  0.0685 -0.9773
 5985SOL    HW118525   0.691   0.182   5.343 -1.5178  0.6431 -0.1864
 5985SOL    HW218526   0.807   0.275   5.315 -0.8094 -0.7753 -2.1961
 5986SOL     OW18527   0.481   1.964   6.944 -0.1022  0.2498  0.9014
 5986SOL    HW118528   0.519   1.931   7.025  0.8346  1.2156  0.8808
 5986SOL    HW218529   0.441   2.048   6.969 -1.0462 -0.1102  0.6416
 5987SOL     OW18530   2.613   6.544   0.373  0.2147  0.2255 -0.1726
 5987SOL    HW118531   2.591   6.613   0.436 -0.2466 -0.8701  0.8834
 5987SOL    HW218532   2.577   6.464   0.410  0.9020 -0.6364 -1.2931
 5988SOL     OW18533   5.427   1.264   3.404  0.4448  0.3335  0.4904
 5988SOL    HW118534   5.502   1.205   3.408  1.5242  1.6822  0.5813
 5988SOL    HW218535   5.383   1.241   3.322 -0.2210 -1.8061  1.3805
 5989SOL     OW18536   5.130   6.776   6.558 -1.0394  0.2830  0.3064
 5989SOL    HW118537   5.184   6.800   6.633 -1.0649  1.1742  0.0570
 5989SOL    HW218538   5.191   6.775   6.484 -1.0202 -0.5632  0.3206
 5990SOL     OW18539   5.267   4.272   3.897  0.7329 -0.4297 -0.2648
 5990SOL    HW118540   5.207   4.208   3.859  0.6827  0.6198 -2.0903
 5990SOL    HW218541   5.322   4.299   3.824  1.3977  0.8878  0.6807
 5991SOL     OW18542   5.080   5.950   4.053 -0.0374  0.4950 -0.2222
 5991SOL    HW118543   5.049   6.013   3.988 -0.7463 -0.4101 -0.7865
 5991SOL    HW218544   5.043   5.866   4.026  2.9935 -0.7449 -1.0444
 5992SOL     OW18545   1.110   2.778   4.214  0.1573  0.0296  0.3718
 5992SOL    HW118546   1.016   2.769   4.229  0.0831 -0.0243 -0.0978
 5992SOL    HW218547   1.118   2.850   4.152  0.3408 -0.7162 -0.5020
 5993SOL     OW18548   2.468   4.060   0.734 -0.2970 -0.5040  0.2343
 5993SOL    HW118549   2.402   4.021   0.791 -0.7479  0.2075  0.2086
 5993SOL    HW218550   2.514   3.985   0.696 -1.5298 -1.0397 -0.2665
 5994SOL     OW18551   0.839   2.497   3.789  0.0776 -0.7259 -0.0994
 5994SOL    HW118552   0.847   2.577   3.841  0.1156 -1.0232  0.3601
 5994SOL    HW218553   0.759   2.509   3.738  0.1453 -0.3478 -0.1173
 5995SOL     OW18554   1.828   4.734   3.583  0.4383  0.1647 -0.3647
 5995SOL    HW118555   1.787   4.675   3.646  1.2228  0.2435  0.2472
 5995SOL    HW218556   1.880   4.678   3.526  1.1768  0.2462  0.2113
 5996SOL     OW18557   4.056   2.282   1.297  0.3488 -0.1335  0.6533
 5996SOL    HW118558   4.098   2.224   1.234  0.8187  2.4720 -1.6536
 5996SOL    HW218559   4.128   2.330   1.338 -0.1081  0.9888  0.1903
 5997SOL     OW18560   0.165   6.264   5.544  0.1889  0.1068 -0.5987
 5997SOL    HW118561   0.080   6.235   5.577  0.2484 -0.9069 -1.2799
 5997SOL    HW218562   0.227   6.200   5.579  0.7263  1.0385  0.1750
 5998SOL     OW18563   0.726   2.346   6.625  0.6848 -0.0589 -0.1922
 5998SOL    HW118564   0.709   2.284   6.696  0.2675  0.5359  0.2412
 5998SOL    HW218565   0.704   2.297   6.545 -0.7826 -0.1032  0.2095
 5999SOL     OW18566   0.171   4.528   1.648 -0.1818  0.2840  0.3985
 5999SOL    HW118567   0.219   4.555   1.570  1.2570 -0.2467  1.0673
 5999SOL    HW218568   0.216   4.571   1.720  0.4120 -1.6151  1.2192
 6000SOL     OW18569   2.785   6.557   6.022  0.4513 -0.5812 -0.2685
 6000SOL    HW118570   2.784   6.590   5.932  3.3251 -0.3961 -0.3164
 6000SOL    HW218571   2.836   6.477   6.017 -0.9819 -1.6252  0.9411
 6001SOL     OW18572   2.580   5.853   2.260 -0.6090 -0.1421 -0.1613
 6001SOL    HW118573   2.648   5.796   2.225  1.9480  1.4748  1.8585
 6001SOL    HW218574   2.549   5.809   2.339 -0.0104  0.3259  0.3434
 6002SOL     OW18575   6.320   7.423   6.644 -0.9795  0.0867 -0.4005
 6002SOL    HW118576   6.281   7.428   6.556 -0.5899  1.7184 -0.5042
 6002SOL    HW218577   6.403   7.378   6.630 -0.4325  1.2460 -1.0768
 6003SOL     OW18578   5.586   5.026   6.802  0.6505  0.9377  0.1108
 6003SOL    HW118579   5.526   5.086   6.845 -2.4293 -0.0061 -2.4774
 6003SOL    HW218580   5.578   4.945   6.853  2.1955  1.6559  1.5808
 6004SOL     OW18581   2.268   0.089   6.490  0.7497  0.2254  0.4780
 6004SOL    HW118582   2.176   0.113   6.487  1.0911  1.5880  0.0560
 6004SOL    HW218583   2.283   0.037   6.412 -0.0957 -1.7870  1.5928
 6005SOL     OW18584   3.948   1.267   2.776  0.4248  0.2973 -0.5062
 6005SOL    HW118585   3.917   1.250   2.687 -0.6336 -1.0100  0.0731
 6005SOL    HW218586   3.972   1.180   2.809  0.7298  0.7611  0.5183
 6006SOL     OW18587   6.338   3.633   0.339  0.0892 -0.1828 -0.6228
 6006SOL    HW118588   6.428   3.657   0.319  0.2480  1.0738  1.3272
 6006SOL    HW218589   6.308   3.700   0.400 -1.4879 -1.7314  0.4024
 6007SOL     OW18590   2.040   1.598   2.749 -1.1737 -0.5844  0.2867
 6007SOL    HW118591   1.966   1.627   2.802 -1.6787 -2.2036  0.5119
 6007SOL    HW218592   2.006   1.593   2.660 -0.2413  2.4393 -0.3372
 6008SOL     OW18593   2.145   4.090   5.390 -0.2681  0.7395 -0.5123
 6008SOL    HW118594   2.171   4.181   5.409  1.4248  0.0329  0.8791
 6008SOL    HW218595   2.147   4.047   5.476 -1.8120 -0.4543 -1.0442
 6009SOL     OW18596   0.154   6.514   2.938 -0.3861  0.7670 -0.0891
 6009SOL    HW118597   0.096   6.546   2.869 -0.2842  1.4374  0.1352
 6009SOL    HW218598   0.175   6.424   2.911 -2.1835  0.2011  0.2494
 6010SOL     OW18599   0.128   2.846   3.468 -0.4556 -0.5670 -0.7061
 6010SOL    HW118600   0.097   2.774   3.414  0.1784 -1.6229  0.2912
 6010SOL    HW218601   0.214   2.868   3.431  0.2928 -1.7541  0.2329
 6011SOL     OW18602   1.233   0.536   3.169  0.7633  0.3891  0.5648
 6011SOL    HW118603   1.217   0.630   3.167  0.6771  0.3636  0.1314
 6011SOL    HW218604   1.321   0.528   3.207  1.2759  0.7039 -0.5229
 6012SOL     OW18605   2.436   2.736   5.886 -0.1896  0.0992 -0.5320
 6012SOL    HW118606   2.524   2.773   5.892  1.2112 -3.0559  0.6037
 6012SOL    HW218607   2.395   2.755   5.971  0.9387 -1.6775  0.4884
 6013SOL     OW18608   5.761   5.791   3.530  0.3172 -0.4905  0.4578
 6013SOL    HW118609   5.685   5.734   3.539 -0.2320  0.0957 -0.3609
 6013SOL    HW218610   5.793   5.776   3.441  0.3155  0.2916  0.3158
 6014SOL     OW18611   6.100   2.931   4.318  0.1161 -0.6597 -0.1393
 6014SOL    HW118612   6.036   2.991   4.279  0.3873  0.1250  0.5772
 6014SOL    HW218613   6.173   2.988   4.342 -0.0651 -1.0975  1.5397
 6015SOL     OW18614   2.196   4.851   6.639  0.4682 -0.1070 -0.0506
 6015SOL    HW118615   2.179   4.942   6.664  0.6950  0.0497 -0.4597
 6015SOL    HW218616   2.258   4.857   6.566  2.5019 -0.6609  1.5275
 6016SOL     OW18617   2.214   4.054   6.750  0.1791 -0.1221 -0.0153
 6016SOL    HW118618   2.157   4.127   6.724  1.7567  1.0086 -0.4839
 6016SOL    HW218619   2.205   3.990   6.679  1.0337  0.9668 -1.1549
 6017SOL     OW18620   0.517   1.074   0.255 -0.1288  0.2200 -0.3887
 6017SOL    HW118621   0.487   1.020   0.182  0.6178 -1.7044  0.6462
 6017SOL    HW218622   0.518   1.014   0.330 -1.3093  2.2370  1.3230
 6018SOL     OW18623   4.692   0.434   6.957  0.3871  0.5242 -0.4241
 6018SOL    HW118624   4.642   0.399   7.031 -1.2688  0.7245 -1.4068
 6018SOL    HW218625   4.636   0.500   6.918  2.3132  2.3373 -0.3263
 6019SOL     OW18626   5.194   3.780   0.953 -0.0544 -0.5939  0.3919
 6019SOL    HW118627   5.107   3.782   0.993  1.3700  0.3422  3.8247
 6019SOL    HW218628   5.215   3.873   0.938  0.7332 -0.7371  0.5717
 6020SOL     OW18629   2.193   2.975   4.309 -0.0442 -0.2551 -0.1251
 6020SOL    HW118630   2.125   2.911   4.288 -0.0523 -0.5765  0.8500
 6020SOL    HW218631   2.161   3.020   4.387  1.2141 -0.9787  0.8553
 6021SOL     OW18632   2.165   0.552   2.630  0.2821  0.1998  0.3403
 6021SOL    HW118633   2.155   0.541   2.725  0.8249 -2.3308  0.1862
 6021SOL    HW218634   2.076   0.569   2.599  0.2944  2.6293  1.3852
 6022SOL     OW18635   1.441   3.348   1.010 -0.1345 -0.3499 -0.3947
 6022SOL    HW118636   1.499   3.348   1.086 -0.2567 -1.3677 -0.2888
 6022SOL    HW218637   1.360   3.388   1.042 -0.2026 -0.8167  0.0273
 6023SOL     OW18638   5.048   6.410   0.561  0.2571 -0.1048 -0.0711
 6023SOL    HW118639   4.990   6.483   0.543  0.3439  0.2687  1.0472
 6023SOL    HW218640   5.032   6.348   0.491 -0.3303  0.6818 -0.6497
 6024SOL     OW18641   3.365   2.585   1.472 -0.0020 -0.1839  0.4205
 6024SOL    HW118642   3.455   2.614   1.489 -0.8340  2.5645  0.7147
 6024SOL    HW218643   3.370   2.542   1.387  1.6378 -0.4295  0.5909
 6025SOL     OW18644   4.461   3.731   1.067  0.1709  0.2581  0.4599
 6025SOL    HW118645   4.388   3.696   1.118 -3.4990  3.3856 -2.0718
 6025SOL    HW218646   4.477   3.817   1.104  0.3641  0.8627 -0.9519
 6026SOL     OW18647   2.302   0.811   2.563 -0.1863 -0.2955  0.2475
 6026SOL    HW118648   2.292   0.720   2.591  0.5679 -0.3161  0.4529
 6026SOL    HW218649   2.290   0.808   2.468  1.2130 -0.8367  0.0637
 6027SOL     OW18650   0.737   3.550   7.284 -0.2354  0.2906 -0.2227
 6027SOL    HW118651   0.788   3.552   7.365  0.1145 -1.6734 -0.3215
 6027SOL    HW218652   0.765   3.469   7.240 -1.0075  0.8803 -1.9193
 6028SOL     OW18653   5.431   1.973   5.980 -0.5376 -0.5052 -1.0302
 6028SOL    HW118654   5.511   2.024   5.967 -0.3908  0.1922  1.8870
 6028SOL    HW218655   5.449   1.889   5.938  0.5130  0.6432 -3.0304
 6029SOL     OW18656   4.221   1.972   3.565 -0.0985 -0.1016 -0.0612
 6029SOL    HW118657   4.183   1.884   3.566 -0.3835 -0.0536  3.0094
 6029SOL    HW218658   4.260   1.980   3.478  0.2028 -3.3530 -0.3585
 6030SOL     OW18659   7.328   4.829   4.152  0.8437  0.0219 -0.0904
 6030SOL    HW118660   7.259   4.872   4.102  0.1999 -0.6853  0.1782
 6030SOL    HW218661   7.404   4.888   4.144  0.4753  0.3775 -1.1055
 6031SOL     OW18662   4.414   5.315   6.920 -0.1393 -0.2573 -0.3950
 6031SOL    HW118663   4.430   5.289   6.829 -0.4240 -1.7778 -0.0486
 6031SOL    HW218664   4.496   5.295   6.966 -0.3378 -0.4737 -0.1281
 6032SOL     OW18665   6.744   6.759   4.467 -0.7307  0.2867 -0.2628
 6032SOL    HW118666   6.688   6.690   4.503 -2.5225  0.3776 -2.5913
 6032SOL    HW218667   6.820   6.711   4.433 -1.2990 -0.3873 -0.6243
 6033SOL     OW18668   2.325   5.151   1.778  0.5875 -0.1167 -0.1171
 6033SOL    HW118669   2.234   5.178   1.769  0.3930 -0.9837 -0.9134
 6033SOL    HW218670   2.357   5.146   1.688  1.0482 -1.0285  0.0867
 6034SOL     OW18671   6.343   3.106   5.816 -0.1210 -0.1258 -1.0138
 6034SOL    HW118672   6.279   3.175   5.801  1.8288  1.8391 -0.8002
 6034SOL    HW218673   6.313   3.060   5.894 -1.5872  0.3115 -1.3037
 6035SOL     OW18674   0.782   5.349   5.791  0.0511  0.0662  0.3213
 6035SOL    HW118675   0.841   5.383   5.723  1.3058  0.7598  1.7094
 6035SOL    HW218676   0.695   5.379   5.764  0.4253 -0.2168 -1.3039
 6036SOL     OW18677   5.463   0.042   3.073 -0.3892 -0.4934 -0.4701
 6036SOL    HW118678   5.530   0.012   3.135 -0.6703 -1.3529 -0.5708
 6036SOL    HW218679   5.421   0.116   3.118 -0.8041 -1.3011  0.5182
 6037SOL     OW18680   4.303   5.547   5.300 -0.4039 -0.2269 -0.3574
 6037SOL    HW118681   4.261   5.572   5.382  1.5611  0.0356  0.6354
 6037SOL    HW218682   4.250   5.474   5.267 -2.0247  0.5372  0.4179
 6038SOL     OW18683   2.011   4.943   7.216 -0.0687  0.5739  0.1974
 6038SOL    HW118684   1.999   5.024   7.265  0.1717  0.2193  0.8507
 6038SOL    HW218685   2.064   4.887   7.273  1.5800  0.7338 -1.1253
 6039SOL     OW18686   4.252   6.784   1.079  1.0971 -0.2134  0.3056
 6039SOL    HW118687   4.212   6.699   1.097 -0.0888 -0.2662 -2.1998
 6039SOL    HW218688   4.192   6.848   1.116 -0.2327 -0.3888 -1.3859
 6040SOL     OW18689   0.846   1.608   0.503  0.2972  0.4107 -0.4925
 6040SOL    HW118690   0.856   1.543   0.434 -0.6455 -0.1899 -0.0841
 6040SOL    HW218691   0.903   1.577   0.573 -0.1529 -0.0009 -0.2970
 6041SOL     OW18692   2.576   4.344   0.191  0.2983 -0.5252  0.1788
 6041SOL    HW118693   2.490   4.344   0.149  0.3538 -2.9507 -0.0681
 6041SOL    HW218694   2.638   4.361   0.119  0.1574 -0.7928 -0.0048
 6042SOL     OW18695   0.958   4.793   0.803 -0.1358  0.1589  0.5311
 6042SOL    HW118696   0.977   4.737   0.879 -0.2664 -1.0250 -0.2838
 6042SOL    HW218697   1.025   4.770   0.739 -1.0755 -0.1449 -0.3635
 6043SOL     OW18698   6.389   4.574   6.742 -0.0876  0.1173  0.2553
 6043SOL    HW118699   6.396   4.588   6.647 -2.2624 -1.6468 -0.2589
 6043SOL    HW218700   6.318   4.510   6.751  1.3007 -1.1892  2.9782
 6044SOL     OW18701   0.977   5.790   0.745  0.7382  0.1545  0.8683
 6044SOL    HW118702   1.037   5.856   0.711  0.1409 -0.4209 -1.4922
 6044SOL    HW218703   0.967   5.727   0.673 -3.6405  0.8771  0.6031
 6045SOL     OW18704   2.214   4.495   6.544  0.1213 -0.3227 -0.4008
 6045SOL    HW118705   2.254   4.542   6.470  0.5836 -1.6502 -1.0178
 6045SOL    HW218706   2.279   4.501   6.614  0.8820 -1.3585 -0.9885
 6046SOL     OW18707   7.311   3.588   4.093 -0.5182 -0.4532  0.2461
 6046SOL    HW118708   7.218   3.575   4.109 -0.7390  1.1134  0.4526
 6046SOL    HW218709   7.315   3.657   4.027  0.4862 -0.8082 -0.0840
 6047SOL     OW18710   4.239   0.692   0.036  0.0739  0.1622  0.2309
 6047SOL    HW118711   4.272   0.702   0.126  2.2737  1.7610 -0.6598
 6047SOL    HW218712   4.175   0.621   0.042  0.2724  0.1024  3.0221
 6048SOL     OW18713   5.006   4.184   6.841 -0.4032 -0.3046 -0.0392
 6048SOL    HW118714   5.092   4.165   6.804  0.9882  0.8072  2.3706
 6048SOL    HW218715   5.023   4.253   6.906 -3.0509 -0.3578  0.8183
 6049SOL     OW18716   3.504   2.250   2.295 -0.2009 -0.2629 -0.0060
 6049SOL    HW118717   3.577   2.187   2.291  0.3548  0.4019 -0.4970
 6049SOL    HW218718   3.430   2.198   2.326  0.7102 -0.7564  1.4826
 6050SOL     OW18719   1.076   0.843   5.831  0.1083 -0.2174  0.1268
 6050SOL    HW118720   1.100   0.767   5.884 -1.1378 -1.4808 -1.0384
 6050SOL    HW218721   0.999   0.880   5.876  1.1839  0.8942  1.1393
 6051SOL     OW18722   5.440   7.362   1.470  0.1350 -0.1507  0.1723
 6051SOL    HW118723   5.474   7.295   1.411  0.0852 -0.5418  0.5809
 6051SOL    HW218724   5.400   7.427   1.412  0.7985 -0.1215 -0.2639
 6052SOL     OW18725   4.732   2.439   7.377  0.0656 -0.4176 -0.2812
 6052SOL    HW118726   4.723   2.531   7.400 -0.4035 -0.3970 -0.5297
 6052SOL    HW218727   4.822   2.417   7.399 -0.3031 -0.3622  1.4505
 6053SOL     OW18728   1.531   3.339   5.250  0.0943  0.2102 -0.4024
 6053SOL    HW118729   1.598   3.407   5.240 -0.8752  1.4665  1.1994
 6053SOL    HW218730   1.501   3.321   5.161 -0.3301  2.6416 -0.7959
 6054SOL     OW18731   1.279   5.388   1.231  0.6673  0.4946 -0.1757
 6054SOL    HW118732   1.309   5.307   1.189 -0.0974  0.5676 -0.8996
 6054SOL    HW218733   1.215   5.424   1.169  0.5171  1.3155  0.4439
 6055SOL     OW18734   6.445   7.285   0.281  0.1588 -0.1055  0.1681
 6055SOL    HW118735   6.538   7.302   0.294  0.2822 -0.8855  0.3769
 6055SOL    HW218736   6.401   7.342   0.344  0.3638  1.8175 -1.3393
 6056SOL     OW18737   0.392   0.308   7.265  0.0245 -0.1665 -0.3832
 6056SOL    HW118738   0.308   0.280   7.304 -0.2070  1.0668  0.0381
 6056SOL    HW218739   0.458   0.255   7.310 -0.3774  0.1683  0.6275
 6057SOL     OW18740   3.743   4.316   4.658  0.1646 -0.0528  0.1285
 6057SOL    HW118741   3.832   4.334   4.686  0.1759  0.7733 -0.4192
 6057SOL    HW218742   3.712   4.249   4.719  1.2643 -0.5974  0.1180
 6058SOL     OW18743   6.223   6.273   2.633  0.1595  0.2954  0.5699
 6058SOL    HW118744   6.142   6.224   2.641 -0.3805  1.0040 -0.3740
 6058SOL    HW218745   6.208   6.355   2.679  0.4742  0.2718  0.7218
 6059SOL     OW18746   1.191   1.213   4.413 -0.5036  0.1056  0.2013
 6059SOL    HW118747   1.142   1.134   4.391  0.4426 -0.3709 -0.2947
 6059SOL    HW218748   1.229   1.195   4.499 -0.5692  0.1612  0.2421
 6060SOL     OW18749   3.869   0.591   1.221 -0.1687 -0.5082  0.0898
 6060SOL    HW118750   3.951   0.589   1.170 -0.4774 -2.2180 -0.4285
 6060SOL    HW218751   3.897   0.596   1.312  0.4651  0.3791 -0.1443
 6061SOL     OW18752   0.654   4.607   0.936  0.8063 -0.3587  0.0747
 6061SOL    HW118753   0.579   4.652   0.975  0.3189 -0.3305 -0.8821
 6061SOL    HW218754   0.730   4.657   0.967  0.2980  0.9308 -0.6965
 6062SOL     OW18755   7.320   5.494   6.271  0.0337 -0.1230 -0.2808
 6062SOL    HW118756   7.404   5.458   6.299  0.7527  1.0675 -0.8387
 6062SOL    HW218757   7.326   5.496   6.175 -0.2081  0.9547 -0.2818
 6063SOL     OW18758   6.877   5.543   4.493  0.1731 -0.3737  0.4564
 6063SOL    HW118759   6.893   5.579   4.406  1.9699 -2.3236 -0.0812
 6063SOL    HW218760   6.836   5.458   4.477 -0.6203 -0.2325  1.5869
 6064SOL     OW18761   2.726   1.648   6.757 -0.1457  0.3801  0.0611
 6064SOL    HW118762   2.717   1.715   6.826 -0.0993 -0.1337  0.5714
 6064SOL    HW218763   2.661   1.673   6.691  0.9393  1.8408 -0.5155
 6065SOL     OW18764   4.542   0.728   1.128  0.6758 -0.1028  0.3189
 6065SOL    HW118765   4.572   0.813   1.160  0.7486 -0.2053  0.5217
 6065SOL    HW218766   4.449   0.725   1.153  0.8919 -0.4547  1.0922
 6066SOL     OW18767   1.012   5.573   1.480  0.2021  0.7057  0.6639
 6066SOL    HW118768   0.977   5.498   1.430  0.3033 -0.8304  2.7519
 6066SOL    HW218769   1.102   5.582   1.450 -0.4109  1.3756 -1.0911
 6067SOL     OW18770   7.357   1.181   2.091  0.2184  0.0071 -0.4025
 6067SOL    HW118771   7.359   1.269   2.053  1.2544 -0.1808 -0.8126
 6067SOL    HW218772   7.448   1.152   2.091  0.1796 -0.2522  1.7202
 6068SOL     OW18773   3.044   1.880   3.266 -0.3436 -0.1995 -0.4509
 6068SOL    HW118774   3.062   1.974   3.258  0.4359 -0.2258  0.7010
 6068SOL    HW218775   3.129   1.841   3.284 -0.7731 -1.0370 -0.1712
 6069SOL     OW18776   6.918   0.337   6.606 -0.1554  0.1243  0.0780
 6069SOL    HW118777   6.985   0.329   6.539 -1.1119  0.8856 -1.0061
 6069SOL    HW218778   6.926   0.427   6.637 -0.3813  0.0802  0.2691
 6070SOL     OW18779   0.443   0.506   5.587 -0.2320  0.0679 -0.9124
 6070SOL    HW118780   0.363   0.478   5.543 -1.0321  4.1962 -2.5287
 6070SOL    HW218781   0.412   0.556   5.663  0.8841  0.0546 -0.4238
 6071SOL     OW18782   4.339   1.011   0.359 -0.4047 -0.1048  0.3171
 6071SOL    HW118783   4.326   0.933   0.306 -0.7724  0.2768 -0.1650
 6071SOL    HW218784   4.422   0.996   0.404 -1.2042 -1.4487  1.4362
 6072SOL     OW18785   2.726   5.311   1.941  0.3245  0.3026  0.1400
 6072SOL    HW118786   2.781   5.233   1.930 -0.1982 -0.2584  1.3125
 6072SOL    HW218787   2.754   5.348   2.025  0.0393  0.9429 -0.0451
 6073SOL     OW18788   0.489   5.949   5.360  0.0060  0.3449 -0.3482
 6073SOL    HW118789   0.521   6.032   5.395 -0.0858  0.8772 -1.4840
 6073SOL    HW218790   0.394   5.960   5.355 -0.1698 -0.4332  0.9967
 6074SOL     OW18791   2.903   4.666   1.395  0.4429 -0.2273  0.1016
 6074SOL    HW118792   2.932   4.649   1.305 -0.2384 -0.4871 -0.0783
 6074SOL    HW218793   2.950   4.745   1.421  0.1687  0.2214 -0.7161
 6075SOL     OW18794   2.048   2.934   0.467 -0.3085  0.1614 -0.3247
 6075SOL    HW118795   2.024   3.011   0.520 -0.7432 -1.2891  1.6953
 6075SOL    HW218796   1.966   2.909   0.425 -0.5245 -0.0974  0.2434
 6076SOL     OW18797   0.136   4.736   7.265  0.2836  0.0275 -0.1539
 6076SOL    HW118798   0.176   4.778   7.342 -1.3422 -0.4177  0.9845
 6076SOL    HW218799   0.134   4.643   7.287 -1.3352  0.0382 -0.1649
 6077SOL     OW18800   1.000   7.092   4.106  0.5913 -0.3547 -0.2833
 6077SOL    HW118801   1.095   7.096   4.119  0.6407 -0.4328 -0.6154
 6077SOL    HW218802   0.989   7.039   4.027  0.2608 -0.5342 -0.1153
 6078SOL     OW18803   4.386   5.428   0.560 -0.3111  0.5388 -0.7944
 6078SOL    HW118804   4.404   5.340   0.527  1.7939  1.3225 -1.9737
 6078SOL    HW218805   4.305   5.454   0.517 -0.6395 -0.5951 -0.8904
 6079SOL     OW18806   5.000   0.664   2.492  0.6121  0.0322  0.5980
 6079SOL    HW118807   5.049   0.582   2.495 -0.1548 -0.4795 -0.1918
 6079SOL    HW218808   5.064   0.732   2.515  1.3335 -0.7456  0.9428
 6080SOL     OW18809   6.072   7.098   5.869 -0.4578 -0.3832  0.6661
 6080SOL    HW118810   6.093   7.019   5.818  0.7730  1.4116 -1.7977
 6080SOL    HW218811   5.977   7.093   5.882 -0.3646 -2.4314  0.9507
 6081SOL     OW18812   3.048   6.982   1.298  0.7070  0.3079  0.0545
 6081SOL    HW118813   3.090   6.918   1.241  0.4411 -0.5968  0.8272
 6081SOL    HW218814   3.067   6.951   1.387 -0.5438  0.5501  0.4313
 6082SOL     OW18815   2.556   6.621   4.214 -0.0772 -0.0591 -0.4499
 6082SOL    HW118816   2.611   6.544   4.200 -1.5658 -1.1336 -0.6280
 6082SOL    HW218817   2.543   6.658   4.126  0.3066  0.1616 -0.4147
 6083SOL     OW18818   7.248   4.452   6.043 -0.1165  0.1600  0.2183
 6083SOL    HW118819   7.341   4.464   6.059  0.4383 -1.2831 -1.5719
 6083SOL    HW218820   7.221   4.528   5.992 -0.2201  1.1409  1.6844
 6084SOL     OW18821   1.792   2.339   5.346  0.8639  0.1450 -0.2584
 6084SOL    HW118822   1.755   2.378   5.424  0.4058 -0.7335 -0.0275
 6084SOL    HW218823   1.750   2.253   5.339  0.0129  0.6551 -2.1099
 6085SOL     OW18824   2.113   3.722   2.395  0.3708 -0.2994 -0.7183
 6085SOL    HW118825   2.094   3.659   2.325  0.1744 -2.6764  1.3106
 6085SOL    HW218826   2.039   3.713   2.456  0.9046  1.1028  0.1891
 6086SOL     OW18827   1.138   0.570   4.002 -0.2214 -0.1384 -0.4226
 6086SOL    HW118828   1.136   0.570   3.906  2.1850 -0.7590 -0.5253
 6086SOL    HW218829   1.085   0.647   4.027 -0.0483  0.6262 -2.2711
 6087SOL     OW18830   3.927   6.999   3.961 -0.0373 -0.0142  0.0558
 6087SOL    HW118831   3.844   7.046   3.971  0.5284  1.0312 -0.0576
 6087SOL    HW218832   3.925   6.933   4.031 -0.2393  1.1038  1.1414
 6088SOL     OW18833   3.703   3.516   2.669 -0.8256  0.1879  0.7328
 6088SOL    HW118834   3.675   3.567   2.593 -2.2259 -0.6877  0.6181
 6088SOL    HW218835   3.742   3.437   2.632  0.1543  0.5821  0.9159
 6089SOL     OW18836   2.259   1.898   0.502 -0.0992 -0.5235  0.2159
 6089SOL    HW118837   2.288   1.918   0.413  0.8556 -0.7104  0.4645
 6089SOL    HW218838   2.327   1.938   0.558 -1.3418  0.7198  0.9141
 6090SOL     OW18839   3.985   3.894   2.416 -0.0800  0.4744  0.0673
 6090SOL    HW118840   3.892   3.909   2.430 -0.3777 -2.3848  2.0411
 6090SOL    HW218841   3.988   3.818   2.357  1.0091  0.6426 -0.1119
 6091SOL     OW18842   2.901   1.693   7.182 -0.5279 -0.2309  0.0034
 6091SOL    HW118843   2.910   1.645   7.264  1.8093  0.7547  0.4078
 6091SOL    HW218844   2.828   1.753   7.198 -1.0365 -1.0314  0.8207
 6092SOL     OW18845   3.944   4.748   4.946  0.3608 -0.0874 -0.6589
 6092SOL    HW118846   4.013   4.782   5.004 -1.8400  4.6302 -0.2979
 6092SOL    HW218847   3.974   4.771   4.858 -0.5213  1.7741 -0.5167
 6093SOL     OW18848   1.484   4.683   0.106  0.0069  0.6055 -0.0074
 6093SOL    HW118849   1.517   4.647   0.189  1.3401  1.0404 -0.3273
 6093SOL    HW218850   1.436   4.610   0.066  1.7205 -0.4996 -0.1346
 6094SOL     OW18851   7.261   1.979   6.265 -0.0869  0.4400 -0.0063
 6094SOL    HW118852   7.325   1.984   6.335 -0.9772 -1.7173  1.0563
 6094SOL    HW218853   7.277   2.057   6.211  1.3438  1.5623  1.9455
 6095SOL     OW18854   1.675   1.584   1.499  0.0184  0.1595 -0.2907
 6095SOL    HW118855   1.643   1.562   1.587  0.2305  0.1767 -0.2066
 6095SOL    HW218856   1.689   1.500   1.457 -1.0596  0.1586 -0.6756
 6096SOL     OW18857   4.697   1.580   7.121 -0.0157 -0.0413 -0.2439
 6096SOL    HW118858   4.749   1.631   7.183 -0.7133  0.0212  0.2963
 6096SOL    HW218859   4.744   1.497   7.113  1.4075  0.8342 -1.5116
 6097SOL     OW18860   2.221   6.859   1.119  0.1163  0.0563  0.6379
 6097SOL    HW118861   2.285   6.924   1.150 -0.7057  1.6165 -0.7940
 6097SOL    HW218862   2.138   6.907   1.116 -0.2781 -0.6468 -1.6896
 6098SOL     OW18863   6.777   3.473   5.071  0.2092 -0.3133  0.2751
 6098SOL    HW118864   6.801   3.464   4.979 -0.4746 -1.4975  0.1860
 6098SOL    HW218865   6.704   3.413   5.082 -1.8152  2.0617  0.8503
 6099SOL     OW18866   0.502   3.570   3.251  0.5317  0.0190 -0.2771
 6099SOL    HW118867   0.452   3.488   3.252  1.0783 -0.3731  2.2437
 6099SOL    HW218868   0.578   3.550   3.196  0.3618 -0.9912 -0.1714
 6100SOL     OW18869   0.798   6.053   7.017 -0.6589  0.5038 -0.0198
 6100SOL    HW118870   0.862   6.123   7.030  0.8576 -0.7737 -0.3149
 6100SOL    HW218871   0.805   6.000   7.097 -1.0871  0.1389 -0.2241
 6101SOL     OW18872   4.121   0.454   7.037 -0.3612 -0.2646  0.0224
 6101SOL    HW118873   4.145   0.404   7.115 -0.9899  0.3067  0.5967
 6101SOL    HW218874   4.175   0.533   7.043 -2.4285  1.1335  1.4408
 6102SOL     OW18875   4.546   3.902   2.623  0.7373  0.2658 -0.1590
 6102SOL    HW118876   4.598   3.973   2.661  0.6992  0.7226 -0.9442
 6102SOL    HW218877   4.550   3.832   2.688 -0.2099  1.3980  1.1924
 6103SOL     OW18878   1.487   3.970   6.154 -0.5216 -0.1979  0.2762
 6103SOL    HW118879   1.562   3.946   6.100 -0.1551  0.1180  0.6435
 6103SOL    HW218880   1.411   3.935   6.107 -0.0708 -1.3995  0.4027
 6104SOL     OW18881   2.325   0.385   1.500  0.2667 -0.1767 -0.2190
 6104SOL    HW118882   2.309   0.466   1.451  2.7984  0.9673  0.6384
 6104SOL    HW218883   2.412   0.357   1.472 -0.9030 -3.2506 -1.2204
 6105SOL     OW18884   6.371   4.472   7.329  0.0405  0.0804  0.7056
 6105SOL    HW118885   6.345   4.406   7.265 -2.8724  0.4587  1.3675
 6105SOL    HW218886   6.431   4.425   7.388 -0.3878 -1.3914  0.0195
 6106SOL     OW18887   1.431   0.816   0.587  0.2402 -0.6751 -0.0564
 6106SOL    HW118888   1.378   0.829   0.666  0.3350  1.5261 -0.2871
 6106SOL    HW218889   1.499   0.883   0.591  0.4118 -0.6668 -1.8622
 6107SOL     OW18890   6.511   2.988   7.257 -0.5391 -0.0348 -0.3899
 6107SOL    HW118891   6.487   3.047   7.185  0.0842 -1.0372 -1.4648
 6107SOL    HW218892   6.544   3.045   7.325  2.5015  0.7642 -2.3494
 6108SOL     OW18893   3.418   2.126   7.054  0.2817  0.6424 -0.9616
 6108SOL    HW118894   3.457   2.040   7.068 -0.9860  0.3322  1.0270
 6108SOL    HW218895   3.477   2.169   6.992 -0.1803 -2.3839 -3.7894
 6109SOL     OW18896   6.310   0.740   3.832 -0.2226 -0.4231 -0.2465
 6109SOL    HW118897   6.249   0.672   3.859 -1.6944  1.0939  0.4411
 6109SOL    HW218898   6.372   0.695   3.775 -1.6082 -2.1586 -0.4880
 6110SOL     OW18899   5.519   0.529   5.519  0.2750  0.1924  0.7560
 6110SOL    HW118900   5.498   0.526   5.612 -0.3474 -0.7495  0.5945
 6110SOL    HW218901   5.582   0.601   5.511  0.5878  0.0657  1.9469
 6111SOL     OW18902   7.204   6.343   3.122  0.1907  0.3535  0.3319
 6111SOL    HW118903   7.282   6.388   3.154 -0.2232  0.8123  0.6973
 6111SOL    HW218904   7.222   6.328   3.029  1.7495 -1.7155  0.8901
 6112SOL     OW18905   2.015   0.160   3.091  0.6049  0.2114  1.0703
 6112SOL    HW118906   2.008   0.070   3.122 -1.8592  0.2242  0.7471
 6112SOL    HW218907   1.985   0.214   3.164 -0.5059  0.5691  0.3695
 6113SOL     OW18908   2.084   7.159   4.373 -0.1634 -0.3922  0.5494
 6113SOL    HW118909   2.028   7.214   4.319 -0.7227  0.5657  2.0254
 6113SOL    HW218910   2.144   7.117   4.311  0.5157  2.1324 -0.6476
 6114SOL     OW18911   2.063   0.889   0.470 -0.0248 -0.5943 -0.1524
 6114SOL    HW118912   1.991   0.831   0.497 -0.3594 -0.3831 -0.5821
 6114SOL    HW218913   2.124   0.831   0.424  0.4235 -0.9065  0.8029
 6115SOL     OW18914   2.133   5.950   2.957  0.3675  0.2485  0.1351
 6115SOL    HW118915   2.129   5.893   2.879  0.7638  0.9147 -0.3786
 6115SOL    HW218916   2.166   5.892   3.026 -1.7845 -0.8724  0.3139
 6116SOL     OW18917   0.024   4.340   2.925  0.4550  0.4808  0.2398
 6116SOL    HW118918   0.059   4.361   2.839 -1.8019  2.3586 -0.3322
 6116SOL    HW218919   0.045   4.417   2.979 -1.8919  1.2998  0.0928
 6117SOL     OW18920   1.913   1.774   6.888 -0.0519  0.0716  0.1055
 6117SOL    HW118921   1.940   1.770   6.796  2.2155 -1.4396  0.7544
 6117SOL    HW218922   1.920   1.867   6.910 -0.4038  0.4238 -1.1570
 6118SOL     OW18923   1.222   2.729   2.260  0.1068  0.8946  0.2377
 6118SOL    HW118924   1.201   2.782   2.183  0.3178  1.1485  0.3545
 6118SOL    HW218925   1.219   2.639   2.229 -1.5544  0.8828  0.3304
 6119SOL     OW18926   3.871   6.981   1.268  0.6111 -0.3479 -0.1992
 6119SOL    HW118927   3.949   6.934   1.298  0.5082 -1.3032 -1.3841
 6119SOL    HW218928   3.809   6.913   1.245 -1.1561  0.3868  2.0224
 6120SOL     OW18929   5.937   4.452   6.131 -0.2286 -0.4537  0.0028
 6120SOL    HW118930   5.879   4.495   6.068 -0.8895 -1.2111  0.0819
 6120SOL    HW218931   6.024   4.488   6.112 -1.0004  2.3712  1.3097
 6121SOL     OW18932   4.356   5.118   6.176  0.2622  0.1973  0.1733
 6121SOL    HW118933   4.415   5.175   6.225  0.6314  0.5642 -0.6838
 6121SOL    HW218934   4.317   5.176   6.110  1.2249 -0.6844 -1.2212
 6122SOL     OW18935   3.784   3.775   5.953  0.4020  0.0018  0.3272
 6122SOL    HW118936   3.809   3.841   6.017  1.0826  0.2790 -0.2022
 6122SOL    HW218937   3.699   3.804   5.920  0.5113  0.3966  0.3869
 6123SOL     OW18938   6.830   4.158   5.761 -0.1322 -0.5128 -0.8168
 6123SOL    HW118939   6.921   4.170   5.788 -0.2389 -1.0288 -0.2257
 6123SOL    HW218940   6.793   4.098   5.825 -0.9993 -0.0143 -0.8370
 6124SOL     OW18941   0.088   5.856   3.400 -0.6113 -0.4692 -0.3535
 6124SOL    HW118942   0.151   5.785   3.383 -0.8440 -0.4072 -1.5387
 6124SOL    HW218943   0.142   5.932   3.417 -0.3324 -1.1139  1.9868
 6125SOL     OW18944   2.671   2.060   7.392  0.3646  0.2715 -0.4772
 6125SOL    HW118945   2.735   2.010   7.443  0.3109  0.7569  0.0794
 6125SOL    HW218946   2.606   2.089   7.456  1.2753  2.4626 -0.4453
 6126SOL     OW18947   6.791   4.700   0.999  0.3939 -0.4661 -0.2670
 6126SOL    HW118948   6.725   4.766   1.020 -0.8444 -0.3779 -3.8103
 6126SOL    HW218949   6.875   4.746   1.004 -0.2055  0.6231 -0.0260
 6127SOL     OW18950   6.878   3.709   3.699  0.3066  0.2149  0.4414
 6127SOL    HW118951   6.783   3.721   3.710  0.3048  0.3195  0.3084
 6127SOL    HW218952   6.886   3.627   3.651  0.2146  1.0742 -1.1135
 6128SOL     OW18953   0.561   5.098   2.519 -0.0368 -0.2648  0.2753
 6128SOL    HW118954   0.637   5.115   2.574 -0.5277 -1.1782  1.2697
 6128SOL    HW218955   0.582   5.016   2.473  0.4206  0.5522 -1.0109
 6129SOL     OW18956   0.796   4.673   7.206  0.2362  0.3243  0.0294
 6129SOL    HW118957   0.815   4.727   7.129  2.8600 -2.1778 -1.2880
 6129SOL    HW218958   0.733   4.608   7.176 -4.3576  3.2987  2.0781
 6130SOL     OW18959   6.861   1.630   5.137  0.3066 -0.0466 -0.1371
 6130SOL    HW118960   6.956   1.618   5.138  0.2569 -0.4347  0.6945
 6130SOL    HW218961   6.849   1.725   5.141  0.6554 -0.0074  0.0331
 6131SOL     OW18962   2.356   6.561   1.279  0.5069 -0.1469  0.0103
 6131SOL    HW118963   2.330   6.501   1.209  0.3870  0.3319 -0.3617
 6131SOL    HW218964   2.437   6.602   1.246  0.7213 -0.2847  0.3654
 6132SOL     OW18965   2.714   4.893   5.146 -0.1475  0.2768  0.4686
 6132SOL    HW118966   2.631   4.860   5.180 -0.1294  0.2194  0.4573
 6132SOL    HW218967   2.692   4.930   5.060 -0.4667  1.7593  1.1549
 6133SOL     OW18968   1.617   5.261   3.407  0.3894  0.5867  0.5317
 6133SOL    HW118969   1.538   5.300   3.442 -1.7626 -2.2176 -0.7410
 6133SOL    HW218970   1.646   5.322   3.339 -0.8498  1.5340  0.8166
 6134SOL     OW18971   2.491   5.492   0.652 -0.1516 -0.0973 -0.5533
 6134SOL    HW118972   2.553   5.446   0.709  0.0753  1.1361  0.2351
 6134SOL    HW218973   2.545   5.544   0.593 -0.3801 -1.4848 -2.0713
 6135SOL     OW18974   0.120   0.671   5.910  0.4942  0.1947  0.1546
 6135SOL    HW118975   0.030   0.696   5.933  0.7462  1.1144  0.2102
 6135SOL    HW218976   0.174   0.737   5.955  1.1859 -0.2744  0.0154
 6136SOL     OW18977   1.598   0.204   7.400  0.5705  0.5154 -0.0325
 6136SOL    HW118978   1.606   0.138   7.470  0.5704  0.5748  0.0241
 6136SOL    HW218979   1.687   0.240   7.392  0.6347  0.3097 -0.2600
 6137SOL     OW18980   0.325   0.970   2.352 -0.2633 -0.0522  0.1257
 6137SOL    HW118981   0.237   0.971   2.391 -0.5523  1.4367 -0.4946
 6137SOL    HW218982   0.343   0.877   2.336 -1.9858 -0.3499 -0.2788
 6138SOL     OW18983   4.056   5.705   0.999  0.1846 -0.3085  0.0978
 6138SOL    HW118984   4.077   5.643   0.930 -1.3280 -1.1088  0.3027
 6138SOL    HW218985   4.037   5.651   1.075 -1.9138  0.3034  0.0853
 6139SOL     OW18986   1.570   4.997   4.399 -0.1304  0.0708  0.7247
 6139SOL    HW118987   1.561   4.911   4.359 -0.4717  0.9004 -1.1278
 6139SOL    HW218988   1.652   4.994   4.447 -0.4208 -1.4475  1.1566
 6140SOL     OW18989   6.829   3.944   2.226 -0.2178  0.0703  0.4796
 6140SOL    HW118990   6.766   3.902   2.285  1.2380 -0.8263  1.4551
 6140SOL    HW218991   6.821   3.895   2.144 -1.3498  0.5009  0.3099
 6141SOL     OW18992   7.118   0.350   2.544  0.3522  0.2357 -0.0852
 6141SOL    HW118993   7.104   0.443   2.563 -0.7849 -0.3205  2.0591
 6141SOL    HW218994   7.078   0.337   2.457  0.0857  1.6284 -0.1984
 6142SOL     OW18995   4.687   2.689   0.036  0.2357 -0.3535  0.0684
 6142SOL    HW118996   4.624   2.673   0.106 -1.2866 -0.0153 -1.1650
 6142SOL    HW218997   4.736   2.766   0.064 -0.4064 -0.1782  0.7165
 6143SOL     OW18998   6.913   3.176   5.499  0.1209  0.4022  0.6066
 6143SOL    HW118999   6.976   3.147   5.433 -2.2048 -2.0186 -0.7620
 6143SOL    HW219000   6.851   3.231   5.451 -0.2945  0.5514  1.2960
 6144SOL     OW19001   4.885   0.321   4.716 -0.2161  0.2622 -0.1230
 6144SOL    HW119002   4.812   0.259   4.716 -0.9641  1.0633  1.7089
 6144SOL    HW219003   4.849   0.400   4.675  0.1016  0.1768 -0.5757
 6145SOL     OW19004   6.751   1.994   1.714  0.1783 -0.7704  0.2325
 6145SOL    HW119005   6.668   2.041   1.705  0.0946 -0.7025  1.3129
 6145SOL    HW219006   6.806   2.029   1.643 -0.5925 -0.5730 -0.2766
 6146SOL     OW19007   2.583   4.877   3.535  0.2699 -0.2292  0.2689
 6146SOL    HW119008   2.529   4.811   3.579  0.9983 -0.1243  1.3723
 6146SOL    HW219009   2.635   4.828   3.471  1.3913 -0.8921  1.6231
 6147SOL     OW19010   4.204   5.112   3.065 -0.0900 -0.4489 -0.0471
 6147SOL    HW119011   4.269   5.131   2.998 -0.1118 -1.3692 -0.3475
 6147SOL    HW219012   4.174   5.198   3.095 -0.3503 -0.0184 -1.4760
 6148SOL     OW19013   7.366   6.774   6.099  0.0864 -0.4526 -0.0808
 6148SOL    HW119014   7.436   6.825   6.139  1.1722 -1.5209 -0.5575
 6148SOL    HW219015   7.389   6.683   6.117 -0.8708 -0.8448 -0.7472
 6149SOL     OW19016   2.864   4.765   4.056  0.3648 -0.0664 -0.3195
 6149SOL    HW119017   2.843   4.842   4.108  0.5285 -0.4551  0.3331
 6149SOL    HW219018   2.807   4.771   3.979 -0.5982  0.0089  0.3827
 6150SOL     OW19019   1.503   4.996   6.229  0.1878 -0.0222  0.4113
 6150SOL    HW119020   1.434   4.937   6.198  1.5383 -1.6408  0.3875
 6150SOL    HW219021   1.499   5.071   6.169 -0.5573 -0.7761 -0.5137
 6151SOL     OW19022   7.089   3.208   3.703  0.4117  0.0187 -0.3268
 6151SOL    HW119023   7.041   3.163   3.773  3.1830 -0.6612  1.2752
 6151SOL    HW219024   7.027   3.210   3.630 -2.3487  0.0592  1.8316
 6152SOL     OW19025   1.763   5.590   3.831 -0.1125 -0.5617  0.0769
 6152SOL    HW119026   1.770   5.501   3.865  0.4939 -1.1241 -1.4220
 6152SOL    HW219027   1.683   5.591   3.778 -0.5730  0.0355  0.7704
 6153SOL     OW19028   5.934   3.971   3.795  0.4795  0.1519 -0.4952
 6153SOL    HW119029   5.876   4.030   3.746  0.1980  0.5062  0.2399
 6153SOL    HW219030   6.009   4.026   3.818  1.2037 -0.3555 -1.5974
 6154SOL     OW19031   5.230   6.548   0.367  0.2329  0.7166 -0.2692
 6154SOL    HW119032   5.169   6.566   0.295  0.4559  0.6749 -0.4712
 6154SOL    HW219033   5.176   6.511   0.436  0.0352  0.6462 -0.4617
 6155SOL     OW19034   0.994   4.210   1.823 -0.5607  0.1061  0.4840
 6155SOL    HW119035   0.984   4.302   1.798 -1.3670 -0.1927 -0.3458
 6155SOL    HW219036   0.953   4.204   1.909  1.2434  0.9141  1.4559
 6156SOL     OW19037   0.350   0.582   6.115 -0.7157  0.3933  0.4815
 6156SOL    HW119038   0.422   0.612   6.172 -1.2999  1.3801  0.7124
 6156SOL    HW219039   0.314   0.662   6.078  0.5213 -0.2725 -2.4274
 6157SOL     OW19040   5.740   2.817   1.465  0.1396  1.0438  0.0226
 6157SOL    HW119041   5.668   2.760   1.438 -0.3880  1.6923  0.0163
 6157SOL    HW219042   5.812   2.758   1.487 -0.6739  0.3397  0.8544
 6158SOL     OW19043   5.710   6.523   0.677 -0.1326  0.5252 -0.1413
 6158SOL    HW119044   5.623   6.519   0.717  0.2002  1.2784  0.7017
 6158SOL    HW219045   5.770   6.509   0.750  0.4559 -0.0431 -0.7305
 6159SOL     OW19046   6.792   2.948   1.185 -0.6466 -0.0397  0.2940
 6159SOL    HW119047   6.865   3.010   1.180 -0.5044 -0.2512 -0.3212
 6159SOL    HW219048   6.783   2.914   1.096 -0.1559 -1.5740  0.8055
 6160SOL     OW19049   0.767   4.263   7.336  0.2710  0.2064 -0.5499
 6160SOL    HW119050   0.704   4.301   7.274 -1.5539 -0.0900  1.0229
 6160SOL    HW219051   0.824   4.208   7.282 -1.2046  0.0201 -1.9876
 6161SOL     OW19052   3.988   0.044   4.218 -0.3740 -0.1619 -0.3681
 6161SOL    HW119053   3.966  -0.047   4.237  1.4679 -0.1588  2.4791
 6161SOL    HW219054   4.074   0.039   4.176  0.4345  0.2135  1.1367
 6162SOL     OW19055   2.614   3.832   1.797 -0.2044  0.5481 -0.2251
 6162SOL    HW119056   2.634   3.739   1.809 -3.2486 -0.2336 -0.1644
 6162SOL    HW219057   2.566   3.835   1.714 -1.5605  1.7445  0.5567
 6163SOL     OW19058   5.804   3.438   7.029  0.3838  0.3172 -0.5558
 6163SOL    HW119059   5.834   3.397   7.110 -0.8630 -2.4367 -1.3827
 6163SOL    HW219060   5.766   3.522   7.057  0.8794 -0.1097  1.5506
 6164SOL     OW19061   3.795   4.968   3.370  0.2542 -0.0478 -0.3947
 6164SOL    HW119062   3.868   5.012   3.326 -0.8446 -0.0267 -2.3375
 6164SOL    HW219063   3.791   4.882   3.328  1.4196 -1.5084  2.2924
 6165SOL     OW19064   3.657   4.147   0.945 -0.0440 -0.4258  0.3780
 6165SOL    HW119065   3.693   4.060   0.928  0.0721 -0.4778  0.8871
 6165SOL    HW219066   3.693   4.172   1.030 -1.5705 -0.6773  1.1350
 6166SOL     OW19067   6.534   0.641   3.294 -0.5291  0.6096  0.3154
 6166SOL    HW119068   6.442   0.620   3.278 -0.8250  2.3286 -0.5114
 6166SOL    HW219069   6.532   0.731   3.327  0.9613  1.3574 -1.4705
 6167SOL     OW19070   0.367   6.946   4.644  0.0798 -0.2700  0.2242
 6167SOL    HW119071   0.432   6.947   4.715  1.5243 -2.2008 -0.9889
 6167SOL    HW219072   0.307   6.875   4.667  0.2898 -0.6070 -0.2590
 6168SOL     OW19073   1.524   4.995   0.888 -0.0052  0.1091 -0.1798
 6168SOL    HW119074   1.430   5.006   0.876 -0.0562 -0.4774 -0.3468
 6168SOL    HW219075   1.533   4.910   0.932  0.2826  1.3620  2.4034
 6169SOL     OW19076   1.298   2.774   0.352 -0.5793  0.3607 -0.1062
 6169SOL    HW119077   1.261   2.739   0.432 -1.1642 -0.0709 -0.5580
 6169SOL    HW219078   1.330   2.697   0.305 -0.2023  0.6134 -0.2698
 6170SOL     OW19079   2.428   6.230   6.993  0.2970  0.0927  0.5962
 6170SOL    HW119080   2.446   6.324   6.999  1.8338 -0.1809  0.7981
 6170SOL    HW219081   2.394   6.207   7.079 -1.8914  0.7666 -0.0181
 6171SOL     OW19082   3.963   4.166   5.678  0.6322 -0.1056  0.1480
 6171SOL    HW119083   3.903   4.190   5.748  0.5975 -2.8476  1.1844
 6171SOL    HW219084   3.936   4.077   5.653  2.2552 -0.1710 -1.5926
 6172SOL     OW19085   6.056   2.615   4.740 -0.4108  0.0871 -0.1707
 6172SOL    HW119086   5.977   2.667   4.751 -0.5914 -0.4097  0.9242
 6172SOL    HW219087   6.026   2.534   4.699 -0.0854  0.9151 -2.1838
 6173SOL     OW19088   4.523   6.751   0.483  0.5249 -0.0278  0.1829
 6173SOL    HW119089   4.466   6.678   0.460  0.2670 -0.2574  1.4504
 6173SOL    HW219090   4.496   6.822   0.425 -0.7476 -0.2745  0.4334
 6174SOL     OW19091   4.939   1.137   0.488  0.3926  0.4924  0.2317
 6174SOL    HW119092   4.985   1.154   0.570 -0.2281 -0.2893  0.7634
 6174SOL    HW219093   4.962   1.047   0.465 -1.8836 -0.4442  1.2591
 6175SOL     OW19094   6.982   2.775   4.194  0.3878 -0.0749  0.4610
 6175SOL    HW119095   7.002   2.811   4.108  1.5363  1.4681  1.3300
 6175SOL    HW219096   6.909   2.715   4.178 -0.1401  0.9717 -1.4146
 6176SOL     OW19097   2.681   3.459   3.303 -0.0957  0.2494 -0.3023
 6176SOL    HW119098   2.725   3.376   3.321 -0.9607 -0.2727 -0.5203
 6176SOL    HW219099   2.644   3.448   3.215  0.3537  1.1259 -0.6107
 6177SOL     OW19100   1.467   1.595   6.487 -0.0452  0.1194  0.2275
 6177SOL    HW119101   1.426   1.517   6.525  0.1026 -0.2976 -0.4608
 6177SOL    HW219102   1.541   1.561   6.437 -2.0483  0.2563 -3.1587
 6178SOL     OW19103   3.338   1.700   4.126 -0.0802 -0.4348 -0.0115
 6178SOL    HW119104   3.320   1.606   4.119 -0.4038 -0.3822  0.1094
 6178SOL    HW219105   3.401   1.708   4.198 -1.2719 -0.4085  1.0564
 6179SOL     OW19106   4.746   2.935   7.203  0.1016  0.2639 -0.7196
 6179SOL    HW119107   4.735   3.021   7.244 -0.1106  0.9956 -2.2228
 6179SOL    HW219108   4.812   2.949   7.135  1.2274 -1.1586  0.0239
 6180SOL     OW19109   4.560   6.201   7.090 -0.2205 -0.5263  0.2320
 6180SOL    HW119110   4.603   6.193   7.005 -3.8849 -0.1915 -1.8402
 6180SOL    HW219111   4.544   6.110   7.117 -0.3936 -0.6203 -0.1819
 6181SOL     OW19112   6.888   2.041   5.344  0.0454  0.3283 -0.4249
 6181SOL    HW119113   6.976   2.022   5.374 -0.6787 -0.8159  1.0939
 6181SOL    HW219114   6.900   2.086   5.260  2.0295 -0.3923 -0.5617
 6182SOL     OW19115   0.758   2.482   0.292 -0.5048  0.4347  0.4636
 6182SOL    HW119116   0.839   2.432   0.281 -0.3760  0.9078 -1.0105
 6182SOL    HW219117   0.754   2.503   0.385  0.1164 -1.1690  0.8842
 6183SOL     OW19118   2.468   2.030   0.591  0.1726 -0.2036  0.4396
 6183SOL    HW119119   2.536   2.053   0.528 -2.5072  4.2323 -1.2367
 6183SOL    HW219120   2.488   2.084   0.668 -0.6435  0.0120  0.5040
 6184SOL     OW19121   1.273   2.574   1.737 -0.1986 -0.2993  0.8655
 6184SOL    HW119122   1.269   2.651   1.680  2.8504 -0.6853 -0.0190
 6184SOL    HW219123   1.295   2.609   1.823 -0.8610 -0.0535  0.9445
 6185SOL     OW19124   4.896   1.525   0.287  0.6518 -0.3874  0.1131
 6185SOL    HW119125   4.973   1.555   0.239  1.8400 -0.3353  1.9540
 6185SOL    HW219126   4.822   1.546   0.230  1.7528  2.2999 -0.4434
 6186SOL     OW19127   3.142   3.029   6.090 -0.2375 -0.0740 -0.1071
 6186SOL    HW119128   3.223   2.985   6.116 -0.2267  0.3843  0.6700
 6186SOL    HW219129   3.170   3.091   6.022 -0.4110 -1.9105 -1.9612
 6187SOL     OW19130   0.848   3.410   6.627  0.3322  0.2435  0.4173
 6187SOL    HW119131   0.882   3.326   6.656 -1.6671 -2.4119 -3.9308
 6187SOL    HW219132   0.758   3.392   6.599  0.3845  3.2990 -2.4766
 6188SOL     OW19133   0.724   1.569   3.265 -0.0145  0.1035 -0.6457
 6188SOL    HW119134   0.752   1.659   3.284  1.3863 -0.1073 -1.6333
 6188SOL    HW219135   0.734   1.560   3.171  0.4933 -1.2982 -0.4733
 6189SOL     OW19136   2.319   0.835   0.188  0.0165  0.0945  0.0418
 6189SOL    HW119137   2.325   0.740   0.187  1.4068  0.1481 -1.3020
 6189SOL    HW219138   2.230   0.855   0.158 -0.2898 -0.7734  0.3643
 6190SOL     OW19139   2.270   6.595   0.582 -0.0956  0.5428 -0.0623
 6190SOL    HW119140   2.194   6.566   0.633  0.1980 -0.4179 -0.1437
 6190SOL    HW219141   2.275   6.689   0.597 -0.4293  0.3837  1.1302
 6191SOL     OW19142   6.952   3.167   1.151  0.1397  0.0539 -0.1656
 6191SOL    HW119143   6.995   3.249   1.176 -0.5512  0.2960  0.2849
 6191SOL    HW219144   6.962   3.161   1.057  0.5171  0.4761 -0.1524
 6192SOL     OW19145   6.462   7.245   6.026 -0.1886 -0.1371 -0.4826
 6192SOL    HW119146   6.525   7.310   6.058 -0.9121  0.2751  0.1564
 6192SOL    HW219147   6.499   7.214   5.944  2.3825 -2.1060  1.2662
 6193SOL     OW19148   7.117   5.995   1.086 -0.0855  0.1965  0.4862
 6193SOL    HW119149   7.105   5.901   1.101 -0.3779  0.3857  1.5069
 6193SOL    HW219150   7.204   6.014   1.119  1.3171 -0.2694 -2.5922
 6194SOL     OW19151   5.492   3.895   6.127  0.3352  0.3187 -0.4670
 6194SOL    HW119152   5.471   3.979   6.087  0.2246  1.5664  2.0482
 6194SOL    HW219153   5.432   3.888   6.202  0.8543 -1.6509 -0.1662
 6195SOL     OW19154   6.611   2.377   5.620 -0.1688 -0.1117  0.4233
 6195SOL    HW119155   6.590   2.411   5.533 -1.9293  0.6674  1.0989
 6195SOL    HW219156   6.621   2.283   5.607 -0.6780 -0.0438 -0.5812
 6196SOL     OW19157   4.996   6.134   5.776  0.3561 -0.1787 -0.0551
 6196SOL    HW119158   5.070   6.193   5.787 -0.3387  0.4667  1.5177
 6196SOL    HW219159   4.957   6.129   5.864 -1.2969 -0.7058 -0.7877
 6197SOL     OW19160   0.300   2.175   6.537  0.3251 -0.3391 -0.1704
 6197SOL    HW119161   0.388   2.205   6.558  0.2429 -0.8808  1.0290
 6197SOL    HW219162   0.253   2.177   6.621 -0.2255 -1.9409 -0.4113
 6198SOL     OW19163   0.744   2.510   3.208 -0.3167 -0.3192 -0.1132
 6198SOL    HW119164   0.794   2.432   3.233 -2.0814 -2.0629 -1.7433
 6198SOL    HW219165   0.658   2.476   3.183 -1.7993  2.3874  0.9326
 6199SOL     OW19166   3.091   5.196   5.470  0.4471 -0.0207 -0.2455
 6199SOL    HW119167   3.033   5.251   5.417 -0.0576 -1.4368 -1.2233
 6199SOL    HW219168   3.143   5.258   5.521  0.3955  1.3756 -1.8239
 6200SOL     OW19169   0.147   5.353   6.351  0.0532 -0.6782  0.6157
 6200SOL    HW119170   0.162   5.300   6.274 -0.4308  0.1969 -0.1027
 6200SOL    HW219171   0.208   5.427   6.342  1.8381 -1.8348  2.3734
 6201SOL     OW19172   6.775   4.175   6.289  0.0660 -0.6694 -0.4503
 6201SOL    HW119173   6.740   4.260   6.315  0.6760 -1.0101  1.6514
 6201SOL    HW219174   6.853   4.195   6.238  1.3400  0.0803  1.6910
 6202SOL     OW19175   1.678   5.336   1.595  0.3049 -0.0212 -0.2162
 6202SOL    HW119176   1.768   5.334   1.629  0.0638 -0.2718  0.4179
 6202SOL    HW219177   1.678   5.273   1.523 -0.3115 -2.9336  2.1802
 6203SOL     OW19178   0.057   0.968   4.019  0.2184 -0.5116 -0.0033
 6203SOL    HW119179  -0.002   1.043   4.019  1.2872  0.3680  0.6414
 6203SOL    HW219180   0.064   0.942   4.111  1.3203 -0.1853  0.0241
 6204SOL     OW19181   3.279   4.727   6.109 -0.2575 -0.0703  0.3446
 6204SOL    HW119182   3.195   4.770   6.090  0.2501  0.7970  0.0036
 6204SOL    HW219183   3.255   4.639   6.138 -1.2185 -0.3586 -1.2139
 6205SOL     OW19184   4.512   3.774   7.018 -1.1238  0.3899 -0.0677
 6205SOL    HW119185   4.422   3.759   6.990 -0.7710 -1.4832 -0.3587
 6205SOL    HW219186   4.562   3.706   6.973  0.4072  1.2724  0.2432
 6206SOL     OW19187   5.433   7.224   3.903 -0.8096  0.0079  0.3009
 6206SOL    HW119188   5.420   7.279   3.826 -2.2997 -1.7020 -0.7265
 6206SOL    HW219189   5.438   7.135   3.869  0.1539 -0.6538  2.0485
 6207SOL     OW19190   5.093   2.828   5.378  0.3807 -0.3839  0.8096
 6207SOL    HW119191   5.092   2.811   5.284  0.0433 -1.1300  0.9390
 6207SOL    HW219192   5.176   2.874   5.394 -0.4734  1.6390 -0.1569
 6208SOL     OW19193   7.074   5.942   3.203 -0.9498  0.2091  0.6757
 6208SOL    HW119194   7.169   5.950   3.214 -0.6801 -0.8517 -0.5523
 6208SOL    HW219195   7.045   6.030   3.179 -0.2677  0.5292  0.9908
 6209SOL     OW19196   3.552   4.908   2.544  0.2837 -0.3531  0.2508
 6209SOL    HW119197   3.467   4.930   2.507  0.7930  0.0971 -0.6963
 6209SOL    HW219198   3.550   4.943   2.633 -0.5536 -0.4445  0.2723
 6210SOL     OW19199   5.791   6.843   2.143  0.1141 -0.3147 -0.4336
 6210SOL    HW119200   5.874   6.889   2.156  0.9906 -1.0599 -2.8920
 6210SOL    HW219201   5.725   6.907   2.170  1.4257  0.2103  1.8211
 6211SOL     OW19202   4.301   5.091   1.043  0.4103  0.0783 -0.3058
 6211SOL    HW119203   4.267   5.003   1.058 -1.1685  0.9817  2.1858
 6211SOL    HW219204   4.226   5.140   1.009 -0.1530  1.3984  2.4938
 6212SOL     OW19205   7.341   0.712   2.292 -0.2999 -0.0715 -0.0971
 6212SOL    HW119206   7.249   0.739   2.289 -0.6601 -1.2816 -0.7402
 6212SOL    HW219207   7.341   0.633   2.346  0.2143 -0.5905 -0.8377
 6213SOL     OW19208   5.340   1.995   0.953  0.3803 -0.2379 -0.1307
 6213SOL    HW119209   5.383   1.912   0.972  1.8013  0.5898  0.4194
 6213SOL    HW219210   5.390   2.033   0.882 -0.3923  0.0675 -0.5270
 6214SOL     OW19211   0.578   3.097   5.189  0.5661  0.0327 -0.8126
 6214SOL    HW119212   0.636   3.034   5.147  1.2832  1.1133 -1.4831
 6214SOL    HW219213   0.616   3.183   5.170  0.2930  0.6423  1.1010
 6215SOL     OW19214   4.452   1.300   2.109  0.1222 -0.5253 -0.1644
 6215SOL    HW119215   4.537   1.321   2.147 -0.6054  1.8676  0.2858
 6215SOL    HW219216   4.415   1.385   2.083 -1.7365 -1.5831 -1.2288
 6216SOL     OW19217   4.843   1.872   0.789  0.2313  0.5497  0.0221
 6216SOL    HW119218   4.847   1.963   0.820 -0.9809  0.1696  1.3981
 6216SOL    HW219219   4.910   1.868   0.720  0.5411  2.3905  0.1455
 6217SOL     OW19220   4.346   0.891   6.382  0.0043  0.4743 -0.3365
 6217SOL    HW119221   4.358   0.796   6.378  1.0855  0.6183 -1.0650
 6217SOL    HW219222   4.424   0.927   6.339  0.6671  1.7637  1.7776
 6218SOL     OW19223   6.100   0.860   7.345  0.4939  0.8162 -0.1839
 6218SOL    HW119224   6.103   0.945   7.301  3.0729  0.1276 -1.5643
 6218SOL    HW219225   6.124   0.797   7.276 -1.4263 -1.0965  0.7595
 6219SOL     OW19226   3.627   5.128   3.210 -0.5539  0.4436 -0.1185
 6219SOL    HW119227   3.551   5.081   3.174 -2.4340  1.2917  2.3922
 6219SOL    HW219228   3.672   5.063   3.264 -0.4668  0.3630 -0.2873
 6220SOL     OW19229   6.749   4.176   7.406  0.4645 -0.0211  0.1309
 6220SOL    HW119230   6.678   4.163   7.343 -2.7571  1.6889  3.0602
 6220SOL    HW219231   6.748   4.271   7.423  2.6505 -0.1396  1.2141
 6221SOL     OW19232   1.267   6.116   5.532  0.0082 -0.1228 -0.0528
 6221SOL    HW119233   1.231   6.154   5.452  1.0893 -0.9815 -1.0001
 6221SOL    HW219234   1.192   6.075   5.576 -0.6552  0.6455 -0.4536
 6222SOL     OW19235   7.039   3.625   1.131 -0.2050  0.2191 -0.4916
 6222SOL    HW119236   6.965   3.665   1.177  1.4753  1.1816  1.5243
 6222SOL    HW219237   7.042   3.670   1.046  0.0264  2.5867  0.6889
 6223SOL     OW19238   3.866   3.809   1.912 -0.7038  0.1548 -0.5459
 6223SOL    HW119239   3.775   3.816   1.883 -1.3086 -0.7206  1.0664
 6223SOL    HW219240   3.883   3.715   1.915  0.0388  0.2958 -0.1770
 6224SOL     OW19241   4.403   6.710   2.692 -0.3404  0.4393 -0.1332
 6224SOL    HW119242   4.390   6.795   2.650 -0.1169 -0.2189 -1.5940
 6224SOL    HW219243   4.315   6.674   2.700 -0.3393  0.3157 -0.6172
 6225SOL     OW19244   0.833   2.414   4.176 -0.7708  0.1008  0.2016
 6225SOL    HW119245   0.872   2.482   4.122  0.7728 -2.4785 -2.1728
 6225SOL    HW219246   0.891   2.409   4.253 -0.6001  1.0520  0.1527
 6226SOL     OW19247   5.118   4.623   7.173  0.1020 -0.0531  0.3074
 6226SOL    HW119248   5.137   4.541   7.129 -1.6335 -0.4641  0.2434
 6226SOL    HW219249   5.081   4.679   7.104 -0.0189  0.2894  0.6460
 6227SOL     OW19250   4.372   6.995   2.612  0.1959  0.3654 -0.5253
 6227SOL    HW119251   4.422   7.040   2.545  0.4398  1.2447  0.2335
 6227SOL    HW219252   4.294   7.049   2.626  1.3257  1.5606  1.6315
 6228SOL     OW19253   0.413   1.817   1.344 -0.1221  0.2328  0.6643
 6228SOL    HW119254   0.350   1.807   1.273 -0.0330  1.6157  0.3466
 6228SOL    HW219255   0.362   1.803   1.424 -0.8144  1.1449  0.4046
 6229SOL     OW19256   5.127   4.551   4.221 -0.2387  0.0480  0.5789
 6229SOL    HW119257   5.098   4.642   4.227  1.1171  0.4521  1.4015
 6229SOL    HW219258   5.132   4.521   4.312 -0.6503 -0.8633  0.3208
 6230SOL     OW19259   7.137   1.450   6.894 -0.2464 -0.3599 -0.1483
 6230SOL    HW119260   7.047   1.424   6.880 -0.0296 -3.2958  2.6577
 6230SOL    HW219261   7.136   1.499   6.976  0.6469  0.2216 -0.4595
 6231SOL     OW19262   1.403   4.228   2.284 -0.4568  0.0626  0.4725
 6231SOL    HW119263   1.333   4.163   2.294 -1.4711  1.0665  0.0466
 6231SOL    HW219264   1.380   4.276   2.205  1.1746 -0.1122 -0.1475
 6232SOL     OW19265   7.233   1.832   4.627 -0.1227  0.0014  0.2685
 6232SOL    HW119266   7.166   1.765   4.644  0.4908 -0.5541  0.5105
 6232SOL    HW219267   7.291   1.792   4.562  0.8486 -0.1163  1.1976
 6233SOL     OW19268   4.626   4.435   7.276 -0.0154 -0.2583 -0.0521
 6233SOL    HW119269   4.574   4.399   7.204 -2.2248 -0.4914  1.5394
 6233SOL    HW219270   4.574   4.415   7.355  1.7787  0.8941  1.5060
 6234SOL     OW19271   5.895   3.048   1.343 -0.5624 -0.1214 -0.3306
 6234SOL    HW119272   5.840   2.973   1.367  0.9762 -1.0895  0.3207
 6234SOL    HW219273   5.834   3.111   1.304 -2.2507 -0.8379  1.0173
 6235SOL     OW19274   6.445   1.725   1.046  0.3402 -0.4122  0.4915
 6235SOL    HW119275   6.399   1.739   0.963  0.0989  1.5095  0.8906
 6235SOL    HW219276   6.499   1.803   1.056  0.6002 -0.7527  2.0036
 6236SOL     OW19277   3.197   0.810   5.334  0.3603  0.0374  0.7168
 6236SOL    HW119278   3.155   0.725   5.324  1.3633 -0.3241 -0.5215
 6236SOL    HW219279   3.263   0.797   5.402  0.8187 -0.2927  0.2091
 6237SOL     OW19280   5.657   0.221   6.427  0.1334 -0.3172  0.3652
 6237SOL    HW119281   5.717   0.262   6.489  0.5828 -1.1270  0.4914
 6237SOL    HW219282   5.711   0.154   6.383 -0.0845  0.4660 -1.1408
 6238SOL     OW19283   2.700   4.251   2.048 -0.6495 -0.4043 -0.1251
 6238SOL    HW119284   2.784   4.208   2.060 -0.1074  0.8054  0.6043
 6238SOL    HW219285   2.635   4.181   2.057  0.2523 -1.2743 -0.2668
 6239SOL     OW19286   2.802   2.033   2.694 -0.4940 -0.0762 -0.0712
 6239SOL    HW119287   2.719   2.062   2.730 -0.7857  0.7514 -1.3433
 6239SOL    HW219288   2.850   2.113   2.674 -0.4381 -0.4701 -1.6732
 6240SOL     OW19289   3.681   2.784   1.062  0.0394  0.3256  0.2500
 6240SOL    HW119290   3.706   2.702   1.105 -0.4751 -0.2921 -0.6033
 6240SOL    HW219291   3.708   2.773   0.971  1.6542  1.8461  0.4721
 6241SOL     OW19292   6.507   3.212   3.189  0.1734 -0.2769 -0.2982
 6241SOL    HW119293   6.426   3.173   3.155 -0.2228 -1.3446  1.7311
 6241SOL    HW219294   6.477   3.294   3.231  0.6939  1.1714 -2.5873
 6242SOL     OW19295   5.362   0.151   4.742  0.6618  0.1483  0.0608
 6242SOL    HW119296   5.438   0.184   4.695  1.3350 -0.1683  0.8931
 6242SOL    HW219297   5.287   0.188   4.696  1.1397 -2.0633 -2.7928
 6243SOL     OW19298   0.622   3.204   3.964  0.1254 -0.1008  0.3693
 6243SOL    HW119299   0.629   3.297   3.988 -1.4085  0.1777 -0.1095
 6243SOL    HW219300   0.588   3.162   4.043 -0.6572  0.0378  0.1203
 6244SOL     OW19301   6.869   5.780   3.244 -0.0650 -0.6347 -0.0141
 6244SOL    HW119302   6.817   5.827   3.179  1.0926  0.3247 -0.2710
 6244SOL    HW219303   6.957   5.815   3.236  0.4965 -1.7341  0.8928
 6245SOL     OW19304   4.038   4.266   7.085 -0.2266 -0.5537  0.2022
 6245SOL    HW119305   4.076   4.300   7.166 -2.9008 -0.3785  1.4867
 6245SOL    HW219306   4.114   4.251   7.028  1.6217  0.9416  2.0776
 6246SOL     OW19307   1.973   0.253   5.066  0.8851 -0.2588  0.3356
 6246SOL    HW119308   1.978   0.332   5.013  1.5360 -0.9381 -0.6428
 6246SOL    HW219309   2.014   0.277   5.149 -0.2442  0.8454  0.6042
 6247SOL     OW19310   1.095   0.913   4.825  0.3087  0.0071 -0.3487
 6247SOL    HW119311   1.073   0.889   4.735 -3.1326 -0.1803  0.4084
 6247SOL    HW219312   1.073   1.005   4.831  0.4703  0.0045  0.3363
 6248SOL     OW19313   1.395   2.232   0.427 -0.5444 -0.0402 -0.3592
 6248SOL    HW119314   1.431   2.173   0.493 -0.4339 -0.6424 -0.9445
 6248SOL    HW219315   1.465   2.241   0.362 -0.8348  0.1363 -0.6492
 6249SOL     OW19316   5.328   6.382   7.354 -0.7333  0.2344  0.0008
 6249SOL    HW119317   5.336   6.468   7.395 -2.0844  1.0936 -1.4225
 6249SOL    HW219318   5.363   6.321   7.419  1.5989  1.9517  0.4807
 6250SOL     OW19319   4.644   3.821   6.301 -0.3327 -0.3009  0.0524
 6250SOL    HW119320   4.668   3.730   6.315  0.4611  0.1228  1.6865
 6250SOL    HW219321   4.674   3.867   6.380 -0.1926  1.4749 -0.9693
 6251SOL     OW19322   2.397   3.702   6.966  0.1965 -0.1595  0.0329
 6251SOL    HW119323   2.456   3.653   7.023  1.1104 -0.3131 -1.0017
 6251SOL    HW219324   2.368   3.638   6.901  0.2645  0.3241 -0.4823
 6252SOL     OW19325   3.794   3.099   1.750 -0.1343 -0.0965  0.3517
 6252SOL    HW119326   3.860   3.143   1.804  1.2197  0.4005 -1.6228
 6252SOL    HW219327   3.768   3.023   1.802 -0.2494  1.3047  2.4788
 6253SOL     OW19328   5.776   6.052   0.656 -0.5366 -0.0385 -0.7073
 6253SOL    HW119329   5.777   6.111   0.731 -1.8052 -1.3849  0.4365
 6253SOL    HW219330   5.843   5.986   0.675 -1.4064 -0.8394 -0.3272
 6254SOL     OW19331   6.551   3.756   4.435 -0.0935 -0.0363  0.1298
 6254SOL    HW119332   6.645   3.742   4.448 -0.2859 -0.7517  0.8882
 6254SOL    HW219333   6.524   3.805   4.512 -0.4585 -0.4344  0.2577
 6255SOL     OW19334   1.393   3.337   0.376  1.1079  0.1304 -1.2301
 6255SOL    HW119335   1.373   3.395   0.449 -0.9503 -1.2160 -0.6182
 6255SOL    HW219336   1.333   3.364   0.307  1.9774  0.4069 -1.8891
 6256SOL     OW19337   0.846   2.854   1.164 -1.1232 -0.0010 -0.2087
 6256SOL    HW119338   0.929   2.810   1.144 -1.0481  1.3814 -3.5803
 6256SOL    HW219339   0.835   2.841   1.258  2.3012 -1.2483  0.1896
 6257SOL     OW19340   6.778   4.878   5.591  0.3200 -0.3833  0.7775
 6257SOL    HW119341   6.839   4.871   5.665 -0.2276 -1.8066  1.1390
 6257SOL    HW219342   6.768   4.789   5.560  0.0785  0.1268 -0.6648
 6258SOL     OW19343   1.449   2.025   2.577  0.6616  0.7620  0.2114
 6258SOL    HW119344   1.407   1.951   2.533  0.0691  0.6220  1.0047
 6258SOL    HW219345   1.469   2.086   2.507  0.4784  0.1771 -0.3607
 6259SOL     OW19346   4.975   5.470   5.800  0.0931  0.1441 -0.6797
 6259SOL    HW119347   4.972   5.424   5.717 -3.2253 -0.0697 -0.5978
 6259SOL    HW219348   4.913   5.422   5.856  2.0408  0.3957  1.8835
 6260SOL     OW19349   2.847   7.347   4.827  0.4381  0.2994  0.0077
 6260SOL    HW119350   2.907   7.418   4.807 -0.9708  1.5121 -0.1605
 6260SOL    HW219351   2.852   7.288   4.752  1.3240  0.4417 -0.0464
 6261SOL     OW19352   2.407   1.931   3.221 -0.5258  0.2734 -0.4380
 6261SOL    HW119353   2.497   1.940   3.192  0.4405  3.2005  2.6542
 6261SOL    HW219354   2.413   1.888   3.306 -2.2169 -0.6174 -0.7185
 6262SOL     OW19355   1.519   1.549   0.263 -0.3389 -0.0551  0.3168
 6262SOL    HW119356   1.569   1.573   0.341 -0.8843 -1.4692  1.1205
 6262SOL    HW219357   1.510   1.454   0.268 -0.0320 -0.2378 -1.6930
 6263SOL     OW19358   1.630   6.014   1.367  0.2060 -0.1718  0.8599
 6263SOL    HW119359   1.726   6.017   1.376  0.1565  0.3374  1.2726
 6263SOL    HW219360   1.601   5.963   1.442  0.0741  0.6385  1.3609
 6264SOL     OW19361   7.377   4.859   5.517 -0.1783  0.2058 -0.4140
 6264SOL    HW119362   7.426   4.846   5.598 -0.8692  1.2182  0.1890
 6264SOL    HW219363   7.294   4.812   5.532 -0.3714  0.5285 -0.4733
 6265SOL     OW19364   5.100   1.870   0.641  0.0319 -0.0742  1.2028
 6265SOL    HW119365   5.143   1.794   0.679  1.5242 -0.7413 -1.5156
 6265SOL    HW219366   5.164   1.941   0.652 -0.0962  0.0505  1.1413
 6266SOL     OW19367   3.010   6.163   6.526  0.1515  0.2692 -0.3137
 6266SOL    HW119368   3.056   6.161   6.609 -0.7987 -1.0941  0.2198
 6266SOL    HW219369   2.984   6.072   6.511 -0.1579  0.5792 -1.8376
 6267SOL     OW19370   5.536   2.504   3.158  0.1294 -0.2233  0.7476
 6267SOL    HW119371   5.520   2.502   3.252 -0.3156  1.1490  0.7295
 6267SOL    HW219372   5.540   2.598   3.136  0.1614 -0.5150 -0.6064
 6268SOL     OW19373   1.095   6.011   5.695  0.2537  0.2885 -0.0354
 6268SOL    HW119374   1.063   6.076   5.758 -3.5782 -1.3125 -0.0464
 6268SOL    HW219375   1.130   5.941   5.749  2.1702  1.2405  0.0376
 6269SOL     OW19376   0.691   0.999   1.064  0.3418 -0.4266 -0.0311
 6269SOL    HW119377   0.735   1.078   1.034  1.8837 -1.5763 -0.9175
 6269SOL    HW219378   0.758   0.931   1.062 -0.1898 -1.2523  3.2998
 6270SOL     OW19379   1.174   5.888   2.761 -0.0260 -0.5430 -0.3137
 6270SOL    HW119380   1.127   5.884   2.678 -1.5641  4.1493  0.0263
 6270SOL    HW219381   1.109   5.859   2.826 -0.0298 -0.8368 -0.4480
 6271SOL     OW19382   4.033   6.672   5.115 -0.0116 -0.4345  0.0026
 6271SOL    HW119383   3.978   6.661   5.192 -0.7688 -2.3521 -0.7390
 6271SOL    HW219384   3.987   6.737   5.061  0.6934  1.1652  1.2400
 6272SOL     OW19385   6.540   2.787   1.426  0.3139  0.0807 -0.2206
 6272SOL    HW119386   6.560   2.696   1.448 -1.8365 -0.3468  0.2264
 6272SOL    HW219387   6.462   2.808   1.478  1.1334  2.4100  0.1829
 6273SOL     OW19388   1.828   1.359   0.575  0.3960 -0.6638  0.8887
 6273SOL    HW119389   1.898   1.295   0.588  0.5926 -0.0063  3.5401
 6273SOL    HW219390   1.752   1.322   0.618 -0.4440 -0.5639 -0.4411
 6274SOL     OW19391   0.905   6.494   0.447 -0.2380 -0.4710  0.6041
 6274SOL    HW119392   0.956   6.437   0.390 -1.0904 -0.9849  0.3470
 6274SOL    HW219393   0.834   6.526   0.392  0.4529  1.1967  0.6113
 6275SOL     OW19394   3.746   5.428   1.764  0.1896  0.2492 -0.0078
 6275SOL    HW119395   3.785   5.395   1.683 -1.0600 -0.6331 -0.2673
 6275SOL    HW219396   3.818   5.473   1.808  0.4475  2.6042 -2.5544
 6276SOL     OW19397   2.450   2.214   3.972 -0.0775 -0.2869  0.0553
 6276SOL    HW119398   2.443   2.301   4.013 -1.6735  0.4014 -1.5332
 6276SOL    HW219399   2.536   2.214   3.931 -0.3912  0.9317 -0.6718
 6277SOL     OW19400   5.237   1.171   5.244  0.3393 -0.1638  0.3386
 6277SOL    HW119401   5.161   1.205   5.292 -0.1620 -0.6413 -0.0976
 6277SOL    HW219402   5.211   1.083   5.219  0.5736  0.0899 -0.8430
 6278SOL     OW19403   5.332   3.128   7.264  0.3960  0.2251  0.4296
 6278SOL    HW119404   5.362   3.038   7.279 -0.7960  0.0752  2.1593
 6278SOL    HW219405   5.260   3.140   7.326 -1.5727  1.3413 -1.8856
 6279SOL     OW19406   5.409   6.125   0.162  0.2598 -0.0826  0.0022
 6279SOL    HW119407   5.478   6.068   0.129  2.4380  0.9666  2.4308
 6279SOL    HW219408   5.451   6.210   0.174 -1.4905  0.6573  1.4354
 6280SOL     OW19409   4.384   1.850   3.768  0.1163 -0.4893 -0.1798
 6280SOL    HW119410   4.337   1.884   3.692  2.3398  0.7053 -1.1307
 6280SOL    HW219411   4.475   1.844   3.738  0.8658 -1.0469  2.0599
 6281SOL     OW19412   5.487   5.589   2.443 -0.2513 -0.0579  0.1333
 6281SOL    HW119413   5.504   5.623   2.531 -0.1310 -0.5662  0.3111
 6281SOL    HW219414   5.393   5.601   2.430  0.0243  1.7442 -0.4149
 6282SOL     OW19415   5.669   1.895   3.955 -0.4065  0.0289  0.0413
 6282SOL    HW119416   5.673   1.850   4.039  0.5948  1.2833  0.7112
 6282SOL    HW219417   5.721   1.841   3.895  0.1623 -0.0896  0.6326
 6283SOL     OW19418   1.015   2.443   7.026  0.1050  0.4270 -0.1334
 6283SOL    HW119419   0.945   2.378   7.028  0.0470  0.5026  0.4554
 6283SOL    HW219420   1.095   2.392   7.017  0.1168  0.2220  1.0232
 6284SOL     OW19421   3.010   3.115   1.054 -0.5346 -0.4128  0.3535
 6284SOL    HW119422   2.929   3.065   1.042 -1.2601  0.6566  0.6568
 6284SOL    HW219423   3.023   3.159   0.970  0.3564 -1.4391 -0.0699
 6285SOL     OW19424   3.350   1.547   0.089  0.0436 -0.7912  0.1720
 6285SOL    HW119425   3.417   1.616   0.088  0.0821 -0.8211 -1.0997
 6285SOL    HW219426   3.365   1.500   0.172  2.6282 -1.7692 -0.7353
 6286SOL     OW19427   4.437   4.743   1.484  0.2782  0.0543  0.5035
 6286SOL    HW119428   4.410   4.783   1.567 -2.3474  0.2222 -0.3341
 6286SOL    HW219429   4.360   4.695   1.454  0.9737  0.3951 -2.0665
 6287SOL     OW19430   3.244   3.574   4.463 -0.1546 -0.1543  0.3832
 6287SOL    HW119431   3.231   3.635   4.390 -1.1577 -0.1620  0.5378
 6287SOL    HW219432   3.290   3.500   4.424  0.9316  0.6190  0.1569
 6288SOL     OW19433   5.110   2.877   5.072  0.1416  0.3466 -0.0056
 6288SOL    HW119434   5.200   2.853   5.094  0.5566  1.2706 -0.6605
 6288SOL    HW219435   5.099   2.965   5.107 -1.3901 -0.6834  2.4183
 6289SOL     OW19436   3.859   0.759   3.477  0.8045  0.0228  0.0577
 6289SOL    HW119437   3.868   0.708   3.558 -1.3491  1.3097  1.2305
 6289SOL    HW219438   3.888   0.847   3.501 -0.9290  0.7003 -0.1599
 6290SOL     OW19439   5.715   2.772   3.082 -0.0248 -0.5995  0.4581
 6290SOL    HW119440   5.686   2.835   3.148 -0.6913  0.4140 -0.7695
 6290SOL    HW219441   5.800   2.740   3.115  0.3323  0.9459  1.1008
 6291SOL     OW19442   3.727   4.877   4.845  0.5848  0.1734 -0.7489
 6291SOL    HW119443   3.644   4.877   4.893 -0.6001  2.3850 -2.5659
 6291SOL    HW219444   3.784   4.818   4.895 -2.0336 -1.4091  0.6015
 6292SOL     OW19445   2.376   7.290   5.534 -0.2103 -0.5963  0.2413
 6292SOL    HW119446   2.450   7.344   5.561 -2.1392  0.7452  3.3638
 6292SOL    HW219447   2.331   7.342   5.468 -0.4502  0.3642  1.1344
 6293SOL     OW19448   2.341   3.431   4.882 -0.4020  0.1439 -0.2855
 6293SOL    HW119449   2.408   3.378   4.838 -0.9544 -0.3998 -0.4803
 6293SOL    HW219450   2.355   3.414   4.975 -0.3963 -0.1350 -0.3347
 6294SOL     OW19451   1.016   0.447   5.510 -0.0854  0.0452  0.4082
 6294SOL    HW119452   0.950   0.505   5.471 -0.9879 -0.8740  0.5380
 6294SOL    HW219453   1.025   0.375   5.448  0.7232  0.0945  0.4512
 6295SOL     OW19454   6.017   6.932   4.749  0.0249  0.0773  0.2059
 6295SOL    HW119455   6.068   6.980   4.815  1.2079 -1.5760  0.5643
 6295SOL    HW219456   5.926   6.947   4.773  0.3796  1.3194  0.8714
 6296SOL     OW19457   1.229   1.360   3.627 -0.4223  0.4185  0.2785
 6296SOL    HW119458   1.183   1.401   3.554 -0.0102 -0.2824 -0.3891
 6296SOL    HW219459   1.306   1.416   3.640 -0.1198  0.1498 -0.3060
 6297SOL     OW19460   4.893   6.070   4.927 -0.1439  0.3449 -0.5575
 6297SOL    HW119461   4.817   6.070   4.985 -0.1356 -0.9560 -0.5122
 6297SOL    HW219462   4.947   6.142   4.959 -0.1144 -0.3782  1.1173
 6298SOL     OW19463   0.402   2.839   6.671 -0.0021 -0.0262 -0.0617
 6298SOL    HW119464   0.485   2.886   6.674  0.4172 -0.7785  0.5579
 6298SOL    HW219465   0.364   2.851   6.758 -0.2900 -0.1366 -0.1693
 6299SOL     OW19466   5.986   5.893   1.030 -0.1261  1.2099  0.3681
 6299SOL    HW119467   5.902   5.939   1.025 -0.7814  0.0930  0.6400
 6299SOL    HW219468   5.981   5.842   1.111  0.2933  0.1581 -0.2389
 6300SOL     OW19469   2.466   5.237   5.462  0.5821 -0.7313 -0.2469
 6300SOL    HW119470   2.410   5.159   5.459  1.2859 -1.4354  2.5483
 6300SOL    HW219471   2.484   5.250   5.555  1.1619  2.3218 -0.7065
 6301SOL     OW19472   2.680   6.949   2.169 -0.3041 -0.3196  0.2396
 6301SOL    HW119473   2.705   6.919   2.256 -1.1653 -0.5586  0.4157
 6301SOL    HW219474   2.607   6.892   2.144  0.1832 -0.5016 -0.8030
 6302SOL     OW19475   1.566   6.951   3.966 -0.5609  0.8113 -0.2002
 6302SOL    HW119476   1.517   6.995   4.036 -0.8820 -1.2312  0.9144
 6302SOL    HW219477   1.537   6.860   3.970  2.1728 -0.1400 -0.5322
 6303SOL     OW19478   2.287   3.508   1.120  0.8070 -0.2271 -0.7801
 6303SOL    HW119479   2.320   3.515   1.030  1.0769 -0.0905 -0.6716
 6303SOL    HW219480   2.259   3.417   1.128  1.7873 -0.5316 -0.6608
 6304SOL     OW19481   4.394   2.225   4.029  0.5865  0.5357  0.0473
 6304SOL    HW119482   4.407   2.132   4.016 -1.3605  0.1319  0.5969
 6304SOL    HW219483   4.365   2.234   4.120 -0.2953  1.5162 -0.2939
 6305SOL     OW19484   1.516   7.061   1.465 -0.2475  0.1505 -0.2529
 6305SOL    HW119485   1.588   7.004   1.491  0.2292  0.2813 -1.2374
 6305SOL    HW219486   1.437   7.015   1.495  0.2013 -0.4201  0.0628
 6306SOL     OW19487   3.604   5.794   0.666  0.3053 -0.5564 -0.1599
 6306SOL    HW119488   3.576   5.774   0.577 -0.1542  1.4868 -0.5257
 6306SOL    HW219489   3.665   5.724   0.689 -1.0523 -2.1991 -1.3290
 6307SOL     OW19490   2.458   0.533   1.743  0.3371  0.0188 -0.1340
 6307SOL    HW119491   2.466   0.494   1.656 -0.6218 -0.8424  0.1529
 6307SOL    HW219492   2.449   0.459   1.803  0.3238  0.6229  0.6374
 6308SOL     OW19493   7.352   6.387   6.021 -0.0809 -0.0142 -0.3481
 6308SOL    HW119494   7.297   6.371   6.098  1.3649  1.2102  0.9859
 6308SOL    HW219495   7.289   6.395   5.949 -1.5459 -0.1649  0.8599
 6309SOL     OW19496   6.918   5.955   0.383 -0.1954  0.5464 -0.4698
 6309SOL    HW119497   6.874   5.915   0.308 -1.4169 -1.1987  1.0991
 6309SOL    HW219498   7.011   5.948   0.362 -0.4691 -1.1226 -1.2745
 6310SOL     OW19499   1.868   5.186   1.257 -0.3277 -0.1375  0.3383
 6310SOL    HW119500   1.804   5.158   1.191  0.4993  1.2538 -1.1521
 6310SOL    HW219501   1.946   5.134   1.239 -0.2668 -0.1285  0.5705
 6311SOL     OW19502   7.229   1.104   1.190  0.3441  0.0942 -0.1164
 6311SOL    HW119503   7.290   1.031   1.206 -0.0062 -0.1753 -0.0068
 6311SOL    HW219504   7.178   1.076   1.114  0.4176  0.3636 -0.2669
 6312SOL     OW19505   2.425   5.757   4.422  0.4950 -0.0567 -0.1986
 6312SOL    HW119506   2.340   5.717   4.400  0.4974 -0.9302  1.2029
 6312SOL    HW219507   2.402   5.833   4.476  0.5907 -0.5110  0.4992
 6313SOL     OW19508   5.407   3.541   4.113 -0.5684 -0.3999  0.6740
 6313SOL    HW119509   5.361   3.568   4.192  0.4338  1.2825  0.7387
 6313SOL    HW219510   5.344   3.557   4.042 -1.1240 -0.9967  1.0224
 6314SOL     OW19511   0.752   4.617   1.492  0.3715 -0.4302 -0.5490
 6314SOL    HW119512   0.777   4.555   1.424 -0.1104  1.4359 -2.5306
 6314SOL    HW219513   0.829   4.673   1.501  0.4102 -0.6300  0.4376
 6315SOL     OW19514   2.985   5.467   2.852 -0.5135  0.1478  0.1410
 6315SOL    HW119515   2.992   5.533   2.920  2.6759 -0.8273  0.9384
 6315SOL    HW219516   2.956   5.388   2.898 -1.1231  0.1561 -0.2092
 6316SOL     OW19517   2.973   6.814   3.925 -0.2967 -0.5180 -0.1608
 6316SOL    HW119518   2.958   6.890   3.980 -0.6511 -0.3735 -0.4505
 6316SOL    HW219519   3.066   6.817   3.904 -0.3222 -0.1345 -0.2146
 6317SOL     OW19520   6.984   2.125   6.265  0.5341 -0.7205  0.0595
 6317SOL    HW119521   7.052   2.063   6.290  0.4279 -1.2803 -0.9721
 6317SOL    HW219522   7.025   2.211   6.276  1.1677 -1.0261  0.1342
 6318SOL     OW19523   2.003   4.744   3.928  0.4250  0.1844  0.1064
 6318SOL    HW119524   2.031   4.814   3.868  2.5079 -0.6125  0.0965
 6318SOL    HW219525   1.911   4.730   3.906  1.1651 -0.2705 -3.1372
 6319SOL     OW19526   5.436   6.807   6.826  0.1514 -0.2347 -0.7527
 6319SOL    HW119527   5.474   6.893   6.809  0.0041  0.5901  2.3637
 6319SOL    HW219528   5.343   6.817   6.804  0.5431 -0.3507 -2.5692
 6320SOL     OW19529   4.191   0.248   0.110 -0.2840  0.1669  0.7918
 6320SOL    HW119530   4.148   0.332   0.125  0.7332  1.0880 -1.1287
 6320SOL    HW219531   4.272   0.252   0.161 -1.6158 -0.9433  3.1516
 6321SOL     OW19532   4.924   4.485   4.848 -0.1368  0.0213 -0.0172
 6321SOL    HW119533   4.974   4.410   4.882 -0.6876 -0.4273 -0.1760
 6321SOL    HW219534   4.990   4.543   4.811  0.4299  0.2229  1.2448
 6322SOL     OW19535   2.674   6.847   1.012  0.5587 -0.1613 -0.1925
 6322SOL    HW119536   2.637   6.774   0.963  1.4075 -0.9941  0.3743
 6322SOL    HW219537   2.761   6.859   0.975  0.5368  0.3658 -0.0785
 6323SOL     OW19538   4.283   0.080   7.192  0.5929 -0.4989 -0.0428
 6323SOL    HW119539   4.190   0.056   7.191  0.2706  0.4376  1.7182
 6323SOL    HW219540   4.329   0.002   7.161 -0.7728 -0.9639 -0.9800
 6324SOL     OW19541   0.345   2.821   1.767  0.1733  0.0711 -0.4318
 6324SOL    HW119542   0.385   2.760   1.705 -2.3729 -2.5095  0.2109
 6324SOL    HW219543   0.305   2.889   1.713 -3.2758 -2.8776 -2.0199
 6325SOL     OW19544   7.317   1.841   6.617  0.4159 -0.3093 -0.4149
 6325SOL    HW119545   7.383   1.805   6.677  1.8697  0.0564 -1.7327
 6325SOL    HW219546   7.235   1.798   6.643  0.6982  0.7538  2.6431
 6326SOL     OW19547   0.409   4.206   6.681 -0.1717 -0.3163 -0.0536
 6326SOL    HW119548   0.339   4.220   6.745 -2.5537 -1.5325 -2.1977
 6326SOL    HW219549   0.397   4.276   6.617  2.1849  0.8894  0.6712
 6327SOL     OW19550   7.004   6.203   3.240  0.5943 -0.2209 -0.6131
 6327SOL    HW119551   6.926   6.255   3.220  1.5670  1.6104  0.1644
 6327SOL    HW219552   7.077   6.253   3.203  1.5653 -1.0476  0.1322
 6328SOL     OW19553   4.275   6.009   0.073  0.5863  0.3093  0.9084
 6328SOL    HW119554   4.322   5.934   0.110  1.6543 -0.1495 -1.2323
 6328SOL    HW219555   4.334   6.083   0.085  2.2566 -0.3565 -2.2242
 6329SOL     OW19556   0.686   2.193   6.875 -0.4252 -0.3355  0.0349
 6329SOL    HW119557   0.736   2.161   6.951  1.8923  0.4182 -1.0718
 6329SOL    HW219558   0.704   2.128   6.806  0.1019  0.6076 -0.7415
 6330SOL     OW19559   1.347   4.417   2.103  0.2005  0.1882  0.2148
 6330SOL    HW119560   1.270   4.452   2.059 -0.0621  0.6375  1.0125
 6330SOL    HW219561   1.411   4.404   2.033 -0.9178 -1.1591 -0.6239
 6331SOL     OW19562   2.185   5.078   0.326  0.0794  0.8771 -0.0589
 6331SOL    HW119563   2.257   5.122   0.372  1.7730 -2.1820  0.4894
 6331SOL    HW219564   2.224   5.050   0.243 -0.8867  0.2818 -0.3211
 6332SOL     OW19565   2.885   0.237   3.119 -0.0084 -0.8005 -0.3138
 6332SOL    HW119566   2.975   0.251   3.150 -0.9110 -1.5769  3.0655
 6332SOL    HW219567   2.887   0.151   3.077  0.7700 -0.9178 -0.0531
 6333SOL     OW19568   4.900   4.354   2.354  0.1688  0.2134  0.4447
 6333SOL    HW119569   4.825   4.394   2.311  0.3390  0.6602  0.5465
 6333SOL    HW219570   4.944   4.428   2.397  1.0783  0.0881 -0.2322
 6334SOL     OW19571   2.722   6.366   4.171 -0.6889  0.2020  0.1087
 6334SOL    HW119572   2.803   6.417   4.160  0.3050 -1.5438 -1.0022
 6334SOL    HW219573   2.732   6.326   4.257  1.4049 -2.8397 -1.3759
 6335SOL     OW19574   2.533   2.855   0.892  0.5121 -0.6819  0.1608
 6335SOL    HW119575   2.622   2.820   0.888  0.6549 -0.3139  0.0802
 6335SOL    HW219576   2.482   2.799   0.833  0.5560 -1.2633  0.6516
 6336SOL     OW19577   6.739   0.380   7.259 -0.2664  0.0751  0.3281
 6336SOL    HW119578   6.752   0.286   7.244  0.2258  0.2279 -0.2005
 6336SOL    HW219579   6.755   0.392   7.352  0.8280 -0.1773  0.1850
 6337SOL     OW19580   6.108   5.498   7.032 -0.3373 -0.3079  0.1930
 6337SOL    HW119581   6.069   5.423   6.988 -1.0309 -0.9267  1.8099
 6337SOL    HW219582   6.172   5.532   6.968 -2.0526 -0.4731 -1.7211
 6338SOL     OW19583   5.159   6.741   5.501 -0.1489 -0.0381  0.8037
 6338SOL    HW119584   5.148   6.833   5.480 -0.1497 -0.3989 -0.8737
 6338SOL    HW219585   5.099   6.727   5.575 -0.9207  1.0639  0.4124
 6339SOL     OW19586   0.964   4.550   5.652  0.1024  0.3148 -0.2083
 6339SOL    HW119587   0.934   4.608   5.581 -1.0435 -1.2462 -1.0471
 6339SOL    HW219588   1.059   4.551   5.644 -0.0106 -0.2780 -2.1797
 6340SOL     OW19589   4.384   3.025   2.218  0.4758  0.0091 -1.0396
 6340SOL    HW119590   4.437   2.978   2.282 -0.9746 -0.6713 -0.2843
 6340SOL    HW219591   4.363   3.109   2.260 -2.2288 -1.2599  0.3681
 6341SOL     OW19592   3.079   7.011   5.561  0.0019  0.3847 -0.5707
 6341SOL    HW119593   2.995   6.966   5.567 -1.0890  2.2545 -0.7931
 6341SOL    HW219594   3.075   7.078   5.629  1.7798 -0.1407  0.1124
 6342SOL     OW19595   6.903   4.992   1.613 -0.2679  0.2425  0.1675
 6342SOL    HW119596   6.820   4.970   1.657  0.6526  1.4691  2.6820
 6342SOL    HW219597   6.956   4.912   1.622 -0.9125 -0.3322 -0.9024
 6343SOL     OW19598   5.874   4.718   1.662 -0.0655  0.0609  0.3379
 6343SOL    HW119599   5.883   4.639   1.610  1.2944 -0.1246  0.8290
 6343SOL    HW219600   5.787   4.711   1.702 -0.0945 -1.0097  0.0982
 6344SOL     OW19601   0.050   4.781   3.064 -0.3322  0.4029  0.6258
 6344SOL    HW119602   0.064   4.853   3.125 -0.3554  1.8063 -0.9514
 6344SOL    HW219603   0.019   4.823   2.984  0.6255 -1.2595 -0.6820
 6345SOL     OW19604   6.751   1.116   4.445 -0.0573  1.2027 -0.4450
 6345SOL    HW119605   6.739   1.062   4.367 -2.5407  1.2374 -0.1530
 6345SOL    HW219606   6.786   1.056   4.510  0.3052  0.7448 -1.0445
 6346SOL     OW19607   1.054   4.191   5.552  0.2746 -0.0823  0.5795
 6346SOL    HW119608   1.028   4.106   5.587 -3.1019  1.7581  3.1773
 6346SOL    HW219609   1.064   4.246   5.630  1.6913  2.0910 -1.0275
 6347SOL     OW19610   0.206   3.961   1.373  0.5147  0.4746  0.1807
 6347SOL    HW119611   0.231   4.044   1.333  1.1730  0.1185 -0.1799
 6347SOL    HW219612   0.288   3.928   1.410  0.9176 -1.2965 -2.0564
 6348SOL     OW19613   6.676   1.267   3.535  0.4406  0.2813 -0.1789
 6348SOL    HW119614   6.582   1.280   3.526  0.4125 -0.9529 -2.6561
 6348SOL    HW219615   6.712   1.356   3.539 -0.8618  0.7911  2.6930
 6349SOL     OW19616   0.251   6.160   1.826 -0.2252 -0.1833  0.2381
 6349SOL    HW119617   0.311   6.145   1.899 -1.7161 -0.5797  1.4333
 6349SOL    HW219618   0.170   6.116   1.852 -1.1775  0.6672 -1.1439
 6350SOL     OW19619   3.154   1.360   1.683 -0.1106  0.1915 -0.1575
 6350SOL    HW119620   3.245   1.367   1.655 -0.3513 -1.1111 -1.4107
 6350SOL    HW219621   3.159   1.332   1.775  0.7222  1.3576  0.1695
 6351SOL     OW19622   4.519   1.949   5.032  0.0898 -0.1756  0.1972
 6351SOL    HW119623   4.515   2.040   5.059 -0.6103 -0.6778  1.8865
 6351SOL    HW219624   4.581   1.908   5.092 -0.3262 -1.0100  0.0741
 6352SOL     OW19625   4.079   2.450   4.242 -0.2122  0.1058 -0.4756
 6352SOL    HW119626   4.167   2.478   4.219 -0.8375  2.1038 -0.5761
 6352SOL    HW219627   4.089   2.404   4.326  0.6567  2.4079  0.7524
 6353SOL     OW19628   5.080   5.548   2.010 -0.3309 -0.0995  0.0758
 6353SOL    HW119629   5.145   5.530   1.942 -0.4689  0.3413 -0.1769
 6353SOL    HW219630   5.084   5.472   2.068 -1.1311 -1.0952 -1.1212
 6354SOL     OW19631   2.674   4.577   0.375 -0.1412 -0.1952 -0.0776
 6354SOL    HW119632   2.622   4.505   0.340 -2.7479 -0.5477  3.9413
 6354SOL    HW219633   2.612   4.650   0.382  1.5795  1.4373 -0.8489
 6355SOL     OW19634   3.821   2.803   5.479 -0.6926 -0.6044  0.5683
 6355SOL    HW119635   3.888   2.848   5.427  0.0306 -0.9258  1.2010
 6355SOL    HW219636   3.827   2.712   5.451 -0.7085 -0.6712  0.7809
 6356SOL     OW19637   6.109   3.696   1.838 -0.2009  0.2411 -0.2186
 6356SOL    HW119638   6.073   3.609   1.856 -0.0347  0.6616  2.4976
 6356SOL    HW219639   6.036   3.745   1.801 -0.4881 -0.8235 -1.1222
 6357SOL     OW19640   6.063   3.090   2.475  0.0848  0.0023  0.3923
 6357SOL    HW119641   6.017   3.155   2.528  1.9666 -0.1665  2.3900
 6357SOL    HW219642   6.048   3.117   2.385 -1.1764  1.7997  1.0895
 6358SOL     OW19643   0.902   5.404   4.542  0.4323 -0.2054  0.0156
 6358SOL    HW119644   0.814   5.396   4.507  0.5737 -1.3632 -0.1034
 6358SOL    HW219645   0.956   5.424   4.466  0.3265  0.2172  0.0455
 6359SOL     OW19646   0.570   1.428   5.933  0.0573 -0.3122  0.1097
 6359SOL    HW119647   0.651   1.473   5.956  0.4097 -0.7211 -0.2960
 6359SOL    HW219648   0.599   1.350   5.884 -0.6007 -0.1702 -0.5286
 6360SOL     OW19649   0.050   5.079   4.045  0.3235  0.0570  0.6142
 6360SOL    HW119650   0.013   5.163   4.070  0.1967 -0.3701  1.9492
 6360SOL    HW219651   0.084   5.092   3.957 -3.2117  0.4063 -0.8318
 6361SOL     OW19652   0.850   0.310   1.768 -0.2564 -0.5542  0.3471
 6361SOL    HW119653   0.870   0.398   1.736  0.9871 -0.5041  1.1818
 6361SOL    HW219654   0.755   0.308   1.773 -0.2926  0.9685  0.9004
 6362SOL     OW19655   6.853   6.848   0.206 -0.4457 -0.1602  0.2877
 6362SOL    HW119656   6.770   6.815   0.241 -0.9438  0.6417 -0.1035
 6362SOL    HW219657   6.835   6.867   0.114 -0.0323  0.6797  0.3663
 6363SOL     OW19658   2.540   3.849   1.265  0.9154  0.0904  0.4315
 6363SOL    HW119659   2.629   3.872   1.291  1.2627  0.4468 -0.9944
 6363SOL    HW219660   2.499   3.932   1.242  0.2094 -0.0695  1.0836
 6364SOL     OW19661   4.436   2.547   3.115  0.5400 -0.1099  0.4529
 6364SOL    HW119662   4.368   2.581   3.056  0.8221 -0.1833  0.0788
 6364SOL    HW219663   4.390   2.527   3.196 -0.2292 -1.8861 -0.3880
 6365SOL     OW19664   2.069   4.433   4.650 -0.1170 -0.3215  0.3393
 6365SOL    HW119665   2.120   4.421   4.570 -1.9758  0.9871 -1.1419
 6365SOL    HW219666   2.068   4.528   4.664  0.3388 -0.5489  2.0414
 6366SOL     OW19667   0.417   6.370   4.846  0.5242 -0.9715  0.0512
 6366SOL    HW119668   0.485   6.357   4.779  0.0222 -0.9848 -0.4683
 6366SOL    HW219669   0.463   6.409   4.920  1.2330 -1.6415 -0.0196
 6367SOL     OW19670   2.565   4.867   0.121 -0.1175  0.6067 -0.0776
 6367SOL    HW119671   2.559   4.860   0.216  0.0849  0.6940 -0.0588
 6367SOL    HW219672   2.533   4.783   0.089 -0.0317  0.5153  0.0737
 6368SOL     OW19673   4.644   3.913   4.646  0.3715  0.1623  0.4234
 6368SOL    HW119674   4.706   3.971   4.690  1.5088 -0.9051  0.2894
 6368SOL    HW219675   4.622   3.847   4.713 -0.0610  0.1229  0.2435
 6369SOL     OW19676   2.069   4.877   1.681  0.1416 -0.3752  0.1151
 6369SOL    HW119677   2.105   4.837   1.760  0.0375 -0.9151 -0.1043
 6369SOL    HW219678   2.005   4.940   1.713 -0.1059 -0.7908  0.4616
 6370SOL     OW19679   4.378   5.739   3.063 -0.5888 -0.4338 -0.1162
 6370SOL    HW119680   4.366   5.649   3.094  1.1319 -0.7425 -0.2765
 6370SOL    HW219681   4.386   5.731   2.968  2.2249 -0.4817  0.0559
 6371SOL     OW19682   7.139   1.137   5.790 -0.1290 -0.0117  0.5120
 6371SOL    HW119683   7.112   1.067   5.731  0.2582 -0.9741  1.4403
 6371SOL    HW219684   7.067   1.144   5.853 -0.3687  0.7408  0.1601
 6372SOL     OW19685   5.563   1.041   4.545 -0.5134  0.3111  0.1591
 6372SOL    HW119686   5.566   1.031   4.640  0.9826 -0.2439  0.0878
 6372SOL    HW219687   5.633   1.104   4.526  1.9047 -2.4523 -0.8249
 6373SOL     OW19688   5.094   2.828   4.003 -0.6332  0.0110  0.7432
 6373SOL    HW119689   5.102   2.921   3.983 -2.0335 -0.1818 -0.9602
 6373SOL    HW219690   5.007   2.804   3.972 -0.8431 -1.5995  2.3776
 6374SOL     OW19691   4.220   5.379   2.205  0.0288 -0.2515  0.7906
 6374SOL    HW119692   4.164   5.313   2.247 -1.9696  1.7110  1.3890
 6374SOL    HW219693   4.277   5.410   2.275  0.1293 -0.4571  0.8022
 6375SOL     OW19694   0.835   6.044   1.871  0.4270 -0.3908 -0.5297
 6375SOL    HW119695   0.908   5.991   1.902 -0.0186 -0.2204  0.8692
 6375SOL    HW219696   0.877   6.116   1.823  1.0632 -1.4862 -1.6651
 6376SOL     OW19697   5.214   3.972   4.410 -0.3275 -0.2180  0.3072
 6376SOL    HW119698   5.132   3.931   4.439 -0.7627  1.1410  1.0644
 6376SOL    HW219699   5.192   4.009   4.324 -0.3496 -0.3055  0.2741
 6377SOL     OW19700   6.038   2.462   6.003 -0.1609  0.2730 -0.1447
 6377SOL    HW119701   6.041   2.422   6.090 -0.1642 -1.9920 -1.1105
 6377SOL    HW219702   6.124   2.502   5.992  0.1909 -0.2671  0.5364
 6378SOL     OW19703   4.697   2.337   0.793 -0.3900 -1.3982 -0.5997
 6378SOL    HW119704   4.728   2.250   0.817  1.1751 -0.7575 -0.2037
 6378SOL    HW219705   4.776   2.391   0.789 -1.1911 -0.2393 -1.9510
 6379SOL     OW19706   0.907   5.900   1.392  0.6095 -0.1131  0.2599
 6379SOL    HW119707   0.959   5.980   1.395 -0.7412  0.7971  0.1931
 6379SOL    HW219708   0.968   5.833   1.361  1.0355  1.5244 -2.8326
 6380SOL     OW19709   2.933   6.093   2.190  0.1148  0.0674  0.1245
 6380SOL    HW119710   3.019   6.062   2.161  1.1401  1.0041  1.9979
 6380SOL    HW219711   2.921   6.178   2.147 -0.2957 -0.4349 -0.7966
 6381SOL     OW19712   4.156   7.225   5.913 -0.3403 -0.0228 -0.2291
 6381SOL    HW119713   4.133   7.318   5.906 -1.5271 -0.3386 -0.8542
 6381SOL    HW219714   4.207   7.219   5.994 -0.2137  1.1738 -0.1973
 6382SOL     OW19715   3.331   5.727   3.999  0.4764 -0.4930 -0.1477
 6382SOL    HW119716   3.314   5.660   4.066 -0.9233 -0.0591 -0.0404
 6382SOL    HW219717   3.333   5.679   3.917  2.7246 -1.1155  0.1821
 6383SOL     OW19718   3.419   4.511   0.826  0.2596  0.6026  0.7411
 6383SOL    HW119719   3.409   4.417   0.810 -1.5659  0.4507  2.4407
 6383SOL    HW219720   3.485   4.517   0.894  0.2652  0.5474  0.7408
 6384SOL     OW19721   3.366   2.371   4.132  0.2269  0.2148 -0.3152
 6384SOL    HW119722   3.330   2.301   4.187  0.5365  0.6850  0.5124
 6384SOL    HW219723   3.310   2.373   4.055 -0.3110 -0.3728  0.0501
 6385SOL     OW19724   5.080   0.321   6.970  0.6745 -0.0359  0.2229
 6385SOL    HW119725   5.164   0.298   7.011  0.3239  0.1667  1.0601
 6385SOL    HW219726   5.016   0.313   7.040  0.1327  0.7586 -0.1699
 6386SOL     OW19727   5.608   6.178   6.295  0.2030 -0.2461  0.3506
 6386SOL    HW119728   5.543   6.160   6.364  1.0954 -0.9808  1.0313
 6386SOL    HW219729   5.668   6.241   6.334  0.2455 -0.0289 -0.0606
 6387SOL     OW19730   1.742   6.580   2.333 -0.0443  0.7421  0.2778
 6387SOL    HW119731   1.819   6.574   2.277 -0.3792 -0.7597 -0.0686
 6387SOL    HW219732   1.668   6.570   2.274 -0.4376  0.2800  0.8350
 6388SOL     OW19733   6.156   1.210   1.962  0.3081 -0.0179 -0.0702
 6388SOL    HW119734   6.112   1.128   1.983 -0.6598  0.4471 -0.2212
 6388SOL    HW219735   6.240   1.205   2.009  0.1807 -1.0038  0.0681
 6389SOL     OW19736   1.483   7.330   4.438  0.5526  0.0301 -0.1847
 6389SOL    HW119737   1.428   7.353   4.513  1.0489 -0.5814  0.3799
 6389SOL    HW219738   1.423   7.329   4.363  0.0853  0.8302  0.1628
 6390SOL     OW19739   6.811   6.502   2.493 -0.1748  0.3023 -0.4984
 6390SOL    HW119740   6.900   6.532   2.510 -0.2790  0.7552 -0.7363
 6390SOL    HW219741   6.783   6.462   2.575 -0.2892  1.5108  0.0808
 6391SOL     OW19742   4.169   0.351   6.785 -0.0723  0.2999 -0.1849
 6391SOL    HW119743   4.189   0.351   6.878 -0.1559  0.0545 -0.1663
 6391SOL    HW219744   4.077   0.379   6.780  0.1834  1.1563 -0.2522
 6392SOL     OW19745   5.621   1.849   0.916  1.3437  0.0378  0.4904
 6392SOL    HW119746   5.693   1.792   0.887  0.8381 -0.4278  0.1432
 6392SOL    HW219747   5.618   1.918   0.850  1.8598  0.3986  0.8316
 6393SOL     OW19748   3.390   0.228   3.060 -0.0703  0.3379 -0.3323
 6393SOL    HW119749   3.394   0.146   3.011 -0.1365 -0.4788  0.9889
 6393SOL    HW219750   3.444   0.213   3.137 -0.5350  1.3383  0.2150
 6394SOL     OW19751   6.278   5.286   5.701  0.4659  0.2262  0.4331
 6394SOL    HW119752   6.265   5.381   5.700 -1.8270 -0.0171 -1.1088
 6394SOL    HW219753   6.308   5.265   5.613  0.8057 -0.4911  0.7176
 6395SOL     OW19754   4.139   1.336   0.663  0.3106 -0.0067  0.3701
 6395SOL    HW119755   4.116   1.420   0.623  0.9692 -0.4684 -1.0669
 6395SOL    HW219756   4.056   1.290   0.672  0.1577 -0.0045 -0.8142
 6396SOL     OW19757   4.068   4.451   5.135  0.1040 -0.3771 -0.2263
 6396SOL    HW119758   3.997   4.399   5.099  1.8898 -2.8923 -0.3134
 6396SOL    HW219759   4.147   4.407   5.106  1.7231  1.8641  0.5482
 6397SOL     OW19760   2.084   3.490   2.908 -0.3072 -0.2675 -0.8278
 6397SOL    HW119761   2.084   3.532   2.822 -3.1718 -0.6241 -1.1021
 6397SOL    HW219762   2.010   3.529   2.954  0.1996 -1.2198  0.9077
 6398SOL     OW19763   0.170   3.868   4.318  0.5201  0.3861  0.3047
 6398SOL    HW119764   0.080   3.891   4.296  0.3770 -0.6828 -0.3031
 6398SOL    HW219765   0.216   3.867   4.234 -0.0942 -4.0138 -0.2039
 6399SOL     OW19766   0.636   0.626   2.254  0.6200  0.0378  0.2637
 6399SOL    HW119767   0.574   0.627   2.327  1.1587  2.4872  0.7928
 6399SOL    HW219768   0.675   0.714   2.255  3.1618 -0.9776 -0.8317
 6400SOL     OW19769   6.841   0.593   2.720  0.3445 -0.6137 -0.0358
 6400SOL    HW119770   6.770   0.646   2.687 -1.2353 -2.2365  0.5839
 6400SOL    HW219771   6.915   0.612   2.662 -0.8865  0.3412 -1.3414
 6401SOL     OW19772   4.613   3.707   4.099 -0.0377  0.2408 -0.1287
 6401SOL    HW119773   4.610   3.772   4.028  1.3653 -0.9468 -1.3573
 6401SOL    HW219774   4.683   3.647   4.072 -1.6441 -2.0956  0.6624
 6402SOL     OW19775   5.201   4.534   5.587 -0.0939 -0.1419 -0.1199
 6402SOL    HW119776   5.167   4.509   5.673  0.5559  0.4271  0.3134
 6402SOL    HW219777   5.295   4.545   5.601  0.0679 -0.3701 -0.9825
 6403SOL     OW19778   0.368   2.179   2.159  0.7047 -0.3414 -0.1374
 6403SOL    HW119779   0.362   2.178   2.063  0.1464 -0.7056 -0.1028
 6403SOL    HW219780   0.390   2.089   2.182 -2.2077 -1.0405  0.2451
 6404SOL     OW19781   6.228   0.106   7.044 -0.6474 -0.2697 -0.0243
 6404SOL    HW119782   6.176   0.087   7.122 -2.0847  1.1090 -0.5858
 6404SOL    HW219783   6.244   0.020   7.004 -1.4210 -0.8355  0.8390
 6405SOL     OW19784   5.222   5.589   6.740  0.3883 -0.1580 -0.3217
 6405SOL    HW119785   5.311   5.588   6.704  0.5597 -0.0877  0.1026
 6405SOL    HW219786   5.182   5.667   6.702  0.7272  0.1848  0.0138
 6406SOL     OW19787   5.030   7.235   1.955  0.5085 -0.0630  0.3283
 6406SOL    HW119788   5.074   7.156   1.923  4.0346  1.3639  1.0861
 6406SOL    HW219789   5.025   7.223   2.050 -1.7481 -0.5620  0.1980
 6407SOL     OW19790   6.399   5.566   2.645  0.1100  0.1395 -0.9645
 6407SOL    HW119791   6.475   5.526   2.604  0.4771 -0.4433  0.2269
 6407SOL    HW219792   6.337   5.494   2.656 -0.8155  0.6896 -2.3121
 6408SOL     OW19793   1.415   3.020   2.479 -0.4813 -0.3763 -0.2124
 6408SOL    HW119794   1.356   3.052   2.547 -2.1484 -0.7952 -1.4279
 6408SOL    HW219795   1.471   3.095   2.459 -0.2749 -0.0978  1.2530
 6409SOL     OW19796   3.154   2.597   0.260 -0.4939 -0.0854 -0.0767
 6409SOL    HW119797   3.165   2.551   0.177  2.7235  1.8673 -0.9088
 6409SOL    HW219798   3.215   2.555   0.320 -0.7965  0.2525  0.4805
 6410SOL     OW19799   1.011   1.901   2.007  0.2597  0.5414  0.1905
 6410SOL    HW119800   1.047   1.866   1.925 -0.3682 -1.2433  0.6166
 6410SOL    HW219801   1.060   1.981   2.024  0.2388  1.0844 -2.0515
 6411SOL     OW19802   5.258   2.617   2.914 -0.7462  0.1255 -0.3033
 6411SOL    HW119803   5.334   2.676   2.913 -0.5107 -0.1086  1.2072
 6411SOL    HW219804   5.232   2.614   3.006 -1.2475 -1.5009 -0.4690
 6412SOL     OW19805   4.776   3.912   6.525 -0.3369  0.1251 -0.0705
 6412SOL    HW119806   4.860   3.874   6.500 -1.2122 -0.7478 -1.8434
 6412SOL    HW219807   4.761   3.880   6.614  1.3893  0.6669  0.4459
 6413SOL     OW19808   3.070   4.952   6.260 -0.1777  0.2725 -0.0711
 6413SOL    HW119809   3.090   5.045   6.263  0.1101  0.2117 -0.1450
 6413SOL    HW219810   3.045   4.935   6.169 -0.1853  0.2685 -0.0684
 6414SOL     OW19811   3.344   2.890   2.991 -0.3937 -0.1256  0.2572
 6414SOL    HW119812   3.439   2.897   2.993 -0.4165  0.5429 -0.5370
 6414SOL    HW219813   3.327   2.798   2.971  0.0791 -0.2260  0.3125
 6415SOL     OW19814   2.583   1.538   1.343 -0.5192 -0.1361 -0.3432
 6415SOL    HW119815   2.522   1.611   1.357 -0.4040 -0.0452 -0.3167
 6415SOL    HW219816   2.544   1.465   1.391 -0.1074  0.1790  0.5008
 6416SOL     OW19817   4.244   3.326   7.272  0.3721 -0.9362  0.6414
 6416SOL    HW119818   4.168   3.329   7.330 -0.7330 -0.5467 -0.7553
 6416SOL    HW219819   4.211   3.287   7.191  1.3177  0.4164 -0.4520
 6417SOL     OW19820   1.323   5.969   2.320  0.4416 -0.8550  0.0394
 6417SOL    HW119821   1.281   6.043   2.363 -0.2823 -1.1046 -0.2330
 6417SOL    HW219822   1.321   5.899   2.385  1.5514 -0.5121  0.4699
 6418SOL     OW19823   0.665   2.069   1.513 -0.1730 -0.4141 -0.3718
 6418SOL    HW119824   0.643   2.101   1.426  0.5354  0.5588 -0.2096
 6418SOL    HW219825   0.750   2.026   1.502  0.9253  1.4947  0.1813
 6419SOL     OW19826   2.023   0.279   7.061  0.1786 -0.2483 -0.0744
 6419SOL    HW119827   1.931   0.277   7.037 -0.1530 -1.7750  1.1983
 6419SOL    HW219828   2.069   0.297   6.979 -1.2009  0.0622 -0.8107
 6420SOL     OW19829   1.008   6.448   4.056  0.2855  0.3681  0.4721
 6420SOL    HW119830   1.004   6.367   4.005  1.3965  0.1639  0.6853
 6420SOL    HW219831   0.989   6.517   3.992  0.8307  0.0539 -0.0392
 6421SOL     OW19832   2.793   3.170   2.819 -0.0621  0.1825  0.4555
 6421SOL    HW119833   2.703   3.142   2.806 -0.3733  1.8114 -1.4246
 6421SOL    HW219834   2.842   3.123   2.751  0.7829 -1.5642  2.1620
 6422SOL     OW19835   7.142   5.969   4.312  0.0346 -0.4997 -0.0442
 6422SOL    HW119836   7.127   5.961   4.406  1.6311  0.1965  0.3125
 6422SOL    HW219837   7.150   5.879   4.281  0.8978 -0.7216  0.7629
 6423SOL     OW19838   4.453   3.336   4.851 -0.6989 -0.0959  0.0936
 6423SOL    HW119839   4.488   3.308   4.767 -0.3560  0.7548 -0.0639
 6423SOL    HW219840   4.362   3.362   4.833 -0.5191  0.4209 -0.0976
 6424SOL     OW19841   3.594   0.708   6.647 -0.3978  0.4777  0.0183
 6424SOL    HW119842   3.522   0.772   6.647 -0.9981 -0.0697  2.6273
 6424SOL    HW219843   3.671   0.758   6.619 -1.3225  1.7025 -0.4399
 6425SOL     OW19844   5.871   2.727   0.156  0.0608  0.1309 -0.0898
 6425SOL    HW119845   5.933   2.708   0.225 -1.3228 -1.3865  0.8219
 6425SOL    HW219846   5.925   2.751   0.080  1.6950 -0.4110  0.8609
 6426SOL     OW19847   2.517   2.325   5.986 -0.2197 -0.3851  0.2003
 6426SOL    HW119848   2.560   2.372   6.057 -0.6771  0.2267  0.0824
 6426SOL    HW219849   2.549   2.235   5.993 -1.6733 -0.7945  2.3437
 6427SOL     OW19850   5.415   6.724   1.921  0.1277  0.0995  0.5299
 6427SOL    HW119851   5.443   6.645   1.875 -2.1189 -0.7930  0.5719
 6427SOL    HW219852   5.368   6.775   1.855 -1.1967 -0.1361  1.2709
 6428SOL     OW19853   3.456   4.455   2.596 -0.2005 -0.1262  0.3522
 6428SOL    HW119854   3.471   4.361   2.601 -1.7173 -0.3341  3.0099
 6428SOL    HW219855   3.365   4.463   2.564  0.6145  0.5943 -2.0463
 6429SOL     OW19856   6.045   4.358   2.970  0.2182 -0.1458 -0.6608
 6429SOL    HW119857   6.078   4.271   2.992  0.0360 -0.1545 -0.4174
 6429SOL    HW219858   6.012   4.393   3.053 -0.1149 -0.0226 -0.8445
 6430SOL     OW19859   1.525   4.643   4.612  0.3260  0.5698  0.1340
 6430SOL    HW119860   1.599   4.694   4.647  0.1427 -0.3346  1.9625
 6430SOL    HW219861   1.447   4.684   4.650  0.1586 -0.7797  1.3614
 6431SOL     OW19862   6.663   3.747   3.328 -0.2331 -0.4980  0.2641
 6431SOL    HW119863   6.664   3.665   3.379  1.1723 -1.5891 -1.3870
 6431SOL    HW219864   6.746   3.790   3.351 -0.3279 -0.2197  0.0859
 6432SOL     OW19865   3.855   0.945   7.017  0.4426  0.2877 -0.2976
 6432SOL    HW119866   3.796   0.944   7.093 -0.4882 -0.7258 -0.9989
 6432SOL    HW219867   3.876   0.852   7.003  0.2734  0.4233 -1.5173
 6433SOL     OW19868   4.267   5.052   7.039  0.1385  0.5159 -0.2723
 6433SOL    HW119869   4.327   5.115   6.999  1.8913  0.6565  2.3405
 6433SOL    HW219870   4.317   4.970   7.042 -0.9457 -0.1808 -0.7871
 6434SOL     OW19871   4.012   5.994   0.995  0.4823  0.1868 -0.6488
 6434SOL    HW119872   3.975   6.012   0.909  0.9139  0.2123 -0.8323
 6434SOL    HW219873   4.035   5.901   0.993 -0.4099 -0.0558 -0.2116
 6435SOL     OW19874   3.252   0.185   7.412 -0.2435 -0.2175 -0.2079
 6435SOL    HW119875   3.323   0.183   7.476 -1.1017  1.6718  0.9003
 6435SOL    HW219876   3.185   0.126   7.447 -0.9628  1.2666  1.0216
 6436SOL     OW19877   5.832   0.235   1.001  0.2810  0.3774 -0.2802
 6436SOL    HW119878   5.925   0.249   1.020  0.9193 -1.7955 -1.5088
 6436SOL    HW219879   5.828   0.147   0.964 -2.2491  0.5353 -0.5394
 6437SOL     OW19880   0.074   0.643   4.136  0.4770 -0.1832  0.0610
 6437SOL    HW119881   0.135   0.572   4.153  0.2798 -0.1429  1.0188
 6437SOL    HW219882   0.104   0.715   4.193  0.0119  0.1032 -0.0444
 6438SOL     OW19883   1.179   1.495   5.339 -0.2292 -0.2215  0.0414
 6438SOL    HW119884   1.122   1.570   5.328  0.6740  0.3182 -1.2229
 6438SOL    HW219885   1.247   1.506   5.272  1.1042 -1.0656  1.2038
 6439SOL     OW19886   0.498   4.763   2.844  0.2773  0.4224  0.4685
 6439SOL    HW119887   0.507   4.854   2.871  1.5209  0.0618  1.3459
 6439SOL    HW219888   0.584   4.723   2.862 -0.8087 -1.4145  1.9933
 6440SOL     OW19889   6.169   0.139   2.714 -0.3383  0.4057  0.3319
 6440SOL    HW119890   6.190   0.048   2.693 -0.5636  0.4832 -0.2505
 6440SOL    HW219891   6.250   0.174   2.751  0.5781  0.6690 -1.7778
 6441SOL     OW19892   3.797   2.728   1.922 -0.0233 -0.3786 -0.1415
 6441SOL    HW119893   3.790   2.748   2.015  1.7483  2.2570 -0.4767
 6441SOL    HW219894   3.887   2.698   1.910 -0.4562 -1.4396 -0.9296
 6442SOL     OW19895   0.633   0.835   0.182  0.0202  0.6551 -0.1030
 6442SOL    HW119896   0.678   0.803   0.104  0.9895  2.0909 -0.1661
 6442SOL    HW219897   0.552   0.784   0.185  0.5156 -0.2620 -1.3680
 6443SOL     OW19898   2.055   0.213   1.247 -0.0118 -0.2999  0.2007
 6443SOL    HW119899   2.047   0.308   1.253 -2.9399 -0.4831  0.4322
 6443SOL    HW219900   2.088   0.187   1.334 -0.4180  0.4001  0.5758
 6444SOL     OW19901   0.042   5.501   0.170  0.1541 -0.0807  0.1481
 6444SOL    HW119902   0.074   5.487   0.081  1.4699 -0.2626  0.6284
 6444SOL    HW219903   0.052   5.595   0.185  0.3546 -0.1220  0.2669
 6445SOL     OW19904   6.605   4.118   3.157  0.4180  0.0738  0.0148
 6445SOL    HW119905   6.635   4.072   3.079 -0.2008 -1.4970  0.6639
 6445SOL    HW219906   6.662   4.086   3.227  0.4354  0.8454  0.3665
 6446SOL     OW19907   3.481   3.717   0.885  0.3165  0.4200  0.5754
 6446SOL    HW119908   3.556   3.724   0.826  1.0165  1.0989  1.5160
 6446SOL    HW219909   3.517   3.681   0.966  0.2197  3.1706  1.9633
 6447SOL     OW19910   2.983   2.350   3.441  0.5667 -0.3927 -0.3477
 6447SOL    HW119911   2.916   2.372   3.506  0.4744 -0.2878 -0.4777
 6447SOL    HW219912   2.934   2.327   3.363  0.6904  1.5169 -1.0372
 6448SOL     OW19913   6.018   5.981   6.514 -0.2276 -0.1738  0.5111
 6448SOL    HW119914   5.975   5.991   6.599  0.0395 -0.4825  0.6843
 6448SOL    HW219915   5.946   5.984   6.450 -0.2795  2.0121  0.5792
 6449SOL     OW19916   5.952   0.198   0.223 -0.0011 -0.1453  0.1954
 6449SOL    HW119917   6.037   0.153   0.223  0.0533 -0.0550  1.0818
 6449SOL    HW219918   5.969   0.282   0.265 -0.7958 -0.6666  1.6204
 6450SOL     OW19919   1.074   3.073   0.010  0.5229  0.5659 -0.0488
 6450SOL    HW119920   1.050   3.051   0.100 -2.8643  0.2527 -0.8846
 6450SOL    HW219921   1.142   3.010  -0.013  0.0968 -0.6033  1.6808
 6451SOL     OW19922   3.737   4.765   0.484 -0.0041  0.2609  0.6417
 6451SOL    HW119923   3.745   4.858   0.466  1.0612  0.1816  0.6343
 6451SOL    HW219924   3.804   4.747   0.550 -1.1477 -0.2311  1.7147
 6452SOL     OW19925   2.616   6.141   1.076  0.1024 -0.4832 -0.1609
 6452SOL    HW119926   2.533   6.178   1.109  0.4208  1.5069 -1.4160
 6452SOL    HW219927   2.645   6.083   1.146 -2.4771 -1.4945  0.2023
 6453SOL     OW19928   4.839   2.098   0.487  0.2572  0.2078 -0.7554
 6453SOL    HW119929   4.772   2.167   0.478 -0.5738 -0.4768 -0.0838
 6453SOL    HW219930   4.790   2.016   0.475  0.9778 -0.3045 -0.2472
 6454SOL     OW19931   5.783   0.053   3.810  0.6593  0.5740  0.6471
 6454SOL    HW119932   5.794   0.022   3.720  1.3428  1.8515  0.2621
 6454SOL    HW219933   5.780  -0.027   3.863  0.2893 -0.1959 -0.4932
 6455SOL     OW19934   4.609   6.290   0.494 -0.5248  0.4678 -0.0888
 6455SOL    HW119935   4.547   6.218   0.496 -2.3167  1.9447  1.7873
 6455SOL    HW219936   4.616   6.314   0.402 -2.7126  0.1899 -0.3656
 6456SOL     OW19937   0.506   6.761   4.344  0.0842  0.0578 -0.4430
 6456SOL    HW119938   0.549   6.846   4.351 -0.2350  0.1294  0.7630
 6456SOL    HW219939   0.413   6.782   4.335 -0.3211 -0.1428  2.3632
 6457SOL     OW19940   2.300   2.193   1.822 -0.0798  0.1694 -0.6547
 6457SOL    HW119941   2.310   2.126   1.889 -2.6731 -0.4858 -0.8362
 6457SOL    HW219942   2.334   2.153   1.742 -0.1356 -0.3288 -0.4286
 6458SOL     OW19943   4.896   1.947   1.145  0.1486  1.1446 -0.3758
 6458SOL    HW119944   4.937   1.863   1.168 -0.4918  1.1913  0.9851
 6458SOL    HW219945   4.969   2.001   1.114  0.9320  0.8104  0.8321
 6459SOL     OW19946   6.988   2.072   2.203  0.4478  0.4968  0.3048
 6459SOL    HW119947   7.060   2.125   2.237  1.4601  0.6251 -1.8571
 6459SOL    HW219948   6.995   2.080   2.108 -1.2666 -1.0525 -0.0169
 6460SOL     OW19949   6.487   1.183   1.832 -0.5289  0.2992  0.3218
 6460SOL    HW119950   6.505   1.135   1.913  0.2307  0.5381  0.3085
 6460SOL    HW219951   6.521   1.271   1.848  1.1327 -0.0731 -0.7917
 6461SOL     OW19952   1.907   3.077   3.261 -0.0772  0.2031  0.4661
 6461SOL    HW119953   1.977   3.079   3.325  1.9277 -1.6455 -1.5182
 6461SOL    HW219954   1.857   2.998   3.281 -1.1250  1.0350  1.3081
 6462SOL     OW19955   0.950   3.631   1.047  0.2640  0.1548  0.6101
 6462SOL    HW119956   0.896   3.607   1.122 -1.3730 -1.5931 -1.0192
 6462SOL    HW219957   0.984   3.548   1.014 -1.2921  0.4730 -2.1276
 6463SOL     OW19958   3.793   6.317   5.076 -0.2833  0.0054  0.2737
 6463SOL    HW119959   3.748   6.289   5.155 -0.7679  0.2469  0.0853
 6463SOL    HW219960   3.723   6.345   5.017  0.1563  1.3626  0.3608
 6464SOL     OW19961   7.075   2.729   5.438 -0.0123  0.0056 -0.9987
 6464SOL    HW119962   7.131   2.652   5.449 -0.4791 -0.3832 -1.2808
 6464SOL    HW219963   7.132   2.795   5.398  1.6866  1.3776  3.0907
 6465SOL     OW19964   2.810   4.854   1.067 -0.6587 -0.3882 -0.2939
 6465SOL    HW119965   2.725   4.864   1.110 -0.1541 -0.3290  0.7116
 6465SOL    HW219966   2.811   4.763   1.037 -0.3790 -0.9193  1.2517
 6466SOL     OW19967   1.250   2.495   6.233 -0.4755 -0.0306 -0.8078
 6466SOL    HW119968   1.185   2.451   6.288 -0.2782 -1.2061 -1.4821
 6466SOL    HW219969   1.212   2.492   6.145  0.0679  0.1330 -1.0476
 6467SOL     OW19970   7.314   6.056   7.352  0.0778 -0.1515  0.4146
 6467SOL    HW119971   7.293   5.967   7.324 -0.2484 -0.2081  0.8310
 6467SOL    HW219972   7.398   6.075   7.309  0.1381 -0.6468  0.2983
 6468SOL     OW19973   7.152   5.653   0.836  0.3211 -0.5112  0.2528
 6468SOL    HW119974   7.132   5.654   0.930  0.5311  0.2378  0.2960
 6468SOL    HW219975   7.077   5.695   0.795  0.1212 -1.0499  0.0551
 6469SOL     OW19976   4.084   1.083   4.819  0.1846 -0.0602 -0.5528
 6469SOL    HW119977   4.160   1.135   4.794  1.1962 -0.3490  1.7193
 6469SOL    HW219978   4.075   1.019   4.748  1.7793  0.2612 -1.0919
 6470SOL     OW19979   6.877   6.057   4.343 -0.4989  0.0727  0.0503
 6470SOL    HW119980   6.952   6.113   4.361 -0.4980  0.2030 -0.3435
 6470SOL    HW219981   6.897   6.018   4.258 -0.1896 -1.0349  0.6037
 6471SOL     OW19982   0.147   5.001   3.248 -0.1451 -0.0064  0.5274
 6471SOL    HW119983   0.178   5.074   3.195 -0.2310 -1.0509 -1.0260
 6471SOL    HW219984   0.221   4.940   3.249 -0.5702 -0.5280  0.5894
 6472SOL     OW19985   5.035   5.348   2.931 -0.2106 -0.1832  0.0607
 6472SOL    HW119986   4.967   5.343   2.865 -0.9027 -1.5950  0.8305
 6472SOL    HW219987   5.019   5.430   2.977  1.1014  1.5047 -2.3180
 6473SOL     OW19988   1.486   6.531   1.661 -0.2139  0.2366  0.3001
 6473SOL    HW119989   1.498   6.441   1.632  0.3920  0.5331 -0.4237
 6473SOL    HW219990   1.434   6.571   1.591  1.9432  1.1786 -0.8765
 6474SOL     OW19991   7.163   6.090   3.844 -0.0513 -0.3598 -0.1986
 6474SOL    HW119992   7.098   6.025   3.814 -0.8502 -0.0943  0.9122
 6474SOL    HW219993   7.148   6.097   3.938  1.8981 -0.6032  0.1633
 6475SOL     OW19994   1.816   5.957   5.373  0.0120 -0.2033  0.3449
 6475SOL    HW119995   1.856   5.910   5.299  0.6035 -0.6552  0.9416
 6475SOL    HW219996   1.804   5.890   5.440 -0.0916  0.2996  0.8350
 6476SOL     OW19997   0.430   1.240   0.902 -0.4065 -0.3096 -0.2673
 6476SOL    HW119998   0.405   1.281   0.820  2.7120  3.1142  0.2415
 6476SOL    HW219999   0.494   1.173   0.878  0.1928  0.4035 -0.6627
 6477SOL     OW20000   4.659   7.213   6.565 -0.0764 -0.0457  0.1877
 6477SOL    HW120001   4.657   7.219   6.661  0.0340 -0.3353  0.2088
 6477SOL    HW220002   4.579   7.258   6.537 -0.1324  0.0009  0.4176
 6478SOL     OW20003   3.590   0.016   5.525 -0.2015 -0.2532 -0.0324
 6478SOL    HW120004   3.595   0.096   5.473 -2.1447 -0.0199  0.0857
 6478SOL    HW220005   3.677  -0.024   5.515  0.1840  0.8782 -1.6606
 6479SOL     OW20006   0.555   2.769   3.103 -0.0320 -0.2172 -0.8596
 6479SOL    HW120007   0.501   2.734   3.032 -0.0335 -0.5312 -0.7061
 6479SOL    HW220008   0.644   2.744   3.079  0.1852  1.2198 -1.6585
 6480SOL     OW20009   0.057   4.187   2.430 -0.1066 -0.2956 -0.0560
 6480SOL    HW120010   0.006   4.123   2.380 -2.6910  1.1938  0.4704
 6480SOL    HW220011   0.082   4.252   2.364 -0.5291 -0.0901 -0.0202
 6481SOL     OW20012   1.155   5.791   3.993 -0.1762 -0.0301  0.2336
 6481SOL    HW120013   1.219   5.736   3.948  1.1681  0.6516  1.2445
 6481SOL    HW220014   1.070   5.757   3.965  0.6001 -2.1771  0.3021
 6482SOL     OW20015   0.233   5.887   4.221  0.4457  0.2835 -0.0777
 6482SOL    HW120016   0.142   5.910   4.237  0.9518  1.0058  2.1234
 6482SOL    HW220017   0.269   5.869   4.308  2.5601  0.6283 -0.8110
 6483SOL     OW20018   1.974   6.392   3.748  1.0989  0.1741 -0.1291
 6483SOL    HW120019   2.015   6.414   3.832  0.4933  0.4239  0.1088
 6483SOL    HW220020   2.033   6.329   3.708  1.2403 -0.1778  0.6226
 6484SOL     OW20021   7.383   1.313   6.991  0.3640 -0.0251  0.5955
 6484SOL    HW120022   7.337   1.240   6.951  0.1432 -0.0591  0.9039
 6484SOL    HW220023   7.325   1.388   6.977  0.2447 -0.0528  0.9149
 6485SOL     OW20024   7.366   5.704   2.872 -0.0952  0.3665  0.1288
 6485SOL    HW120025   7.442   5.656   2.839 -0.5475  0.4659 -1.1367
 6485SOL    HW220026   7.357   5.677   2.963  0.8742 -0.3861  0.0125
 6486SOL     OW20027   5.381   7.004   0.743 -0.9206 -0.1096  0.3114
 6486SOL    HW120028   5.435   7.070   0.699 -1.2842  0.0067  0.0355
 6486SOL    HW220029   5.427   6.921   0.727 -0.6927  0.0197  0.2927
 6487SOL     OW20030   2.978   5.388   4.815  0.2907 -0.4269 -0.6311
 6487SOL    HW120031   2.972   5.359   4.724 -1.4220  1.0068 -1.0075
 6487SOL    HW220032   3.022   5.473   4.810 -2.5059  1.1128 -0.5038
 6488SOL     OW20033   3.951   2.752   0.471 -0.0683 -0.2693 -0.4327
 6488SOL    HW120034   3.868   2.799   0.466 -1.2320 -2.0116  1.0274
 6488SOL    HW220035   3.930   2.672   0.519  1.6901 -2.4491 -2.9733
 6489SOL     OW20036   6.430   0.425   3.550 -0.2587  0.2867 -0.4382
 6489SOL    HW120037   6.363   0.361   3.577  2.2896 -2.4337 -0.0457
 6489SOL    HW220038   6.452   0.472   3.630 -0.5561  0.0663 -0.2224
 6490SOL     OW20039   1.889   5.326   3.974  0.3325  0.2050  0.5348
 6490SOL    HW120040   1.969   5.301   3.928 -0.0452 -0.9509  0.4722
 6490SOL    HW220041   1.836   5.247   3.974  0.5552 -0.0646  3.5028
 6491SOL     OW20042   2.953   2.386   1.732 -0.3193 -0.6359 -0.0846
 6491SOL    HW120043   3.015   2.451   1.700  0.0222 -0.7745  0.2877
 6491SOL    HW220044   2.872   2.435   1.747 -0.0390 -0.2784  0.2734
 6492SOL     OW20045   5.148   3.848   6.874 -0.1698  0.2621  0.3940
 6492SOL    HW120046   5.177   3.822   6.786 -2.3093  0.5262 -0.4371
 6492SOL    HW220047   5.071   3.903   6.859 -0.2231  0.8092  2.4286
 6493SOL     OW20048   5.628   0.519   5.813 -0.3453 -0.5350 -0.6191
 6493SOL    HW120049   5.584   0.436   5.829 -0.7086 -0.3528 -0.6502
 6493SOL    HW220050   5.561   0.585   5.831  0.0712 -0.2312 -0.1358
 6494SOL     OW20051   5.978   6.576   5.551 -0.0254  0.8101 -0.8756
 6494SOL    HW120052   6.021   6.654   5.515 -1.6757  1.9750 -0.4725
 6494SOL    HW220053   5.984   6.587   5.646  1.3499 -0.5373 -0.7674
 6495SOL     OW20054   5.682   2.238   5.083 -0.0392 -0.1970 -0.3679
 6495SOL    HW120055   5.601   2.286   5.104  1.2414  1.4628  1.0742
 6495SOL    HW220056   5.735   2.300   5.033  2.1946  0.5191  2.6306
 6496SOL     OW20057   3.258   6.729   1.739  0.3908  0.1964  0.1730
 6496SOL    HW120058   3.334   6.733   1.796  0.9164  0.8397 -0.5546
 6496SOL    HW220059   3.186   6.703   1.797  1.1216 -0.2347  0.9010
 6497SOL     OW20060   6.611   1.436   4.768  0.4619  0.3777  0.0038
 6497SOL    HW120061   6.534   1.490   4.753  1.3201  1.8503  0.7167
 6497SOL    HW220062   6.581   1.346   4.752 -0.7900  1.0931 -2.0206
 6498SOL     OW20063   4.821   2.783   6.008 -0.3022 -0.5428  0.6036
 6498SOL    HW120064   4.845   2.862   5.959 -0.4979 -0.3826  0.7667
 6498SOL    HW220065   4.786   2.815   6.091  1.2286 -0.8320  1.4007
 6499SOL     OW20066   0.817   5.235   1.442 -0.1142 -0.3510  0.6084
 6499SOL    HW120067   0.877   5.278   1.381 -1.0597  0.6297  0.3394
 6499SOL    HW220068   0.808   5.146   1.408  0.1951 -0.1333 -0.0614
 6500SOL     OW20069   1.915   5.882   0.609 -0.1785 -0.1324 -0.1228
 6500SOL    HW120070   1.843   5.844   0.660  0.0806 -0.0104  0.3324
 6500SOL    HW220071   1.993   5.837   0.641  0.1715  0.9881  0.6386
 6501SOL     OW20072   2.333   1.431   2.714 -0.7073 -0.2280  0.5409
 6501SOL    HW120073   2.358   1.463   2.801 -0.1912 -1.5311  0.8845
 6501SOL    HW220074   2.247   1.392   2.726 -1.3986  1.0963  0.0912
 6502SOL     OW20075   2.557   7.414   7.016  0.4441 -0.2001  0.0206
 6502SOL    HW120076   2.647   7.402   7.045  0.5729 -1.0201 -0.6882
 6502SOL    HW220077   2.517   7.469   7.084  1.1426 -0.8326  0.9688
 6503SOL     OW20078   3.222   2.042   1.959 -0.5721 -0.3654  0.9544
 6503SOL    HW120079   3.245   2.134   1.957  2.7450 -1.0790  0.5039
 6503SOL    HW220080   3.140   2.036   1.911  0.9366  1.9499 -2.2473
 6504SOL     OW20081   3.602   6.045   6.330 -0.2207  0.6545 -0.5178
 6504SOL    HW120082   3.575   5.956   6.306  2.3909 -0.2492 -0.4032
 6504SOL    HW220083   3.652   6.076   6.254  0.4812  1.2797  0.1872
 6505SOL     OW20084   6.735   5.519   3.971  0.0273  0.1089 -0.3658
 6505SOL    HW120085   6.784   5.479   3.900  1.2687  2.5458 -0.9594
 6505SOL    HW220086   6.643   5.499   3.951  0.5060 -1.3443 -1.2513
 6506SOL     OW20087   0.814   3.125   5.406  0.4949  0.7096 -0.2357
 6506SOL    HW120088   0.758   3.081   5.342 -0.3629  1.8549 -0.3089
 6506SOL    HW220089   0.754   3.182   5.455  1.2811  0.4926  1.0266
 6507SOL     OW20090   5.311   4.459   6.766  0.0556  0.1488  0.4477
 6507SOL    HW120091   5.219   4.437   6.747 -0.1170  1.5792 -0.5054
 6507SOL    HW220092   5.327   4.421   6.853 -1.1331 -0.9656  0.2088
 6508SOL     OW20093   0.885   4.427   0.089  0.3856 -0.6440 -0.4919
 6508SOL    HW120094   0.809   4.435   0.147  0.2876  0.2142 -0.7196
 6508SOL    HW220095   0.858   4.365   0.022 -0.9069  1.1507 -1.7412
 6509SOL     OW20096   4.897   2.770   2.744  0.3956 -0.0766 -0.3267
 6509SOL    HW120097   4.852   2.760   2.828  1.0627  0.2365  0.0878
 6509SOL    HW220098   4.934   2.683   2.726  0.1412 -0.1775 -0.3591
 6510SOL     OW20099   6.917   6.465   6.250  0.5388  0.0637  0.7612
 6510SOL    HW120100   6.993   6.417   6.217  2.5903  1.7955  2.6399
 6510SOL    HW220101   6.897   6.529   6.182  0.2199 -0.9016 -0.0813
 6511SOL     OW20102   6.493   4.217   6.894 -0.4527 -0.0018 -0.2409
 6511SOL    HW120103   6.499   4.268   6.813 -1.1579 -0.3548 -0.5185
 6511SOL    HW220104   6.584   4.196   6.916 -0.3039 -0.6946 -1.4453
 6512SOL     OW20105   2.087   1.154   4.120 -0.8965  0.0931 -0.0028
 6512SOL    HW120106   2.038   1.210   4.060 -1.3667 -0.7306 -0.4041
 6512SOL    HW220107   2.177   1.158   4.089 -0.7360  1.3862  0.5616
 6513SOL     OW20108   2.353   1.125   2.959  0.0477 -0.2606  0.0636
 6513SOL    HW120109   2.443   1.116   2.990  0.1102 -2.2326 -0.5441
 6513SOL    HW220110   2.324   1.036   2.943 -0.9142  0.4499 -2.8422
 6514SOL     OW20111   5.768   1.849   0.458 -0.0160  0.1078  0.4500
 6514SOL    HW120112   5.674   1.852   0.443 -0.1939 -2.4524  0.5645
 6514SOL    HW220113   5.805   1.810   0.379  0.5085 -1.8599  1.5839
 6515SOL     OW20114   0.272   1.962   3.153  0.6279 -0.0280  0.4856
 6515SOL    HW120115   0.263   1.887   3.094  1.2692 -0.1327  0.5114
 6515SOL    HW220116   0.183   1.978   3.186  0.1078  0.4881 -1.0580
 6516SOL     OW20117   0.816   3.396   2.167  0.2650 -0.2348 -0.0612
 6516SOL    HW120118   0.867   3.371   2.244  0.0113 -1.7021 -0.3415
 6516SOL    HW220119   0.875   3.382   2.093  0.3684  0.7657 -0.1795
 6517SOL     OW20120   3.120   4.123   4.838  0.4117 -0.5499  0.1679
 6517SOL    HW120121   3.122   4.029   4.825 -0.0876 -0.3844 -1.2931
 6517SOL    HW220122   3.157   4.159   4.757 -0.5782  0.5273  0.1708
 6518SOL     OW20123   4.512   1.980   1.406 -1.1076 -0.5321  0.3309
 6518SOL    HW120124   4.592   2.021   1.374 -1.0015 -0.1586  1.0454
 6518SOL    HW220125   4.503   1.900   1.354 -0.2850 -0.5673  0.2348
 6519SOL     OW20126   1.986   5.155   0.783 -0.3227  0.3117  0.1576
 6519SOL    HW120127   2.013   5.064   0.793 -2.4508 -0.2460  1.6250
 6519SOL    HW220128   1.943   5.157   0.697  1.1614  0.3769 -0.6155
 6520SOL     OW20129   5.859   2.576   6.728 -0.3107 -0.3776  0.0467
 6520SOL    HW120130   5.828   2.527   6.804  0.2099 -0.7956  0.0016
 6520SOL    HW220131   5.783   2.586   6.672 -0.6038 -0.4277  0.4354
 6521SOL     OW20132   4.789   6.858   1.347 -0.0614  0.1210  0.3326
 6521SOL    HW120133   4.772   6.893   1.260 -0.5997  1.0542  0.8011
 6521SOL    HW220134   4.705   6.822   1.375  0.8445 -3.4471 -0.9037
 6522SOL     OW20135   5.367   3.070   1.878 -0.3080 -0.1391  0.0384
 6522SOL    HW120136   5.273   3.059   1.863 -0.1158  1.1879 -2.8032
 6522SOL    HW220137   5.408   3.046   1.795  1.6005  2.0056  0.2453
 6523SOL     OW20138   5.060   4.900   7.050 -0.8025 -0.1029 -0.4854
 6523SOL    HW120139   4.992   4.962   7.024  0.4792  1.0244 -1.2945
 6523SOL    HW220140   5.134   4.920   6.993  0.5076 -0.7399  0.9166
 6524SOL     OW20141   0.234   5.500   7.164 -0.0909  0.1529 -0.2374
 6524SOL    HW120142   0.140   5.518   7.165 -0.2461 -0.2727  2.8061
 6524SOL    HW220143   0.241   5.415   7.121 -0.9887  0.6121 -1.3233
 6525SOL     OW20144   2.720   2.488   0.884  0.6549 -0.5158  0.3750
 6525SOL    HW120145   2.630   2.485   0.917  0.2196  0.1934 -0.6848
 6525SOL    HW220146   2.735   2.580   0.862  2.8347  0.0617  3.5958
 6526SOL     OW20147   4.674   2.059   6.179  0.0080  0.3685 -0.0648
 6526SOL    HW120148   4.588   2.018   6.177  1.1849 -2.3564 -0.0006
 6526SOL    HW220149   4.659   2.148   6.148 -2.6571 -0.3188 -1.0370
 6527SOL     OW20150   4.226   5.341   3.310 -0.4412  0.0385  0.1799
 6527SOL    HW120151   4.151   5.299   3.354  0.1302 -0.9923  0.1992
 6527SOL    HW220152   4.303   5.304   3.353  0.1547 -1.1861 -1.7792
 6528SOL     OW20153   4.971   1.195   5.327  0.2510  0.2888 -0.7330
 6528SOL    HW120154   4.894   1.250   5.340 -0.7779 -0.3606 -3.4113
 6528SOL    HW220155   4.936   1.108   5.310  1.6967 -0.4316 -0.2346
 6529SOL     OW20156   0.907   6.168   4.476 -0.2046 -0.4955 -0.0397
 6529SOL    HW120157   0.948   6.094   4.521 -1.0017 -1.0019 -0.1316
 6529SOL    HW220158   0.899   6.139   4.385  0.4397  0.1198 -0.3065
 6530SOL     OW20159   1.752   7.286   5.260 -0.2137 -0.1437  0.5401
 6530SOL    HW120160   1.679   7.349   5.259  0.2580  0.4241  0.9786
 6530SOL    HW220161   1.822   7.332   5.306  0.6209 -0.4638 -0.3925
 6531SOL     OW20162   7.065   3.909   3.838 -0.0618 -0.3297 -0.2462
 6531SOL    HW120163   7.049   3.982   3.779  0.9950 -0.9462 -1.3392
 6531SOL    HW220164   6.983   3.899   3.886 -0.2426  1.5023 -0.1321
 6532SOL     OW20165   4.676   1.700   6.458  0.7956 -0.2738  0.2837
 6532SOL    HW120166   4.715   1.641   6.395  0.5374 -1.4334  1.1732
 6532SOL    HW220167   4.747   1.758   6.484  0.9296  0.1368 -0.9550
 6533SOL     OW20168   5.095   7.292   7.071  0.2294 -0.1350  0.0608
 6533SOL    HW120169   5.049   7.279   7.153 -0.2039  0.0659 -0.1496
 6533SOL    HW220170   5.080   7.384   7.049  1.4552  0.1728  0.4301
 6534SOL     OW20171   1.244   4.012   6.472 -0.4137  0.1418 -0.3868
 6534SOL    HW120172   1.300   3.936   6.487 -2.0562 -0.8869  0.8170
 6534SOL    HW220173   1.177   3.981   6.411 -0.8707  0.7150 -0.1877
 6535SOL     OW20174   5.541   3.178   2.114  0.0894 -1.1053 -0.0944
 6535SOL    HW120175   5.487   3.141   2.044 -0.3088 -0.2056 -0.2709
 6535SOL    HW220176   5.631   3.161   2.087 -0.0762 -2.6760  0.2276
 6536SOL     OW20177   5.235   1.965   7.432  0.7239  0.4506  0.3841
 6536SOL    HW120178   5.241   2.057   7.407  1.0522  0.6762  1.2320
 6536SOL    HW220179   5.156   1.933   7.389  0.9381  0.9684 -0.4086
 6537SOL     OW20180   0.000   3.099   3.956 -0.2790 -0.1384  0.2429
 6537SOL    HW120181   0.050   3.152   4.017 -0.5748  0.9761 -0.4509
 6537SOL    HW220182   0.001   3.011   3.994  1.3836  0.0559  0.7282
 6538SOL     OW20183   2.517   3.072   4.956  0.7574  0.6058 -0.2443
 6538SOL    HW120184   2.491   3.004   4.894 -0.5903  0.4916  0.4057
 6538SOL    HW220185   2.508   3.154   4.906 -0.9046  0.5689 -0.0767
 6539SOL     OW20186   0.155   4.217   4.067 -0.5652 -0.2775  0.1543
 6539SOL    HW120187   0.157   4.124   4.092  0.1035 -0.5010 -0.6731
 6539SOL    HW220188   0.064   4.243   4.077 -1.0432 -1.4291 -1.0429
 6540SOL     OW20189   1.500   5.308   2.572 -0.6492 -0.0977  0.5435
 6540SOL    HW120190   1.558   5.238   2.604  0.2990 -0.1284 -1.1337
 6540SOL    HW220191   1.415   5.266   2.564 -1.0294 -0.0279  3.1718
 6541SOL     OW20192   0.357   5.860   4.467 -0.1245  0.1306  0.9199
 6541SOL    HW120193   0.435   5.906   4.497  0.5829 -0.5337  0.1650
 6541SOL    HW220194   0.295   5.868   4.539  0.6830  0.5712  1.5878
 6542SOL     OW20195   1.299   4.867   6.055  0.1289  0.5100 -0.1978
 6542SOL    HW120196   1.334   4.897   5.971  0.9512 -0.6156 -0.2879
 6542SOL    HW220197   1.253   4.786   6.034  1.8434 -0.7610  0.6356
 6543SOL     OW20198   1.284   1.216   4.691 -0.0442 -0.3753  0.5157
 6543SOL    HW120199   1.210   1.204   4.750 -0.7662 -0.3398 -0.3578
 6543SOL    HW220200   1.318   1.303   4.713  0.0050 -0.5630  1.2031
 6544SOL     OW20201   3.427   4.001   6.558 -0.3398 -0.1623 -0.4828
 6544SOL    HW120202   3.500   4.063   6.560  0.9736 -1.6531  0.0828
 6544SOL    HW220203   3.400   3.993   6.649  0.2936 -1.2923 -0.3809
 6545SOL     OW20204   6.955   0.794   6.291 -0.1839  0.3606 -0.6955
 6545SOL    HW120205   7.038   0.796   6.339 -0.2156 -1.5708 -0.4568
 6545SOL    HW220206   6.893   0.837   6.349  0.1490 -0.3757  0.2374
 6546SOL     OW20207   2.209   4.302   4.875  0.0592  0.2101  0.3832
 6546SOL    HW120208   2.183   4.364   4.807  0.3500 -0.0169  0.0554
 6546SOL    HW220209   2.265   4.352   4.934  1.5946 -0.1070 -0.7490
 6547SOL     OW20210   4.929   5.729   4.017  0.4380 -0.2015  0.1894
 6547SOL    HW120211   4.938   5.657   3.954 -1.1207 -0.8343  0.6463
 6547SOL    HW220212   4.942   5.688   4.102  0.2274  0.1998  0.4184
 6548SOL     OW20213   2.972   2.421   1.163 -0.2970 -0.2195  0.8631
 6548SOL    HW120214   2.980   2.349   1.225 -3.1472  0.5404  2.2854
 6548SOL    HW220215   3.027   2.491   1.199  0.2032 -0.7007  1.0422
 6549SOL     OW20216   6.176   0.147   3.154 -0.2808 -0.2516  0.0842
 6549SOL    HW120217   6.171   0.058   3.119 -0.2645 -0.4904  0.6885
 6549SOL    HW220218   6.249   0.188   3.107 -0.0493 -0.6725  0.0779
 6550SOL     OW20219   6.781   2.474   7.256  0.0514  0.5536 -0.4708
 6550SOL    HW120220   6.759   2.535   7.327  0.7172  1.1884 -0.7934
 6550SOL    HW220221   6.875   2.486   7.243  0.0956 -0.1880 -0.8807
 6551SOL     OW20222   4.478   6.803   0.922  0.2580 -0.0928  0.6084
 6551SOL    HW120223   4.400   6.824   0.973  0.6208  0.4324  0.9514
 6551SOL    HW220224   4.487   6.708   0.929 -0.0108 -0.0852  1.0558
 6552SOL     OW20225   6.370   4.038   1.123  0.3491  0.4976  0.4851
 6552SOL    HW120226   6.296   3.998   1.167 -0.5412  0.9593 -0.5425
 6552SOL    HW220227   6.341   4.050   1.032  1.7834  0.4115 -0.0237
 6553SOL     OW20228   0.794   0.209   0.790 -0.0901 -0.2583 -0.2819
 6553SOL    HW120229   0.850   0.139   0.759  0.1550  0.2408 -0.9990
 6553SOL    HW220230   0.777   0.188   0.882 -0.6694 -1.6596 -0.6914
 6554SOL     OW20231   1.991   4.098   2.728  0.2075  0.1111 -0.2929
 6554SOL    HW120232   1.955   4.081   2.641  1.0693 -0.9962 -0.4509
 6554SOL    HW220233   1.914   4.108   2.784 -0.3480  0.0466 -1.0292
 6555SOL     OW20234   6.150   5.226   3.969  0.4239  0.0011  0.0668
 6555SOL    HW120235   6.210   5.207   3.897  3.8648  0.1136  2.6590
 6555SOL    HW220236   6.140   5.322   3.968 -0.0337 -0.0505 -0.5936
 6556SOL     OW20237   5.600   3.734   6.371 -0.2109 -0.0327  0.4025
 6556SOL    HW120238   5.686   3.762   6.340 -0.0230  3.9504  3.6852
 6556SOL    HW220239   5.618   3.664   6.434  0.6763  0.6619  0.9423
 6557SOL     OW20240   1.562   3.874   6.420  0.1409 -0.3043  0.0242
 6557SOL    HW120241   1.554   3.932   6.345  0.6227 -0.1681  0.0716
 6557SOL    HW220242   1.635   3.816   6.397 -0.3911 -0.9497 -0.0634
 6558SOL     OW20243   4.003   2.080   4.734 -0.1498 -0.1054 -0.7309
 6558SOL    HW120244   4.056   2.012   4.692  0.2225 -0.1449 -0.2106
 6558SOL    HW220245   3.931   2.096   4.673 -0.7623 -1.6367 -0.4376
 6559SOL     OW20246   3.140   5.844   4.580 -0.1581  0.7829 -0.0637
 6559SOL    HW120247   3.181   5.930   4.585  1.5352 -0.0342  1.2805
 6559SOL    HW220248   3.213   5.782   4.587 -1.5071 -0.7548  1.3042
 6560SOL     OW20249   2.639   2.348   6.648  0.2684 -0.4693 -0.0047
 6560SOL    HW120250   2.700   2.315   6.713  1.5595 -0.4880 -1.1730
 6560SOL    HW220251   2.577   2.277   6.635 -0.2292 -0.3274  1.4376
 6561SOL     OW20252   3.327   1.121   7.409 -0.6532  0.1680 -0.1416
 6561SOL    HW120253   3.239   1.112   7.373 -0.6684  0.6561 -0.2347
 6561SOL    HW220254   3.313   1.124   7.504 -0.8226  1.0853 -0.1863
 6562SOL     OW20255   0.637   1.930   4.381 -0.1920  0.0426 -0.3120
 6562SOL    HW120256   0.651   1.954   4.473  2.0624 -2.1370  0.0275
 6562SOL    HW220257   0.566   1.865   4.384 -1.0770  0.9868 -0.3188
 6563SOL     OW20258   7.060   7.362   1.207 -0.3234 -0.0679  0.1808
 6563SOL    HW120259   7.032   7.453   1.199 -0.3339 -0.0364  0.5607
 6563SOL    HW220260   7.144   7.366   1.252  0.0021 -0.2038 -0.4064
 6564SOL     OW20261   1.653   3.110   2.719  0.2765  0.0051 -0.6341
 6564SOL    HW120262   1.559   3.120   2.702  0.0800  0.2425  0.4753
 6564SOL    HW220263   1.695   3.139   2.639 -0.6062 -0.3900 -1.2629
 6565SOL     OW20264   5.704   5.798   0.827 -0.3077 -0.1700  0.5256
 6565SOL    HW120265   5.782   5.839   0.791 -0.8509  0.4259  0.0025
 6565SOL    HW220266   5.684   5.849   0.905 -0.6892  0.2599  0.1559
 6566SOL     OW20267   4.406   4.466   1.165  0.4160 -0.3697  0.1824
 6566SOL    HW120268   4.320   4.425   1.173  0.5791 -0.4915  1.5371
 6566SOL    HW220269   4.457   4.429   1.237  1.1202  0.8684  0.3489
 6567SOL     OW20270   1.111   3.752   0.347  0.4677 -0.1881  0.8901
 6567SOL    HW120271   1.085   3.660   0.339  1.1419 -0.2767 -0.6048
 6567SOL    HW220272   1.059   3.797   0.280 -0.2814  0.6478  1.9852
 6568SOL     OW20273   2.237   7.145   0.983  0.6564 -0.1908  0.0150
 6568SOL    HW120274   2.162   7.085   0.986  0.4062  0.1450  0.7473
 6568SOL    HW220275   2.287   7.124   1.062  1.0947 -0.1022 -0.2390
 6569SOL     OW20276   1.428   3.191   7.248  0.0309  0.0529 -0.0625
 6569SOL    HW120277   1.352   3.145   7.213 -0.3808 -0.1697  1.0796
 6569SOL    HW220278   1.502   3.155   7.199 -0.4320 -0.8281 -0.1397
 6570SOL     OW20279   3.765   7.381   1.962  0.3304  0.0174 -0.5293
 6570SOL    HW120280   3.814   7.463   1.973 -1.3415  1.0705 -0.6120
 6570SOL    HW220281   3.823   7.314   1.998  1.6170  1.2764 -0.1560
 6571SOL     OW20282   0.140   5.364   4.650 -0.2999  0.1949 -0.3738
 6571SOL    HW120283   0.200   5.426   4.692 -0.7437 -0.6430  1.6557
 6571SOL    HW220284   0.056   5.380   4.692 -0.5319 -1.4112 -0.1743
 6572SOL     OW20285   4.086   2.086   1.024  0.5229 -0.2240  0.8949
 6572SOL    HW120286   4.158   2.024   1.036 -0.4022 -1.2392  1.3458
 6572SOL    HW220287   4.129   2.169   1.007  1.8038 -0.9497  0.4292
 6573SOL     OW20288   6.424   5.707   5.977 -0.2236 -0.4047  0.0246
 6573SOL    HW120289   6.415   5.784   6.033  0.2818  0.0297 -0.4777
 6573SOL    HW220290   6.493   5.655   6.017  1.3310  0.7281 -1.0806
 6574SOL     OW20291   1.321   2.275   1.169 -0.3897  0.5950  0.0555
 6574SOL    HW120292   1.402   2.278   1.219  1.7186 -0.9003 -2.9182
 6574SOL    HW220293   1.341   2.216   1.096 -3.8439  1.0215 -1.4122
 6575SOL     OW20294   2.563   4.826   0.409  0.1523  0.6894  0.3672
 6575SOL    HW120295   2.632   4.833   0.475  1.3628  0.6649 -0.8490
 6575SOL    HW220296   2.482   4.832   0.458  1.0248  1.2189  1.7917
 6576SOL     OW20297   5.810   3.050   2.072 -0.0005  0.0912 -0.2387
 6576SOL    HW120298   5.882   3.100   2.110  0.3359 -0.8549  0.4068
 6576SOL    HW220299   5.775   3.000   2.145  0.4989 -1.5853 -1.1076
 6577SOL     OW20300   7.226   1.035   2.290  0.2094  0.0523  0.2735
 6577SOL    HW120301   7.251   1.085   2.212 -1.3762  1.2266  0.4647
 6577SOL    HW220302   7.179   0.960   2.256 -0.3264  0.4698  0.0761
 6578SOL     OW20303   3.632   5.814   2.522  0.5689  0.3826 -0.6239
 6578SOL    HW120304   3.602   5.883   2.463  1.1335  0.5630 -0.7101
 6578SOL    HW220305   3.573   5.741   2.505  1.8466 -0.2627 -2.8485
 6579SOL     OW20306   4.162   2.751   3.450  0.2862  0.4067 -0.2538
 6579SOL    HW120307   4.110   2.729   3.372 -0.9418  0.2708  0.5845
 6579SOL    HW220308   4.251   2.725   3.427 -0.0090  0.6029 -1.7111
 6580SOL     OW20309   6.080   7.401   6.199  0.2490  0.1284 -0.0965
 6580SOL    HW120310   6.007   7.462   6.199  0.3585  0.2949  1.4538
 6580SOL    HW220311   6.083   7.367   6.109 -2.6905 -1.0317  0.1318
 6581SOL     OW20312   0.412   1.498   3.802 -0.1489 -0.1584  0.1592
 6581SOL    HW120313   0.422   1.591   3.821 -1.2051 -0.0681  0.3531
 6581SOL    HW220314   0.501   1.467   3.786  0.4379  0.4823  1.9135
 6582SOL     OW20315   6.190   6.377   3.713 -0.4471  0.8857  0.3453
 6582SOL    HW120316   6.185   6.314   3.784 -2.1481  0.4451 -0.1262
 6582SOL    HW220317   6.251   6.444   3.745  1.3888 -0.9302  0.8679
 6583SOL     OW20318   7.278   2.389   1.660  0.2759 -0.3626  0.2174
 6583SOL    HW120319   7.340   2.439   1.713  1.3577 -2.1020  0.6597
 6583SOL    HW220320   7.199   2.443   1.659  0.1209 -0.2912  3.7468
 6584SOL     OW20321   2.935   3.531   4.848 -0.6832 -0.2936  0.3884
 6584SOL    HW120322   3.016   3.519   4.799 -0.2824  0.5906  0.7927
 6584SOL    HW220323   2.876   3.465   4.814 -0.5985  0.5975 -1.6356
 6585SOL     OW20324   0.966   2.622   4.643 -0.0689 -0.4290  0.1050
 6585SOL    HW120325   0.932   2.668   4.720  0.4284  0.2406 -0.0694
 6585SOL    HW220326   1.061   2.635   4.647  0.0233 -0.9359 -0.2744
 6586SOL     OW20327   3.057   0.730   3.016 -0.2607  0.5879 -0.0686
 6586SOL    HW120328   2.962   0.740   3.019 -0.1355  1.8502  1.0463
 6586SOL    HW220329   3.089   0.819   2.999  0.7358  0.3810  0.6387
 6587SOL     OW20330   1.031   3.544   5.977 -0.5754 -0.2823 -0.0173
 6587SOL    HW120331   1.071   3.511   6.057 -2.5609 -0.0495  1.1253
 6587SOL    HW220332   1.093   3.521   5.908  1.3104 -0.2738  1.5881
 6588SOL     OW20333   2.735   2.180   6.874 -0.1752  0.4773  0.4833
 6588SOL    HW120334   2.815   2.211   6.832 -0.2716  1.1310  0.7713
 6588SOL    HW220335   2.750   2.087   6.888 -0.6859 -0.1126 -2.2624
 6589SOL     OW20336   5.815   5.579   3.098 -0.1394  0.5626 -0.4354
 6589SOL    HW120337   5.744   5.528   3.136 -0.2503  1.0163 -0.0175
 6589SOL    HW220338   5.867   5.515   3.049 -1.9962  0.5518 -2.5705
 6590SOL     OW20339   1.679   6.397   0.722  0.1759  0.3566 -0.1811
 6590SOL    HW120340   1.703   6.445   0.643 -0.1875  1.3103  0.2714
 6590SOL    HW220341   1.597   6.438   0.751  0.9476  0.8771  1.3766
 6591SOL     OW20342   3.093   0.117   1.368  0.0455  0.1730  0.1807
 6591SOL    HW120343   3.132   0.048   1.422  1.0757  2.2731  2.3214
 6591SOL    HW220344   3.013   0.142   1.415  0.7002  1.7024  0.5488
 6592SOL     OW20345   0.598   6.591   6.154 -0.2392  0.5616 -0.0788
 6592SOL    HW120346   0.644   6.558   6.230 -0.3515  2.4837  0.8905
 6592SOL    HW220347   0.663   6.591   6.084  0.1407 -0.3042  0.2649
 6593SOL     OW20348   4.160   5.295   4.101 -0.8508  0.5530  0.5108
 6593SOL    HW120349   4.178   5.249   4.183 -1.4359  0.1837  0.4320
 6593SOL    HW220350   4.247   5.315   4.065 -0.5940  0.5350  1.1149
 6594SOL     OW20351   3.776   3.531   6.840 -0.4506  0.1399  0.1780
 6594SOL    HW120352   3.710   3.481   6.888 -1.2372  0.1677 -0.8419
 6594SOL    HW220353   3.728   3.602   6.799  0.2527  0.3068 -0.3900
 6595SOL     OW20354   7.230   4.729   4.424 -0.4785  0.0847 -0.1759
 6595SOL    HW120355   7.283   4.731   4.345  0.8575  0.4072  0.6920
 6595SOL    HW220356   7.172   4.805   4.416  0.7312  1.0484 -0.1555
 6596SOL     OW20357   5.609   7.145   2.991  0.9013 -0.8150 -0.2506
 6596SOL    HW120358   5.616   7.220   2.932  0.3731 -0.7209 -0.2022
 6596SOL    HW220359   5.534   7.096   2.958 -0.8979  0.4715  1.6705
 6597SOL     OW20360   6.950   5.193   2.650 -0.2756  0.9287 -0.1797
 6597SOL    HW120361   6.959   5.250   2.574  0.9544  3.1349  1.5130
 6597SOL    HW220362   7.033   5.146   2.655 -1.1412 -0.8435 -1.3429
 6598SOL     OW20363   3.905   2.919   0.807  0.2907 -0.2760 -0.4996
 6598SOL    HW120364   3.993   2.934   0.773  1.0787  0.2008  1.5883
 6598SOL    HW220365   3.859   3.002   0.795  0.7691  0.0906  0.1188
 6599SOL     OW20366   1.168   6.661   0.225 -0.5445 -0.0504  0.2105
 6599SOL    HW120367   1.132   6.745   0.255  0.5533  1.0898 -1.4947
 6599SOL    HW220368   1.235   6.685   0.161 -1.5516 -2.2565 -1.8449
 6600SOL     OW20369   5.407   6.910   1.407 -0.0323  0.6596 -0.0370
 6600SOL    HW120370   5.463   6.862   1.469 -0.5816  0.7756  0.5663
 6600SOL    HW220371   5.466   6.972   1.365  0.2745  0.8825  0.6982
 6601SOL     OW20372   1.085   2.018   3.822 -0.0145 -0.3445 -0.2980
 6601SOL    HW120373   1.025   2.087   3.795 -0.7867  0.7080  3.5233
 6601SOL    HW220374   1.131   2.054   3.897  1.9965 -2.8553 -0.1723
 6602SOL     OW20375   0.552   3.083   4.185 -0.2706  0.2516  0.6643
 6602SOL    HW120376   0.536   3.118   4.273 -0.0800  0.3316  0.6672
 6602SOL    HW220377   0.488   3.013   4.175  0.1648 -0.2219  1.1359
 6603SOL     OW20378   2.941   3.882   3.585 -0.0302 -0.9149  0.7353
 6603SOL    HW120379   2.996   3.950   3.624 -0.0110 -1.5416  1.8235
 6603SOL    HW220380   2.894   3.843   3.659 -0.6392 -1.5615  0.0270
 6604SOL     OW20381   1.876   1.436   5.318 -0.6037  0.2671 -0.2598
 6604SOL    HW120382   1.865   1.440   5.413 -0.5135  3.2973 -0.2843
 6604SOL    HW220383   1.937   1.364   5.304  2.1838  1.9040  2.3298
 6605SOL     OW20384   5.675   3.532   0.736  0.4854  0.3443  0.1765
 6605SOL    HW120385   5.668   3.558   0.828  1.9838  0.0006  0.4234
 6605SOL    HW220386   5.748   3.585   0.702  1.1089 -0.7837 -0.3164
 6606SOL     OW20387   5.383   1.056   3.616 -0.3370  0.3085  0.3932
 6606SOL    HW120388   5.407   1.116   3.544  1.4297 -0.1187  0.5793
 6606SOL    HW220389   5.379   1.112   3.693 -2.3123  0.7831  0.0009
 6607SOL     OW20390   5.423   5.232   2.791 -0.0625 -0.4867 -0.5171
 6607SOL    HW120391   5.372   5.165   2.746  0.6500 -1.4116  0.0090
 6607SOL    HW220392   5.514   5.208   2.775  0.2883  1.7741 -2.3741
 6608SOL     OW20393   6.985   1.664   4.401 -0.1694 -0.1370  0.2422
 6608SOL    HW120394   6.901   1.670   4.444  0.0879  0.4303  0.6676
 6608SOL    HW220395   7.049   1.667   4.472  0.2904  1.7498 -0.2160
 6609SOL     OW20396   3.938   1.756   5.592 -0.2486  0.2374 -0.0276
 6609SOL    HW120397   3.944   1.664   5.621 -1.7011  0.0787 -0.1687
 6609SOL    HW220398   4.029   1.784   5.585  0.2123 -0.9303  0.8667
 6610SOL     OW20399   3.579   5.299   3.701 -0.1462 -0.0376 -0.0144
 6610SOL    HW120400   3.617   5.317   3.616  2.0092 -1.7914  0.4816
 6610SOL    HW220401   3.634   5.230   3.739 -1.6978 -0.1471  2.3286
 6611SOL     OW20402   4.099   3.212   4.466  0.6225  0.4434  0.0288
 6611SOL    HW120403   4.030   3.156   4.500  0.4492  0.9043  0.4616
 6611SOL    HW220404   4.071   3.234   4.377  0.2429  0.5624  0.1731
 6612SOL     OW20405   7.420   5.634   7.255 -0.7236  0.3221  1.0149
 6612SOL    HW120406   7.456   5.692   7.322 -0.1804  0.0535  0.9629
 6612SOL    HW220407   7.374   5.692   7.195  1.4604  0.9688 -0.1310
 6613SOL     OW20408   4.763   5.724   3.670  0.1173 -0.0411 -0.2492
 6613SOL    HW120409   4.849   5.687   3.653 -0.5933 -1.4077 -1.0151
 6613SOL    HW220410   4.706   5.648   3.684 -1.3506  0.7269 -1.6492
 6614SOL     OW20411   0.612   5.639   1.583 -0.1814  0.3425  0.0951
 6614SOL    HW120412   0.688   5.671   1.630 -0.3412  1.0463 -0.1114
 6614SOL    HW220413   0.541   5.697   1.610 -0.7138 -0.4797  0.5057
 6615SOL     OW20414   2.861   3.142   0.584 -0.2779 -0.5194 -0.5061
 6615SOL    HW120415   2.816   3.226   0.584 -3.6140 -2.0953  1.7735
 6615SOL    HW220416   2.791   3.077   0.586  2.1480 -3.3873 -1.2793
 6616SOL     OW20417   3.272   6.944   6.212 -0.0845 -0.2756  0.0860
 6616SOL    HW120418   3.188   6.900   6.227 -0.7197  0.0317 -2.2327
 6616SOL    HW220419   3.329   6.876   6.175 -0.2207  0.1974 -1.0031
 6617SOL     OW20420   1.791   2.890   1.892  0.0635 -0.0056 -0.1078
 6617SOL    HW120421   1.829   2.811   1.853 -2.4013 -1.7305  0.7497
 6617SOL    HW220422   1.789   2.872   1.986  1.8931  2.2784  0.4717
 6618SOL     OW20423   6.290   0.831   5.864  0.4572  0.3199 -0.2205
 6618SOL    HW120424   6.334   0.897   5.918 -0.2137 -1.2904  2.4949
 6618SOL    HW220425   6.199   0.859   5.861  0.4685  0.3367 -0.4208
 6619SOL     OW20426   2.908   4.837   2.282  0.1521  0.2078 -0.1810
 6619SOL    HW120427   2.929   4.749   2.312 -1.1278 -0.2283 -0.5310
 6619SOL    HW220428   2.947   4.843   2.195 -1.1340 -0.6041 -0.8363
 6620SOL     OW20429   3.638   0.821   3.716  0.7805 -0.0398 -0.1584
 6620SOL    HW120430   3.577   0.747   3.712  0.6904  0.0339 -0.1321
 6620SOL    HW220431   3.716   0.785   3.758  1.3201 -0.5339 -1.5100
 6621SOL     OW20432   2.403   6.384   1.512 -1.1952  0.0345  0.0983
 6621SOL    HW120433   2.378   6.392   1.420  3.8738 -1.7827 -1.7573
 6621SOL    HW220434   2.432   6.472   1.536  0.2451 -0.0744 -1.1084
 6622SOL     OW20435   3.957   3.551   1.938 -0.2299  0.3482 -0.4237
 6622SOL    HW120436   4.048   3.554   1.909  0.0045  0.0565  0.2568
 6622SOL    HW220437   3.962   3.517   2.027 -0.7745  2.6053  0.5423
 6623SOL     OW20438   4.074   3.894   5.903  0.7646  0.0539  0.2028
 6623SOL    HW120439   4.027   3.833   5.846 -0.5860 -0.2218  1.5421
 6623SOL    HW220440   4.031   3.978   5.888  0.9181  0.1414  0.2533
 6624SOL     OW20441   1.224   0.579   2.397 -0.0891  0.4387 -0.0296
 6624SOL    HW120442   1.155   0.514   2.409  0.1022 -0.0076 -1.1781
 6624SOL    HW220443   1.252   0.602   2.486 -1.9038  0.8621  0.4790
 6625SOL     OW20444   3.168   2.480   2.114 -0.2570 -0.3679  0.4187
 6625SOL    HW120445   3.138   2.421   2.183  1.8439 -0.5135  1.2917
 6625SOL    HW220446   3.144   2.568   2.145  0.8121 -0.4159  1.4609
 6626SOL     OW20447   3.169   4.324   4.314  0.5012  0.5846 -0.2082
 6626SOL    HW120448   3.220   4.264   4.259  0.1289 -1.3610  1.4437
 6626SOL    HW220449   3.120   4.266   4.372  0.4729  2.5263  1.8022
 6627SOL     OW20450   4.903   0.994   4.440  0.5954  1.1381  0.0677
 6627SOL    HW120451   4.873   0.904   4.457  3.2729 -0.5288 -2.9786
 6627SOL    HW220452   4.828   1.037   4.399 -0.7279  0.3670  1.5477
 6628SOL     OW20453   6.492   0.950   6.627  0.1422  0.0400  0.0375
 6628SOL    HW120454   6.490   0.898   6.707 -0.1517  0.8458  0.5663
 6628SOL    HW220455   6.581   0.938   6.593  0.1287 -0.6727  0.2299
 6629SOL     OW20456   3.008   3.486   3.287 -0.2337  0.4568  0.1736
 6629SOL    HW120457   3.037   3.395   3.281 -0.0273  0.6064 -2.8037
 6629SOL    HW220458   2.930   3.490   3.232 -0.6289  1.9559  0.7999
 6630SOL     OW20459   2.493   6.798   2.975  0.1922  0.2352  0.1731
 6630SOL    HW120460   2.419   6.768   2.922  1.6844 -0.8742 -1.3548
 6630SOL    HW220461   2.456   6.869   3.028 -2.5773 -1.8060  1.2670
 6631SOL     OW20462   1.315   1.974   0.760  0.1091  0.4274 -0.0688
 6631SOL    HW120463   1.219   1.970   0.754  0.0934  0.2927  0.2389
 6631SOL    HW220464   1.345   1.933   0.680 -0.0801  2.7164 -1.3941
 6632SOL     OW20465   0.900   5.017   4.827 -0.0329  0.6105  0.5347
 6632SOL    HW120466   0.903   5.049   4.917  0.7184 -0.5419  0.9418
 6632SOL    HW220467   0.831   4.951   4.828  0.0849  0.4832  0.3113
 6633SOL     OW20468   4.603   3.778   5.583 -0.3202  0.6798 -0.3144
 6633SOL    HW120469   4.521   3.751   5.540  0.3055 -0.8779 -0.6247
 6633SOL    HW220470   4.669   3.722   5.543  0.5040  0.1007  1.7314
 6634SOL     OW20471   6.898   4.471   3.751  0.3162  0.0080  0.3008
 6634SOL    HW120472   6.947   4.454   3.670  3.9644  2.6551  1.6710
 6634SOL    HW220473   6.906   4.390   3.801  1.1521 -0.4728 -0.5797
 6635SOL     OW20474   1.113   4.424   2.322 -0.0154 -0.4333 -0.4192
 6635SOL    HW120475   1.124   4.390   2.411  0.9710  0.4388 -0.1772
 6635SOL    HW220476   1.196   4.402   2.278 -0.3449 -0.5175 -1.0054
 6636SOL     OW20477   0.070   2.912   5.274  0.0774 -0.6971 -0.6531
 6636SOL    HW120478   0.139   2.977   5.260 -0.5435  0.3830  1.0321
 6636SOL    HW220479   0.111   2.829   5.250  2.4834 -0.3089  1.5884
 6637SOL     OW20480   1.474   4.538   6.343  0.6912  0.5179 -0.3731
 6637SOL    HW120481   1.476   4.606   6.411 -0.0631  2.0306 -1.8062
 6637SOL    HW220482   1.519   4.464   6.383 -0.3294  1.1048  2.0326
 6638SOL     OW20483   3.412   0.051   1.348  0.4794  0.8812  0.0691
 6638SOL    HW120484   3.506   0.067   1.337  0.5314  0.1349 -0.6431
 6638SOL    HW220485   3.373   0.138   1.353  1.1611  1.1981 -0.0426
 6639SOL     OW20486   1.304   7.117   0.267  0.5251 -0.3330 -0.4862
 6639SOL    HW120487   1.392   7.131   0.302  0.0633  1.5937  0.0175
 6639SOL    HW220488   1.277   7.203   0.235 -2.4821  0.0251  2.4701
 6640SOL     OW20489   6.297   3.694   3.104  0.3477 -0.0038  0.6022
 6640SOL    HW120490   6.281   3.787   3.114 -0.9255  0.1006 -1.6599
 6640SOL    HW220491   6.393   3.686   3.106  0.5878  1.6663 -1.0836
 6641SOL     OW20492   0.385   5.322   2.925 -0.3830 -0.1400  0.0790
 6641SOL    HW120493   0.399   5.328   2.831 -0.8805 -0.6266 -0.0356
 6641SOL    HW220494   0.312   5.381   2.943 -0.2110  0.0431  0.1786
 6642SOL     OW20495   2.507   3.707   3.300 -0.0979  0.4483 -0.5209
 6642SOL    HW120496   2.420   3.676   3.272  0.6853 -2.4438 -0.1397
 6642SOL    HW220497   2.488   3.775   3.364 -2.3355 -2.2556  2.0235
 6643SOL     OW20498   4.521   3.654   2.737  0.3492 -0.0008 -0.4693
 6643SOL    HW120499   4.439   3.672   2.690 -0.2665 -1.0865  0.1501
 6643SOL    HW220500   4.493   3.622   2.822  1.3961 -1.5982 -0.6874
 6644SOL     OW20501   2.477   3.920   4.755 -0.1203  0.5618 -0.0799
 6644SOL    HW120502   2.489   3.964   4.839  1.6373 -0.0446  0.0198
 6644SOL    HW220503   2.462   3.828   4.779 -0.5335  0.5385 -0.4127
 6645SOL     OW20504   1.515   3.994   2.719 -0.7317  0.3024 -0.1091
 6645SOL    HW120505   1.524   3.990   2.623  1.4344 -0.8407  0.1012
 6645SOL    HW220506   1.484   3.907   2.744 -1.4390  0.6455  0.2476
 6646SOL     OW20507   7.425   2.260   6.302  0.4294  0.2390 -0.7776
 6646SOL    HW120508   7.487   2.312   6.354  0.7256  0.9246 -1.7926
 6646SOL    HW220509   7.418   2.177   6.350  1.0384  0.6788  0.1117
 6647SOL     OW20510   6.563   2.252   1.430 -0.1998  0.8936  0.3259
 6647SOL    HW120511   6.538   2.184   1.493 -0.5837  1.2011  0.5073
 6647SOL    HW220512   6.502   2.324   1.447 -1.9936  0.0611 -2.0729
 6648SOL     OW20513   2.201   5.994   4.252 -0.0018 -0.5436  0.3126
 6648SOL    HW120514   2.110   5.997   4.222  0.2437  0.1710 -0.4082
 6648SOL    HW220515   2.252   6.004   4.172  0.7292 -1.7668  0.6160
 6649SOL     OW20516   0.469   7.049   0.263  0.2373 -0.3573 -0.2164
 6649SOL    HW120517   0.444   6.959   0.241  0.1273 -0.6193  0.9110
 6649SOL    HW220518   0.389   7.101   0.248 -0.7540 -1.0103  2.3170
 6650SOL     OW20519   4.156   1.880   3.956 -0.4975  0.4538  0.6412
 6650SOL    HW120520   4.173   1.964   3.914  1.2658 -1.1423 -2.1164
 6650SOL    HW220521   4.243   1.843   3.972 -1.2221 -1.5737  0.1722
 6651SOL     OW20522   2.243   3.782   4.968  0.1803 -0.4302 -0.0500
 6651SOL    HW120523   2.332   3.758   4.992  0.6072  0.8289 -0.3033
 6651SOL    HW220524   2.215   3.843   5.036 -0.6428 -1.1052  0.2377
 6652SOL     OW20525   1.871   1.457   0.941 -0.0107 -0.5115  0.2322
 6652SOL    HW120526   1.931   1.383   0.931 -0.6747 -1.3534  2.0065
 6652SOL    HW220527   1.888   1.491   1.029 -0.6472  0.5930 -0.0516
 6653SOL     OW20528   6.059   2.353   4.549 -0.2276  0.1350  0.1384
 6653SOL    HW120529   6.027   2.285   4.490 -0.5731  0.2376  0.2042
 6653SOL    HW220530   6.144   2.377   4.514 -0.8171  0.8442 -0.8557
 6654SOL     OW20531   1.230   7.209   7.353  0.3676 -0.2068 -0.7096
 6654SOL    HW120532   1.315   7.172   7.330  0.0547 -0.0176 -2.3331
 6654SOL    HW220533   1.170   7.177   7.285 -0.6743  0.3417 -0.0854
 6655SOL     OW20534   7.132   4.445   0.694 -0.0021 -0.9408 -0.4003
 6655SOL    HW120535   7.065   4.407   0.637 -1.5933 -0.0296  0.7787
 6655SOL    HW220536   7.092   4.525   0.729  2.3079  0.4904 -0.8510
 6656SOL     OW20537   3.595   0.146   6.206  0.2531 -0.1985  0.0128
 6656SOL    HW120538   3.684   0.181   6.207  0.0994  0.2068 -0.0570
 6656SOL    HW220539   3.539   0.224   6.199 -0.1065 -0.4459  0.0951
 6657SOL     OW20540   2.799   0.940   1.257  0.3546 -0.2701 -0.0189
 6657SOL    HW120541   2.829   0.997   1.186 -2.0240  1.1931  0.0381
 6657SOL    HW220542   2.865   0.948   1.325  0.1486  2.4352 -0.0431
 6658SOL     OW20543   6.934   3.281   6.156  0.3872  0.1669 -0.1512
 6658SOL    HW120544   6.916   3.200   6.204  0.0924  0.0553 -0.4445
 6658SOL    HW220545   6.927   3.350   6.222 -1.2115  0.1321 -0.2510
 6659SOL     OW20546   0.968   0.648   2.767  0.0078  0.0159  0.2996
 6659SOL    HW120547   0.932   0.632   2.680  1.9437  0.5793 -0.6581
 6659SOL    HW220548   0.901   0.701   2.811 -0.7715  0.1931 -1.0353
 6660SOL     OW20549   1.197   6.976   3.095 -0.3077  0.1702  0.6046
 6660SOL    HW120550   1.293   6.979   3.092 -0.2769  0.1410  1.2913
 6660SOL    HW220551   1.172   7.056   3.141 -0.4886 -0.7768  2.2398
 6661SOL     OW20552   4.113   4.864   3.836 -0.0220  0.4236 -0.5907
 6661SOL    HW120553   4.206   4.845   3.844 -0.2837 -0.7774 -0.2297
 6661SOL    HW220554   4.088   4.901   3.921  0.1017  0.6336 -0.6463
 6662SOL     OW20555   1.285   6.755   6.960 -0.6363  0.3285 -0.6244
 6662SOL    HW120556   1.252   6.797   6.881 -1.3774 -0.5226 -0.7838
 6662SOL    HW220557   1.373   6.791   6.972 -0.5569  0.5485 -1.7650
 6663SOL     OW20558   2.984   3.165   2.479 -0.0876 -0.6491 -0.3054
 6663SOL    HW120559   3.043   3.131   2.412 -3.0220 -2.2676 -2.3130
 6663SOL    HW220560   2.949   3.087   2.522 -2.6316 -0.0118 -1.0218
 6664SOL     OW20561   6.572   5.948   3.434  0.5250 -0.0579 -0.1020
 6664SOL    HW120562   6.653   5.990   3.405  0.1079  0.4309 -0.5824
 6664SOL    HW220563   6.581   5.941   3.529  0.9716  0.3438 -0.1123
 6665SOL     OW20564   5.704   1.922   0.012  0.2705  0.2619  0.0650
 6665SOL    HW120565   5.683   2.005  -0.030  1.1563 -0.5831 -2.2243
 6665SOL    HW220566   5.633   1.863  -0.013  0.0856  0.0790  0.9649
 6666SOL     OW20567   0.549   5.906   3.481  0.2895 -0.5279  0.3098
 6666SOL    HW120568   0.505   5.917   3.397  1.3940 -0.3801 -0.2680
 6666SOL    HW220569   0.594   5.822   3.475 -1.1276 -1.4118  1.4762
 6667SOL     OW20570   3.222   3.000   1.540  0.3194 -0.3945 -0.2061
 6667SOL    HW120571   3.142   3.050   1.521  1.0774  0.6056 -0.8933
 6667SOL    HW220572   3.197   2.942   1.612 -0.6293  0.9560  0.6171
 6668SOL     OW20573   1.129   2.112   6.048  0.1069  0.3759  0.3740
 6668SOL    HW120574   1.076   2.192   6.050  0.5469  0.6581  1.1767
 6668SOL    HW220575   1.162   2.103   6.137 -0.5443 -1.1186  0.4928
 6669SOL     OW20576   0.946   3.835   0.764 -0.6633  0.2431  0.2025
 6669SOL    HW120577   0.984   3.921   0.775  1.1421 -0.5110  0.1954
 6669SOL    HW220578   0.932   3.803   0.853 -2.2437  0.8792  0.2195
 6670SOL     OW20579   1.664   2.836   2.543 -0.2068 -0.1702 -0.6393
 6670SOL    HW120580   1.668   2.742   2.530  0.5798 -0.5732  1.8578
 6670SOL    HW220581   1.577   2.851   2.581  0.5290 -0.3347  1.2612
 6671SOL     OW20582   6.361   2.983   5.117 -0.2164  0.0800 -0.2508
 6671SOL    HW120583   6.440   3.007   5.165  0.6403  0.7042 -1.9164
 6671SOL    HW220584   6.390   2.968   5.028 -2.2233  2.2321 -1.3964
 6672SOL     OW20585   3.782   2.416   5.115  0.6093 -0.6061  0.5955
 6672SOL    HW120586   3.834   2.488   5.079  0.7438 -0.8534  0.2841
 6672SOL    HW220587   3.769   2.357   5.040 -1.5074  0.2207  0.2395
 6673SOL     OW20588   5.155   5.289   0.269 -0.0584 -0.0821 -0.1443
 6673SOL    HW120589   5.183   5.294   0.360  0.4418  0.5673 -0.3342
 6673SOL    HW220590   5.187   5.369   0.229 -1.3794  0.2562 -0.5929
 6674SOL     OW20591   7.265   1.890   3.443  0.3830 -0.2951  0.3270
 6674SOL    HW120592   7.237   1.962   3.386 -1.2804 -0.8518  0.4017
 6674SOL    HW220593   7.320   1.835   3.386 -0.4686 -0.3339 -0.4816
 6675SOL     OW20594   3.065   6.358   4.810 -0.2611 -0.0145 -0.3354
 6675SOL    HW120595   3.126   6.380   4.881 -0.0744 -0.3530 -0.3888
 6675SOL    HW220596   2.988   6.323   4.855 -0.3894  0.3500 -0.2707
 6676SOL     OW20597   6.182   1.954   0.522 -0.4510 -0.4390  0.7520
 6676SOL    HW120598   6.107   2.008   0.546 -0.7304 -0.6390  0.3380
 6676SOL    HW220599   6.154   1.908   0.443 -0.2756 -1.3020  1.1795
 6677SOL     OW20600   4.370   4.152   2.746  0.2828 -0.5624 -0.1257
 6677SOL    HW120601   4.389   4.059   2.760 -2.2037 -0.8685  2.2109
 6677SOL    HW220602   4.376   4.191   2.833 -1.7197  0.7725 -0.5046
 6678SOL     OW20603   7.154   0.258   5.045  0.1461 -0.2838 -0.1492
 6678SOL    HW120604   7.151   0.258   5.140 -1.2493 -1.0200 -0.1729
 6678SOL    HW220605   7.072   0.298   5.018 -0.0752 -1.2783 -1.0380
 6679SOL     OW20606   6.482   0.593   5.330 -0.6188  0.1487  0.5141
 6679SOL    HW120607   6.438   0.601   5.415 -0.9527 -0.7988  0.4431
 6679SOL    HW220608   6.575   0.608   5.350 -0.7150  0.1028  1.0167
 6680SOL     OW20609   0.494   1.858   4.101  0.0296  0.1776 -0.2106
 6680SOL    HW120610   0.406   1.879   4.070  0.5913  1.0778 -1.2357
 6680SOL    HW220611   0.505   1.911   4.180 -1.0610 -1.4339  1.0931
 6681SOL     OW20612   0.572   3.525   6.581 -0.1481 -1.0471  0.1079
 6681SOL    HW120613   0.542   3.579   6.508  0.7607  0.1149  0.5623
 6681SOL    HW220614   0.536   3.567   6.659  2.1006  0.0689  0.6256
 6682SOL     OW20615   5.827   3.258   5.127 -0.3707  0.6829  0.1182
 6682SOL    HW120616   5.886   3.255   5.051  3.4655  0.7291  2.7928
 6682SOL    HW220617   5.798   3.349   5.131  0.8948  1.1283 -0.3057
 6683SOL     OW20618   1.182   0.232   6.215  0.4006 -0.2192  0.0247
 6683SOL    HW120619   1.274   0.231   6.241  1.2401  0.2952 -2.6319
 6683SOL    HW220620   1.163   0.325   6.202 -0.9081 -0.2041  1.6567
 6684SOL     OW20621   3.772   1.181   6.724 -0.0208 -0.8616  0.0458
 6684SOL    HW120622   3.832   1.233   6.776  1.1836 -1.1422 -1.0162
 6684SOL    HW220623   3.709   1.146   6.787  0.4776  0.0485  1.0688
 6685SOL     OW20624   7.086   4.736   2.465  0.1959  0.0596  0.3561
 6685SOL    HW120625   7.001   4.762   2.501 -1.0991 -0.5444 -2.0248
 6685SOL    HW220626   7.118   4.814   2.420 -0.4745 -0.4653 -1.0919
 6686SOL     OW20627   3.807   1.087   3.768 -0.0641 -0.2041  0.5779
 6686SOL    HW120628   3.822   1.171   3.724 -1.4529 -0.0040  0.4162
 6686SOL    HW220629   3.736   1.047   3.718  0.2227 -1.2451  0.9767
 6687SOL     OW20630   5.459   7.059   3.289 -0.7384 -0.6876  0.0021
 6687SOL    HW120631   5.373   7.074   3.251 -0.7186  2.6112  0.9841
 6687SOL    HW220632   5.521   7.087   3.222 -0.5801  0.3911  0.5701
 6688SOL     OW20633   7.398   2.114   0.190  0.6030  0.0548  0.8485
 6688SOL    HW120634   7.445   2.041   0.231  0.6446 -0.0319  0.6521
 6688SOL    HW220635   7.462   2.150   0.128  0.2400 -0.3944  0.1975
 6689SOL     OW20636   4.446   2.122   7.076 -0.0380  0.0024 -0.2010
 6689SOL    HW120637   4.483   2.138   7.163  0.8496  0.3991 -0.6475
 6689SOL    HW220638   4.483   2.037   7.050  0.7598  0.5050 -0.7419
 6690SOL     OW20639   6.994   0.068   3.880 -0.2330  0.3846 -0.0713
 6690SOL    HW120640   7.025   0.005   3.815  0.2725  1.5049 -0.9629
 6690SOL    HW220641   6.934   0.124   3.831  0.5496  1.5692  0.2825
 6691SOL     OW20642   4.018   3.191   5.513  0.2753  0.1745  0.0577
 6691SOL    HW120643   4.098   3.233   5.484 -0.4347  1.9837  0.5459
 6691SOL    HW220644   4.007   3.221   5.604 -0.9077 -0.0778  0.0132
 6692SOL     OW20645   0.082   0.036   4.684 -0.1534 -0.3546  0.9094
 6692SOL    HW120646   0.169   0.069   4.705 -0.1443  0.2915 -0.1323
 6692SOL    HW220647   0.093  -0.010   4.601 -0.9282  0.2508  0.4673
 6693SOL     OW20648   0.543   4.459   7.397 -0.2776 -0.6530 -0.5698
 6693SOL    HW120649   0.481   4.392   7.428 -1.5690  1.8581  3.0048
 6693SOL    HW220650   0.606   4.468   7.468  0.5129  1.0974 -1.4267
 6694SOL     OW20651   5.140   6.634   7.116  0.4858 -0.6219  0.2365
 6694SOL    HW120652   5.092   6.564   7.161 -0.5917 -1.4655 -2.0940
 6694SOL    HW220653   5.203   6.588   7.061  1.1661  0.3350  0.2014
 6695SOL     OW20654   3.641   3.518   1.966  0.0220  0.2900  0.4908
 6695SOL    HW120655   3.648   3.455   1.894  1.1127 -0.2809  1.0714
 6695SOL    HW220656   3.590   3.473   2.033  0.7003  0.0610  0.8590
 6696SOL     OW20657   4.535   2.784   3.815  0.4720 -0.4692  0.4817
 6696SOL    HW120658   4.492   2.718   3.761  1.2239 -0.3373 -0.3074
 6696SOL    HW220659   4.607   2.816   3.761  0.5644  0.4783  1.1343
 6697SOL     OW20660   6.472   3.300   6.196  0.2029  0.0574  0.0962
 6697SOL    HW120661   6.517   3.301   6.112  2.8517  1.5214  1.4011
 6697SOL    HW220662   6.381   3.321   6.176  0.5101 -0.7887 -2.4679
 6698SOL     OW20663   6.960   7.152   0.384  0.0505  0.1453  0.5284
 6698SOL    HW120664   6.898   7.089   0.419 -1.5084  0.3087 -1.7160
 6698SOL    HW220665   6.906   7.227   0.358  1.2901  0.6953 -0.6003
 6699SOL     OW20666   4.065   4.424   2.581  0.6790  0.2448  0.3864
 6699SOL    HW120667   4.142   4.387   2.624  2.0244  0.3517 -1.7928
 6699SOL    HW220668   4.026   4.350   2.534  1.2056  0.7898 -0.9434
 6700SOL     OW20669   3.903   7.034   5.432 -0.3701 -0.2870  0.2365
 6700SOL    HW120670   3.930   7.043   5.341 -2.6826 -1.4396 -0.6552
 6700SOL    HW220671   3.951   6.958   5.464  1.2519  0.7497  0.3572
 6701SOL     OW20672   1.657   3.284   4.386 -0.1698 -0.0114 -0.0119
 6701SOL    HW120673   1.604   3.362   4.371 -0.7402 -0.5118 -0.6660
 6701SOL    HW220674   1.719   3.310   4.454 -1.3596  0.5376  0.9007
 6702SOL     OW20675   1.959   3.513   5.734  0.0771 -0.1359  0.0875
 6702SOL    HW120676   1.865   3.522   5.751 -0.2769 -1.8881 -0.7309
 6702SOL    HW220677   2.000   3.577   5.792 -1.6908  1.8432 -0.7198
 6703SOL     OW20678   4.995   5.832   4.914 -0.3108  0.3296 -0.8145
 6703SOL    HW120679   4.949   5.916   4.911 -2.1834 -0.6309 -0.4559
 6703SOL    HW220680   4.930   5.770   4.945  1.2552 -1.1368 -0.2991
 6704SOL     OW20681   5.924   6.823   6.066  0.0460 -0.7013 -0.1957
 6704SOL    HW120682   5.924   6.890   5.998  0.5000  1.4267  1.7719
 6704SOL    HW220683   5.832   6.800   6.078 -0.1978  0.1179 -0.4306
 6705SOL     OW20684   5.203   7.050   2.416  0.4728 -0.8663  0.8091
 6705SOL    HW120685   5.209   6.963   2.455  1.9406 -0.2654  2.0216
 6705SOL    HW220686   5.207   7.110   2.490 -3.0247  0.2669  0.2398
 6706SOL     OW20687   2.990   6.481   1.627 -0.0673 -0.3367 -0.3479
 6706SOL    HW120688   2.896   6.468   1.636  0.1102 -1.5615 -0.1644
 6706SOL    HW220689   2.998   6.564   1.580 -1.2098  0.1844  0.3455
 6707SOL     OW20690   5.286   0.280   7.148 -0.2793 -0.1466  0.0527
 6707SOL    HW120691   5.375   0.313   7.135 -0.6883  1.2422  0.5863
 6707SOL    HW220692   5.299   0.195   7.190  0.8124 -0.6473 -1.2159
 6708SOL     OW20693   0.464   0.413   4.440 -0.5103 -0.1685  0.1143
 6708SOL    HW120694   0.439   0.504   4.457 -0.1910  0.2044 -1.2547
 6708SOL    HW220695   0.541   0.398   4.494 -0.1797  0.5912 -0.1411
 6709SOL     OW20696   4.920   6.566   6.498  0.6956 -0.2431  0.2665
 6709SOL    HW120697   4.985   6.635   6.514  1.3243 -0.4158 -1.3213
 6709SOL    HW220698   4.837   6.604   6.528  1.2036  0.8066  0.3943
 6710SOL     OW20699   6.412   1.983   0.875  0.4375 -0.1709 -0.3086
 6710SOL    HW120700   6.323   1.959   0.848  0.2611  0.9091 -0.7267
 6710SOL    HW220701   6.459   1.997   0.793  0.6198  0.5707 -0.0865
 6711SOL     OW20702   3.410   2.059   6.715 -0.2732 -0.2123 -0.3106
 6711SOL    HW120703   3.431   2.047   6.807  0.8856  2.1595 -0.1743
 6711SOL    HW220704   3.474   2.006   6.668  0.4523  0.1668  0.2395
 6712SOL     OW20705   1.259   4.500   3.258 -0.2157 -0.4326 -0.1834
 6712SOL    HW120706   1.250   4.411   3.222  0.1315 -0.9402  0.9618
 6712SOL    HW220707   1.328   4.540   3.204 -0.4367 -0.8100 -0.7636
 6713SOL     OW20708   2.648   0.843   4.153  0.4077 -0.2232  0.3105
 6713SOL    HW120709   2.566   0.795   4.136 -0.3392  0.7111  1.1365
 6713SOL    HW220710   2.688   0.798   4.227  2.1903 -2.4990 -1.8710
 6714SOL     OW20711   6.845   0.163   1.814  0.5387  0.1427  0.1799
 6714SOL    HW120712   6.824   0.148   1.906 -0.1899 -0.2803 -0.0431
 6714SOL    HW220713   6.864   0.075   1.780 -0.2360  0.1551 -0.3121
 6715SOL     OW20714   6.152   7.260   5.357  0.2013 -0.3046 -0.1453
 6715SOL    HW120715   6.067   7.286   5.394  1.5225 -0.2363  3.1183
 6715SOL    HW220716   6.175   7.180   5.404  0.6799 -2.1104 -3.1525
 6716SOL     OW20717   6.213   4.990   1.144  0.6199 -0.7040  0.2440
 6716SOL    HW120718   6.174   4.912   1.184 -4.2273  1.4091  0.3932
 6716SOL    HW220719   6.227   4.965   1.052  0.5692 -2.1734  0.6173
 6717SOL     OW20720   0.124   6.002   0.176  0.0085 -0.1759  0.0086
 6717SOL    HW120721   0.156   6.014   0.265  2.1518  0.5753 -0.7986
 6717SOL    HW220722   0.143   6.085   0.132 -0.3773 -0.7687 -1.3377
 6718SOL     OW20723   6.183   7.289   4.154  0.1552  0.2927 -0.0779
 6718SOL    HW120724   6.170   7.214   4.096  0.2092  1.2063 -1.3151
 6718SOL    HW220725   6.096   7.326   4.166 -0.3393 -1.4741  2.7553
 6719SOL     OW20726   4.390   2.875   1.800  0.6096  0.1576  0.3547
 6719SOL    HW120727   4.389   2.779   1.794 -0.8524  0.1307  0.7607
 6719SOL    HW220728   4.441   2.893   1.879  1.9940 -0.2218 -0.4226
 6720SOL     OW20729   4.290   4.266   1.344 -0.1212 -0.7230  0.0909
 6720SOL    HW120730   4.241   4.210   1.404 -1.1208 -0.7390 -0.7059
 6720SOL    HW220731   4.270   4.231   1.257  0.9484 -0.4319 -0.2883
 6721SOL     OW20732   5.076   6.425   1.519 -0.5434 -0.1451  0.4032
 6721SOL    HW120733   5.165   6.437   1.486 -0.3994 -1.3578  0.3080
 6721SOL    HW220734   5.028   6.388   1.445 -0.7960 -0.6915  0.8315
 6722SOL     OW20735   3.854   0.699   5.815  0.2285 -0.0310 -0.2602
 6722SOL    HW120736   3.876   0.606   5.821  0.6163  0.0238 -0.7524
 6722SOL    HW220737   3.923   0.743   5.865  0.2889  0.0226 -0.3907
 6723SOL     OW20738   7.081   4.858   7.341  0.0592 -0.0588  0.1256
 6723SOL    HW120739   7.157   4.848   7.284  0.1333 -0.2354  0.2571
 6723SOL    HW220740   7.109   4.825   7.426  0.7838  2.5762  0.9816
 6724SOL     OW20741   0.103   3.284   0.065  0.4979 -0.2619 -0.1890
 6724SOL    HW120742   0.044   3.344   0.111 -0.8051 -1.0069 -0.8702
 6724SOL    HW220743   0.189   3.325   0.074 -0.2499  1.3357 -0.0049
 6725SOL     OW20744   1.479   3.264   1.962 -0.2326  0.3000  0.0126
 6725SOL    HW120745   1.404   3.323   1.970  0.3863  1.2037 -0.5702
 6725SOL    HW220746   1.534   3.305   1.895 -1.3702 -2.6715 -3.0777
 6726SOL     OW20747   4.348   3.599   6.508  0.0118 -0.2896 -0.1723
 6726SOL    HW120748   4.341   3.687   6.546 -1.6404  0.0416 -1.1608
 6726SOL    HW220749   4.328   3.611   6.415 -1.5869 -1.9096 -0.0825
 6727SOL     OW20750   6.943   6.652   4.765  0.0410 -0.1302 -0.3139
 6727SOL    HW120751   6.964   6.721   4.703 -1.6245 -0.0112 -0.8087
 6727SOL    HW220752   6.869   6.687   4.816  0.8143 -0.5653  1.1741
 6728SOL     OW20753   0.002   1.127   3.303 -0.0654  0.0469  0.7240
 6728SOL    HW120754   0.030   1.130   3.395  0.7127 -0.0809  0.4947
 6728SOL    HW220755  -0.089   1.098   3.307 -0.4067  1.1209  1.5289
 6729SOL     OW20756   0.623   0.324   0.066 -0.1756 -0.2755  0.3600
 6729SOL    HW120757   0.613   0.229   0.063 -0.2017 -0.3122  1.2546
 6729SOL    HW220758   0.685   0.339   0.138  1.5808  0.2659 -1.1987
 6730SOL     OW20759   6.899   1.295   7.393 -0.2730 -0.3563  0.5987
 6730SOL    HW120760   6.815   1.316   7.353  0.2123 -1.3982 -1.0410
 6730SOL    HW220761   6.958   1.365   7.363  0.6220 -2.2565 -2.4400
 6731SOL     OW20762   5.471   5.078   1.145  0.1064 -0.0407 -0.3358
 6731SOL    HW120763   5.380   5.103   1.135 -0.2191 -0.4222  1.3021
 6731SOL    HW220764   5.493   5.102   1.236  1.4487 -0.5028 -0.5042
 6732SOL     OW20765   0.156   0.441   4.965 -0.0351  0.6386 -0.5388
 6732SOL    HW120766   0.070   0.419   4.929 -0.2930  2.3591 -1.0279
 6732SOL    HW220767   0.216   0.433   4.891 -0.0069  0.8771 -0.5408
 6733SOL     OW20768   4.593   1.384   0.828  0.1892  0.3750  0.2206
 6733SOL    HW120769   4.629   1.465   0.792  2.7476  0.1653  2.0965
 6733SOL    HW220770   4.590   1.324   0.754 -0.8964  1.8481 -0.9973
 6734SOL     OW20771   5.035   4.953   2.788  0.5459 -0.5993  0.1065
 6734SOL    HW120772   5.032   4.870   2.741 -0.9896 -0.1795 -0.5786
 6734SOL    HW220773   4.956   4.954   2.842 -0.4992  1.2093 -1.3289
 6735SOL     OW20774   1.054   3.260   5.439 -0.5835 -0.2562  0.1712
 6735SOL    HW120775   1.122   3.194   5.452  1.3701  1.3894 -1.0184
 6735SOL    HW220776   0.982   3.212   5.397  1.3876 -1.4138 -2.2086
 6736SOL     OW20777   6.168   5.936   3.015 -0.0620  0.0113 -0.1389
 6736SOL    HW120778   6.120   6.019   3.010  0.9055  0.6418  0.5570
 6736SOL    HW220779   6.174   5.918   3.109 -0.9029 -1.2507 -0.3019
 6737SOL     OW20780   5.426   2.864   3.891 -0.6282  0.4267 -0.6855
 6737SOL    HW120781   5.500   2.838   3.835 -0.7026 -1.1605 -0.1050
 6737SOL    HW220782   5.437   2.811   3.970 -2.6854 -0.2389 -0.7996
 6738SOL     OW20783   3.222   1.528   2.761 -0.0397  0.0676 -0.0204
 6738SOL    HW120784   3.239   1.579   2.682  1.1777  0.2168  0.3257
 6738SOL    HW220785   3.184   1.446   2.728  0.0132  0.3184 -0.7244
 6739SOL     OW20786   0.871   0.937   0.248 -0.0332 -0.5540  0.0645
 6739SOL    HW120787   0.782   0.901   0.237 -0.8380  0.9993  1.1805
 6739SOL    HW220788   0.912   0.880   0.313  0.0374 -1.6522 -0.9013
 6740SOL     OW20789   0.097   6.162   4.105  0.1000  0.3401  0.1765
 6740SOL    HW120790   0.055   6.098   4.161  0.6517  0.8723  1.2277
 6740SOL    HW220791   0.025   6.216   4.071 -0.1831  0.5383  1.0544
 6741SOL     OW20792   2.590   4.969   6.676  0.5783  0.3560 -0.5470
 6741SOL    HW120793   2.601   4.876   6.696  2.5261  0.3706 -1.3470
 6741SOL    HW220794   2.543   5.004   6.752  3.0916 -0.5635  1.6062
 6742SOL     OW20795   4.815   5.366   4.628 -0.4233 -0.0516  0.3555
 6742SOL    HW120796   4.884   5.320   4.676 -0.7804  0.3043  1.2291
 6742SOL    HW220797   4.862   5.431   4.575  0.2017 -2.1757 -1.8669
 6743SOL     OW20798   5.824   5.988   6.732  0.1261 -0.0491 -0.1201
 6743SOL    HW120799   5.817   5.899   6.768 -1.3276 -0.1863 -0.6980
 6743SOL    HW220800   5.793   6.045   6.802  3.9065  0.3756  1.4541
 6744SOL     OW20801   7.154   2.265   4.627  0.8655  0.2066 -0.0663
 6744SOL    HW120802   7.189   2.353   4.645  1.2146  0.2269 -0.8098
 6744SOL    HW220803   7.084   2.254   4.691  0.8972  0.9808  0.1191
 6745SOL     OW20804   0.292   5.931   2.149 -0.3611  0.0787  0.0024
 6745SOL    HW120805   0.348   5.977   2.087 -0.2523  1.4220  1.0494
 6745SOL    HW220806   0.214   5.908   2.099  0.3188 -0.1415 -0.9848
 6746SOL     OW20807   0.030   7.011   0.088  0.0990 -0.3059 -0.0416
 6746SOL    HW120808   0.056   6.944   0.151  0.0200 -0.1678  0.1395
 6746SOL    HW220809  -0.032   6.967   0.030 -1.5548  0.1293  1.3067
 6747SOL     OW20810   1.912   2.045   6.763 -0.0423  0.0717 -0.0741
 6747SOL    HW120811   1.909   2.116   6.698  0.3956  1.4626  1.3686
 6747SOL    HW220812   1.936   2.088   6.844  0.0226 -1.7325  0.9059
 6748SOL     OW20813   4.686   1.002   6.447 -0.6958 -0.1037  0.1069
 6748SOL    HW120814   4.621   1.000   6.518 -0.5256 -0.8493  0.2574
 6748SOL    HW220815   4.635   1.024   6.369 -1.1182 -0.5638  0.2445
 6749SOL     OW20816   3.276   6.723   6.019 -0.0449  0.0105  0.5537
 6749SOL    HW120817   3.188   6.756   6.034  0.6347  1.7811  0.8694
 6749SOL    HW220818   3.266   6.628   6.018 -1.9996  0.1754  0.2385
 6750SOL     OW20819   6.407   1.083   1.493 -0.4566  0.1918  0.2225
 6750SOL    HW120820   6.389   1.122   1.408  0.0533  0.5255  0.2640
 6750SOL    HW220821   6.322   1.081   1.538 -0.5900  0.6917 -0.0125
 6751SOL     OW20822   4.462   4.003   7.290 -0.7908  0.3508 -0.3379
 6751SOL    HW120823   4.458   4.027   7.198 -1.8890 -0.2730 -0.4687
 6751SOL    HW220824   4.375   3.968   7.310 -0.3689 -0.1205  0.7674
 6752SOL     OW20825   3.066   2.756   3.347  0.2897 -0.1246  0.5586
 6752SOL    HW120826   2.974   2.746   3.372 -0.0108  0.1496 -0.3635
 6752SOL    HW220827   3.112   2.688   3.396 -0.7142 -1.6700 -0.5086
 6753SOL     OW20828   0.867   1.658   1.466  0.0848 -0.2809  0.1294
 6753SOL    HW120829   0.813   1.721   1.418 -0.8206 -0.7117  0.5493
 6753SOL    HW220830   0.838   1.666   1.557  0.7667 -0.4886  0.3690
 6754SOL     OW20831   6.359   3.974   4.361  0.2356 -0.1088 -0.1237
 6754SOL    HW120832   6.269   3.942   4.367  0.3241 -0.6194 -1.3061
 6754SOL    HW220833   6.394   3.964   4.450 -0.5691 -0.8374  0.1236
 6755SOL     OW20834   4.603   0.345   6.587 -0.1707  0.4376 -0.0560
 6755SOL    HW120835   4.623   0.265   6.539  0.3705  1.3080 -1.3605
 6755SOL    HW220836   4.528   0.323   6.643 -0.6740 -0.6933 -1.1467
 6756SOL     OW20837   5.391   4.667   0.901  0.4891 -0.0640 -0.4116
 6756SOL    HW120838   5.426   4.715   0.976 -0.9463 -1.4855  1.2462
 6756SOL    HW220839   5.323   4.724   0.865 -0.4419 -0.3426  0.8532
 6757SOL     OW20840   6.152   4.064   2.576  0.1538 -0.3106 -0.5511
 6757SOL    HW120841   6.096   4.031   2.646  1.0898  0.3473  0.5432
 6757SOL    HW220842   6.197   3.987   2.543  0.7792 -0.4477  0.5767
 6758SOL     OW20843   4.536   2.466   4.437 -0.2560 -0.2264 -0.0449
 6758SOL    HW120844   4.592   2.543   4.428  1.1682 -1.0766  1.1037
 6758SOL    HW220845   4.554   2.433   4.525  0.6990 -2.9899 -1.1652
 6759SOL     OW20846   0.929   0.570   3.189  0.2377 -0.3918 -0.0223
 6759SOL    HW120847   0.990   0.504   3.220  1.3260  0.0076 -1.2266
 6759SOL    HW220848   0.984   0.644   3.164 -0.8417  0.4318 -0.0356
 6760SOL     OW20849   2.764   6.306   1.350  0.3400 -0.1377 -0.8257
 6760SOL    HW120850   2.732   6.292   1.439  0.1572  1.8847 -0.5202
 6760SOL    HW220851   2.747   6.223   1.304  0.4936 -1.2350  1.0139
 6761SOL     OW20852   6.049   3.217   3.922  0.0564 -0.5504 -0.3117
 6761SOL    HW120853   5.964   3.261   3.925  0.4358  0.1347  0.7808
 6761SOL    HW220854   6.029   3.125   3.939 -0.5332 -0.5154 -0.7671
 6762SOL     OW20855   5.432   2.035   0.483 -0.8082 -0.2128 -0.0757
 6762SOL    HW120856   5.408   2.008   0.394  3.6763 -0.5574 -1.4334
 6762SOL    HW220857   5.461   2.126   0.474  2.6316 -1.1519  0.1924
 6763SOL     OW20858   5.703   6.654   6.905 -0.3364 -0.0337  0.2202
 6763SOL    HW120859   5.610   6.672   6.897 -0.1199  0.1424 -2.7544
 6763SOL    HW220860   5.740   6.736   6.939 -1.3331 -0.5612  2.8356
 6764SOL     OW20861   2.079   4.372   6.258  0.5968  0.0676  0.4166
 6764SOL    HW120862   2.011   4.323   6.305 -0.9559  0.7645 -0.9804
 6764SOL    HW220863   2.105   4.314   6.187 -0.7251  0.8882 -0.8065
 6765SOL     OW20864   5.365   7.392   4.416 -0.0496 -0.2717  0.1540
 6765SOL    HW120865   5.368   7.328   4.345  2.4774 -1.5108  1.2125
 6765SOL    HW220866   5.365   7.338   4.496 -1.0197  1.0772  1.1062
 6766SOL     OW20867   7.425   3.634   3.331  0.0840  0.1429 -0.6139
 6766SOL    HW120868   7.383   3.693   3.395  0.6724  0.3694 -0.4325
 6766SOL    HW220869   7.482   3.579   3.384  2.1639  1.6832 -1.1165
 6767SOL     OW20870   7.014   1.540   0.638 -0.0880 -0.6328 -0.5825
 6767SOL    HW120871   7.022   1.468   0.575  0.7059  0.2462 -1.5309
 6767SOL    HW220872   7.098   1.541   0.684 -0.5318 -1.0402  0.2489
 6768SOL     OW20873   4.129   1.528   1.026  0.4564  0.3041 -0.3148
 6768SOL    HW120874   4.089   1.526   1.113  1.6305  1.6684  0.3042
 6768SOL    HW220875   4.185   1.451   1.023 -0.2775 -0.2342 -0.2108
 6769SOL     OW20876   6.222   5.999   0.312 -0.2536  0.0735 -0.1291
 6769SOL    HW120877   6.136   5.964   0.288  0.3551 -0.6749 -1.3723
 6769SOL    HW220878   6.280   5.970   0.241  1.2514 -0.3569  1.2117
 6770SOL     OW20879   6.600   5.804   1.430  0.5515 -0.1414  0.3741
 6770SOL    HW120880   6.578   5.742   1.500  0.5081 -0.8524 -0.2533
 6770SOL    HW220881   6.564   5.887   1.459 -0.9349 -0.7804  0.4507
 6771SOL     OW20882   7.304   3.961   3.370 -0.0151  0.2658  0.2132
 6771SOL    HW120883   7.278   3.895   3.434 -0.6363  0.9154  0.6486
 6771SOL    HW220884   7.386   3.929   3.334  0.2997 -0.1563  1.2727
 6772SOL     OW20885   6.400   4.178   4.996  0.7196  0.0505 -0.3641
 6772SOL    HW120886   6.382   4.256   5.049  0.0644 -0.7550  0.6681
 6772SOL    HW220887   6.495   4.175   4.989  0.7869  0.5443  0.2199
 6773SOL     OW20888   5.247   2.190   2.109 -0.2164  0.1403 -0.1151
 6773SOL    HW120889   5.186   2.214   2.039  0.2626  1.9256  0.0348
 6773SOL    HW220890   5.201   2.121   2.158 -2.8145  2.3849  0.8664
 6774SOL     OW20891   0.417   4.654   1.119 -0.4433 -0.3272  0.3605
 6774SOL    HW120892   0.431   4.563   1.145 -0.0396 -0.4353 -0.2361
 6774SOL    HW220893   0.409   4.702   1.202  1.2486 -0.6023  0.7017
 6775SOL     OW20894   2.911   3.643   4.368 -0.1789  0.3344 -0.4222
 6775SOL    HW120895   2.993   3.680   4.400  0.5732 -0.6774 -1.1118
 6775SOL    HW220896   2.850   3.717   4.366  0.6791  1.0738  0.2091
 6776SOL     OW20897   5.407   1.657   4.877 -0.2648  0.3379  0.0817
 6776SOL    HW120898   5.426   1.698   4.793 -0.3967  1.3761  0.5496
 6776SOL    HW220899   5.331   1.601   4.859  0.6189 -0.6313 -0.8226
 6777SOL     OW20900   1.849   6.270   4.183  0.0410 -0.5426 -0.0798
 6777SOL    HW120901   1.828   6.262   4.090  1.9468 -1.3492 -0.4969
 6777SOL    HW220902   1.876   6.182   4.209  1.9643  0.1847  0.5544
 6778SOL     OW20903   5.567   1.012   0.364 -0.1919 -0.3336 -0.2733
 6778SOL    HW120904   5.621   1.020   0.285 -2.5001 -1.6056 -2.1099
 6778SOL    HW220905   5.602   1.079   0.424  2.8949 -0.6179 -1.5617
 6779SOL     OW20906   5.293   0.357   3.862  0.3057  0.0994  0.5453
 6779SOL    HW120907   5.349   0.347   3.939  0.8304 -0.9012  0.0452
 6779SOL    HW220908   5.211   0.313   3.887 -0.2111  1.3495  1.1825
 6780SOL     OW20909   3.340   4.877   4.360 -0.0062  0.1495 -0.3774
 6780SOL    HW120910   3.404   4.938   4.398  0.1593 -0.4084  0.2563
 6780SOL    HW220911   3.372   4.790   4.384  0.2669 -0.2445 -2.0788
 6781SOL     OW20912   1.057   3.012   4.053  0.3406 -0.0518 -0.1600
 6781SOL    HW120913   1.040   3.044   3.964 -0.2430 -0.8189 -0.3491
 6781SOL    HW220914   1.072   3.090   4.105 -0.0449  0.4544 -0.7947
 6782SOL     OW20915   5.131   5.243   1.879 -0.2049  0.0574 -0.0570
 6782SOL    HW120916   5.183   5.165   1.899 -0.3792 -0.7396 -2.4269
 6782SOL    HW220917   5.066   5.248   1.950  1.2775 -0.5354  1.4234
 6783SOL     OW20918   3.121   3.709   5.418 -0.2090  0.6827 -0.3237
 6783SOL    HW120919   3.078   3.691   5.335 -2.4486 -0.8666  1.0799
 6783SOL    HW220920   3.100   3.801   5.437 -1.3846  0.4632 -0.5360
 6784SOL     OW20921   0.060   2.536   7.311 -0.4808 -0.1016  0.3988
 6784SOL    HW120922   0.029   2.490   7.389 -1.2782  1.0679  0.7966
 6784SOL    HW220923   0.040   2.628   7.328  2.4752  0.6801  0.3577
 6785SOL     OW20924   5.210   4.839   4.352  0.7717 -0.9479  0.3430
 6785SOL    HW120925   5.271   4.873   4.287  0.4893  2.7955  1.7879
 6785SOL    HW220926   5.265   4.795   4.417  1.4241 -1.4222 -0.5135
 6786SOL     OW20927   0.683   2.120   6.382  0.2059 -0.2791  0.3406
 6786SOL    HW120928   0.686   2.034   6.341  0.4807 -0.0701 -0.0960
 6786SOL    HW220929   0.629   2.173   6.322 -1.4793 -0.6058  1.5129
 6787SOL     OW20930   4.120   6.638   2.467 -0.5496 -0.2171  0.7938
 6787SOL    HW120931   4.047   6.683   2.425 -0.3651 -0.2795  0.4039
 6787SOL    HW220932   4.197   6.665   2.418 -0.4689 -1.1777  0.3691
 6788SOL     OW20933   5.756   6.076   5.296  0.0861 -0.0683 -0.1267
 6788SOL    HW120934   5.848   6.103   5.291 -0.0994  0.6290  0.0920
 6788SOL    HW220935   5.759   5.984   5.322  0.7125  0.1084  0.4529
 6789SOL     OW20936   7.024   3.818   6.021 -0.4337 -0.5882  0.3956
 6789SOL    HW120937   7.058   3.730   6.008  0.2289 -0.4401  1.0517
 6789SOL    HW220938   7.084   3.858   6.085 -0.9689  0.1896  0.4282
 6790SOL     OW20939   6.760   6.972   0.519 -0.0153 -0.1978  0.5597
 6790SOL    HW120940   6.720   6.898   0.473  1.5445 -0.5909 -0.2285
 6790SOL    HW220941   6.689   7.034   0.530 -1.6459 -2.1963  2.1536
 6791SOL     OW20942   2.852   6.502   1.913 -0.0694 -0.0680 -0.1157
 6791SOL    HW120943   2.897   6.571   1.864 -0.1183 -0.1712 -0.3081
 6791SOL    HW220944   2.771   6.487   1.863 -0.6665  0.6232  0.6148
 6792SOL     OW20945   4.031   1.276   2.019  0.7450 -0.1336 -0.4626
 6792SOL    HW120946   4.000   1.311   1.935 -1.0797  0.2102  0.3150
 6792SOL    HW220947   3.951   1.252   2.066  1.7756 -1.1675  0.8369
 6793SOL     OW20948   5.480   3.933   3.611 -0.0994 -0.1617 -0.4630
 6793SOL    HW120949   5.415   3.881   3.564 -1.4374  2.1040 -1.2696
 6793SOL    HW220950   5.555   3.938   3.552 -0.2016 -0.6295 -0.6381
 6794SOL     OW20951   1.538   4.419   2.939  0.3745 -0.1867  0.2352
 6794SOL    HW120952   1.632   4.407   2.950  0.8808  1.7801 -1.2761
 6794SOL    HW220953   1.513   4.478   3.010  0.1451 -1.1417  0.9645
 6795SOL     OW20954   2.567   3.420   5.523  0.0895 -0.0160  0.4026
 6795SOL    HW120955   2.660   3.408   5.506  0.3357  1.5857  0.5458
 6795SOL    HW220956   2.524   3.356   5.466  1.2187  0.0065 -0.4905
 6796SOL     OW20957   2.554   3.082   2.753  0.3402 -0.0196 -0.0498
 6796SOL    HW120958   2.517   3.065   2.840  1.4287 -0.9328  0.2608
 6796SOL    HW220959   2.490   3.138   2.710  0.0932  1.0515  1.6009
 6797SOL     OW20960   6.736   4.270   4.447  0.1161 -0.3910 -0.4569
 6797SOL    HW120961   6.735   4.331   4.373 -1.5469  0.7205  0.4223
 6797SOL    HW220962   6.688   4.193   4.415 -2.7533  1.0330  0.1364
 6798SOL     OW20963   7.274   4.160   4.406  0.2837 -0.4532 -0.4060
 6798SOL    HW120964   7.302   4.217   4.335 -1.9530  1.1680 -0.0996
 6798SOL    HW220965   7.319   4.193   4.484 -1.1047  1.0735 -0.2050
 6799SOL     OW20966   1.818   1.740   4.980  0.4189  0.3911 -0.4535
 6799SOL    HW120967   1.877   1.742   5.056 -1.7026  0.2640  1.2898
 6799SOL    HW220968   1.875   1.720   4.906  3.0341  3.0537  0.6469
 6800SOL     OW20969   2.382   6.959   3.180  0.1554 -0.2641 -0.0986
 6800SOL    HW120970   2.387   7.043   3.226  1.7527  0.3636 -1.3495
 6800SOL    HW220971   2.290   6.933   3.188 -0.2055  1.2226  0.9507
 6801SOL     OW20972   5.457   3.022   1.163  0.2873 -0.8235 -0.5270
 6801SOL    HW120973   5.441   2.933   1.194 -1.8066 -0.6481 -0.9927
 6801SOL    HW220974   5.404   3.031   1.084  2.1500  0.1608 -1.7712
 6802SOL     OW20975   5.475   0.539   4.482  0.1923 -1.1707 -0.1783
 6802SOL    HW120976   5.429   0.514   4.401  0.1703  2.9514 -1.6945
 6802SOL    HW220977   5.532   0.612   4.455 -1.4302  1.9180  3.7846
 6803SOL     OW20978   3.189   2.975   6.795 -0.2509  1.2865  0.6418
 6803SOL    HW120979   3.211   3.009   6.709  0.8859  1.2174  0.8887
 6803SOL    HW220980   3.122   2.909   6.779  2.6497 -1.6098 -0.6983
 6804SOL     OW20981   0.105   4.819   6.016 -0.9176  0.4412  0.1486
 6804SOL    HW120982   0.045   4.797   6.088  0.9162 -1.1491  1.3027
 6804SOL    HW220983   0.140   4.904   6.040 -3.3493  1.9068 -1.0693
 6805SOL     OW20984   4.634   2.476   4.137 -0.1122  0.1471  0.3470
 6805SOL    HW120985   4.673   2.422   4.068 -0.2439  0.4787  0.0153
 6805SOL    HW220986   4.542   2.449   4.140 -0.2440  0.5578 -0.0140
 6806SOL     OW20987   1.429   2.865   5.251 -0.0586 -0.0594  0.1566
 6806SOL    HW120988   1.483   2.916   5.191 -1.0923  1.1361  0.1857
 6806SOL    HW220989   1.414   2.925   5.325 -2.5255  0.1844 -0.4697
 6807SOL     OW20990   5.292   2.668   0.569  0.4628  0.3387 -0.3079
 6807SOL    HW120991   5.371   2.627   0.604  1.0130  2.2776  0.8468
 6807SOL    HW220992   5.226   2.654   0.637  0.1396 -0.1445 -0.7067
 6808SOL     OW20993   0.741   6.330   1.497  0.4480  0.1154 -0.2896
 6808SOL    HW120994   0.745   6.404   1.436 -2.4543  0.6455  0.0117
 6808SOL    HW220995   0.699   6.260   1.446 -2.3075  0.6628  1.0063
 6809SOL     OW20996   0.109   4.459   7.367 -0.0528 -0.4046  0.2569
 6809SOL    HW120997   0.173   4.429   7.302  0.1668 -0.1815  0.3687
 6809SOL    HW220998   0.141   4.424   7.450 -0.2174 -0.5104  0.2764
 6810SOL     OW20999   5.828   2.786   4.763 -0.0871 -0.1583 -0.3684
 6810SOL    HW121000   5.818   2.821   4.851 -3.7334 -2.0967  0.1741
 6810SOL    HW221001   5.811   2.861   4.705  0.3058  0.6765  0.5733
 6811SOL     OW21002   0.219   2.611   0.656  0.0083  0.1313 -0.1485
 6811SOL    HW121003   0.281   2.541   0.635  0.5361  0.3660  0.5945
 6811SOL    HW221004   0.199   2.598   0.748 -0.7116  0.3283 -0.2728
 6812SOL     OW21005   2.695   1.171   6.038  0.2335  0.5068  0.4810
 6812SOL    HW121006   2.748   1.156   6.116 -0.1845 -0.7122  0.5587
 6812SOL    HW221007   2.753   1.218   5.978  1.4347 -0.8196  0.5539
 6813SOL     OW21008   0.343   2.457   0.151 -0.6534  0.3028 -0.2372
 6813SOL    HW121009   0.422   2.415   0.116 -0.5354  0.0755  0.2924
 6813SOL    HW221010   0.337   2.539   0.103 -0.6016 -0.0893 -0.9237
 6814SOL     OW21011   0.361   5.062   6.451 -0.1048  0.6623 -0.0075
 6814SOL    HW121012   0.275   5.033   6.481  0.6962 -0.6951  1.1360
 6814SOL    HW221013   0.346   5.098   6.364 -1.8927  0.8864  0.3613
 6815SOL     OW21014   2.301   7.368   4.572  0.0484  0.4760 -0.0590
 6815SOL    HW121015   2.275   7.276   4.575  0.1790  0.3942 -1.0658
 6815SOL    HW221016   2.245   7.411   4.636  0.2691 -0.3660  0.7255
 6816SOL     OW21017   3.387   3.026   2.414 -0.0259  0.1652 -0.2177
 6816SOL    HW121018   3.365   3.020   2.507  1.9683 -1.1340  0.2195
 6816SOL    HW221019   3.302   3.024   2.370 -1.0187  0.8743  1.5512
 6817SOL     OW21020   4.392   6.612   6.472 -0.4035  0.6075  0.2316
 6817SOL    HW121021   4.396   6.569   6.387  0.9667 -0.6994  0.9077
 6817SOL    HW221022   4.378   6.540   6.534 -0.1984  1.3897  1.2055
 6818SOL     OW21023   0.230   5.998   0.431  0.2020  0.0210  0.9966
 6818SOL    HW121024   0.320   5.998   0.464  0.3177 -1.8904  0.7735
 6818SOL    HW221025   0.179   6.034   0.504  0.8781 -1.0363  2.0437
 6819SOL     OW21026   5.293   3.409   5.903 -0.2651 -0.3132  0.0581
 6819SOL    HW121027   5.218   3.408   5.844 -1.2762  0.2731  1.2978
 6819SOL    HW221028   5.319   3.317   5.909  0.3653 -0.3161 -1.8726
 6820SOL     OW21029   7.379   1.613   0.881  0.5115  0.7519 -0.1253
 6820SOL    HW121030   7.440   1.571   0.821 -0.1432  1.5789 -1.4186
 6820SOL    HW221031   7.303   1.554   0.883  0.9910  0.1404  0.8342
 6821SOL     OW21032   2.772   5.660   2.187 -0.1678  0.2852  0.1826
 6821SOL    HW121033   2.815   5.636   2.104 -0.9327  2.0584 -0.7827
 6821SOL    HW221034   2.841   5.700   2.239 -0.2645  1.8444 -0.8094
 6822SOL     OW21035   6.331   4.280   3.122 -0.1212 -0.3683  0.0151
 6822SOL    HW121036   6.416   4.238   3.114  1.3005  2.5772 -2.3818
 6822SOL    HW221037   6.310   4.273   3.215  2.6907 -1.2964  0.6791
 6823SOL     OW21038   1.672   4.989   4.920 -0.3125 -0.0864 -0.1119
 6823SOL    HW121039   1.758   5.029   4.910  0.7879 -2.3437 -0.3282
 6823SOL    HW221040   1.646   5.010   5.010  0.6128  0.3091  0.0701
 6824SOL     OW21041   2.280   6.109   7.261 -0.6093  0.8001  0.8556
 6824SOL    HW121042   2.187   6.083   7.259 -0.7210  1.2201 -0.6512
 6824SOL    HW221043   2.327   6.028   7.242 -0.6706  0.6381  1.3705
 6825SOL     OW21044   3.284   4.223   6.120 -0.1959  0.2960  0.1387
 6825SOL    HW121045   3.232   4.174   6.184 -0.4355  0.2713 -0.0714
 6825SOL    HW221046   3.374   4.195   6.134 -0.2501  0.2856  0.4596
 6826SOL     OW21047   0.152   1.484   4.963 -0.0131  0.2220 -0.2583
 6826SOL    HW121048   0.150   1.579   4.957  0.4516  0.2662  0.1864
 6826SOL    HW221049   0.123   1.453   4.877  0.2927  0.7656 -0.5583
 6827SOL     OW21050   5.005   6.673   6.136  0.2281 -0.5692 -0.9731
 6827SOL    HW121051   4.982   6.603   6.075  2.0882 -2.7991  0.6908
 6827SOL    HW221052   4.953   6.654   6.214  1.0157 -0.2990 -0.3756
 6828SOL     OW21053   6.260   2.223   2.081 -0.3506  0.5034  0.0087
 6828SOL    HW121054   6.285   2.156   2.145  1.4598  0.3572 -0.7785
 6828SOL    HW221055   6.320   2.209   2.007 -0.3985  2.5454 -0.4713
 6829SOL     OW21056   0.246   1.800   7.122 -0.8429 -0.4993  0.5078
 6829SOL    HW121057   0.161   1.758   7.104 -1.2557  0.5358 -0.0870
 6829SOL    HW221058   0.274   1.833   7.037  0.3368 -1.1047  0.6424
 6830SOL     OW21059   6.447   5.021   3.885  0.4006 -0.0273  0.2297
 6830SOL    HW121060   6.427   4.931   3.860  0.6764 -0.2348  0.7338
 6830SOL    HW221061   6.393   5.075   3.828 -1.2656 -0.5607  1.2359
 6831SOL     OW21062   4.411   5.162   0.407  0.1914  0.2463  0.2688
 6831SOL    HW121063   4.338   5.109   0.439 -0.3415  0.6148 -0.3183
 6831SOL    HW221064   4.478   5.098   0.381  0.4455 -0.0731  1.6289
 6832SOL     OW21065   3.060   4.966   0.109  0.2798 -0.2312 -0.2701
 6832SOL    HW121066   2.981   4.912   0.103 -0.9339  1.3087  0.7570
 6832SOL    HW221067   3.127   4.907   0.142 -0.4198 -1.5949 -1.1792
 6833SOL     OW21068   1.990   1.103   2.142 -0.5036  0.3896  0.4232
 6833SOL    HW121069   2.011   1.020   2.099 -1.6734  0.6499 -0.6846
 6833SOL    HW221070   2.020   1.171   2.082  0.2363  0.7859  1.2180
 6834SOL     OW21071   0.077   6.418   5.154  0.5016 -0.0391  0.4262
 6834SOL    HW121072   0.085   6.324   5.136 -0.7140  0.1333 -1.3353
 6834SOL    HW221073   0.167   6.450   5.155  1.0396 -1.4052  2.4670
 6835SOL     OW21074   3.096   7.128   6.730  0.5436 -0.2898  0.2838
 6835SOL    HW121075   3.156   7.060   6.701  1.0268  0.6389 -1.0021
 6835SOL    HW221076   3.009   7.092   6.714  0.7902 -0.0079 -1.9606
 6836SOL     OW21077   2.658   4.969   4.144 -0.0223  0.2969 -0.2644
 6836SOL    HW121078   2.571   4.933   4.163  0.1337  0.9146  1.7956
 6836SOL    HW221079   2.676   5.029   4.216  2.0707  0.2951 -0.7192
 6837SOL     OW21080   1.883   0.166   0.245  0.4203  0.2530  0.6891
 6837SOL    HW121081   1.845   0.079   0.243 -1.7465  1.1533  0.3515
 6837SOL    HW221082   1.864   0.200   0.332  1.8931  0.1658  1.0776
 6838SOL     OW21083   5.799   4.207   2.126  0.2443 -0.0282  0.2883
 6838SOL    HW121084   5.890   4.209   2.155 -0.4671  0.2812  2.7143
 6838SOL    HW221085   5.749   4.242   2.200 -1.9591 -1.2184 -0.5350
 6839SOL     OW21086   2.645   1.340   2.072 -0.1917  0.0910  0.3276
 6839SOL    HW121087   2.723   1.394   2.055 -0.1721 -0.3890 -1.2059
 6839SOL    HW221088   2.603   1.331   1.987 -0.5413 -1.7865  0.6600
 6840SOL     OW21089   1.419   2.370   4.924  0.4606 -0.1848 -0.3291
 6840SOL    HW121090   1.378   2.423   4.856  1.4406 -0.3014 -1.0214
 6840SOL    HW221091   1.504   2.344   4.888  0.8534 -0.5442  0.7912
 6841SOL     OW21092   7.129   5.765   6.032  0.4603  0.6039  0.1420
 6841SOL    HW121093   7.185   5.688   6.034  0.6353  0.6927 -0.7729
 6841SOL    HW221094   7.095   5.773   6.121 -1.4259 -1.9077 -0.2377
 6842SOL     OW21095   0.420   4.881   5.215 -0.2718 -0.5311  0.1840
 6842SOL    HW121096   0.491   4.879   5.280 -0.0818 -0.4115 -0.0201
 6842SOL    HW221097   0.464   4.897   5.132 -0.3677 -2.0081 -0.1728
 6843SOL     OW21098   1.034   7.268   2.460  0.2117  0.2298 -0.2595
 6843SOL    HW121099   1.124   7.280   2.489 -0.3423 -0.6472  1.9955
 6843SOL    HW221100   0.990   7.224   2.532 -2.3579  1.7494 -0.7320
 6844SOL     OW21101   3.670   6.784   7.260 -0.0041  0.4062 -0.2304
 6844SOL    HW121102   3.619   6.743   7.330  0.1370 -1.1770 -1.0175
 6844SOL    HW221103   3.756   6.801   7.300  1.5612 -4.2706 -0.9374
 6845SOL     OW21104   3.561   7.104   6.249  0.0327 -0.9807  0.3108
 6845SOL    HW121105   3.580   7.030   6.192  1.0380 -0.1694 -0.4522
 6845SOL    HW221106   3.636   7.107   6.309 -0.6998 -1.4324  1.2752
 6846SOL     OW21107   7.182   3.823   7.378  0.8892 -0.8303 -0.9736
 6846SOL    HW121108   7.194   3.879   7.301  0.3359  1.3350  0.4226
 6846SOL    HW221109   7.271   3.805   7.409  1.0724  1.1190 -0.2457
 6847SOL     OW21110   1.015   6.987   6.955 -0.0546 -0.3466  0.1309
 6847SOL    HW121111   1.046   6.942   6.877 -0.1214 -1.3839  0.6875
 6847SOL    HW221112   1.082   7.054   6.973 -0.4362  0.4398 -1.2516
 6848SOL     OW21113   0.668   3.148   1.562 -0.8338  0.0416  0.0722
 6848SOL    HW121114   0.618   3.105   1.493 -0.5991 -2.6190  1.3925
 6848SOL    HW221115   0.610   3.147   1.638  0.0407 -0.1374  0.7566
 6849SOL     OW21116   5.404   2.035   4.539  0.1792 -0.1546  0.5318
 6849SOL    HW121117   5.341   1.995   4.599 -0.8214  1.3874  0.5529
 6849SOL    HW221118   5.355   2.104   4.495  0.5292 -1.9571 -3.0155
 6850SOL     OW21119   6.071   6.673   6.559 -0.2576  0.4778  0.5477
 6850SOL    HW121120   6.075   6.690   6.465 -0.7131 -0.3752  0.3672
 6850SOL    HW221121   6.160   6.691   6.590 -0.3167  1.5709  0.1037
 6851SOL     OW21122   2.099   1.326   3.349  0.3287  0.9559 -0.6520
 6851SOL    HW121123   2.174   1.286   3.392 -0.7918 -1.2769 -0.6284
 6851SOL    HW221124   2.094   1.283   3.264 -1.5875  0.1603 -0.1886
 6852SOL     OW21125   4.156   1.523   2.730  0.0948 -0.1916  0.7450
 6852SOL    HW121126   4.082   1.466   2.752  0.9050 -0.9806  1.4790
 6852SOL    HW221127   4.124   1.611   2.750 -0.8944 -0.4498  0.3730
 6853SOL     OW21128   2.806   5.068   6.837 -0.2280 -0.2465 -0.5025
 6853SOL    HW121129   2.729   5.020   6.807 -1.6143  1.1541  0.6191
 6853SOL    HW221130   2.836   5.116   6.760 -0.0998 -1.2853 -1.1071
 6854SOL     OW21131   5.790   5.439   4.367  0.0082  0.0676 -0.1546
 6854SOL    HW121132   5.780   5.347   4.343 -2.3587 -0.3466  1.9373
 6854SOL    HW221133   5.800   5.485   4.284  0.0759 -1.9549 -1.3315
 6855SOL     OW21134   1.383   0.144   3.249 -0.2618 -0.5454 -0.4163
 6855SOL    HW121135   1.295   0.132   3.286 -0.3616  1.5908  0.1653
 6855SOL    HW221136   1.426   0.059   3.262 -1.8418 -1.2782  0.3587
 6856SOL     OW21137   6.238   3.490   1.571  0.0490 -0.3334  0.0151
 6856SOL    HW121138   6.203   3.572   1.605 -1.5253 -1.0765  0.2570
 6856SOL    HW221139   6.201   3.482   1.483  0.6196 -0.5411 -0.2153
 6857SOL     OW21140   4.816   5.236   5.947  0.6676  0.0017  0.7755
 6857SOL    HW121141   4.828   5.193   6.031 -0.0405 -1.4401  0.1692
 6857SOL    HW221142   4.872   5.186   5.886 -1.0386 -0.8405 -0.1636
 6858SOL     OW21143   7.287   0.759   5.964  0.4236  0.6944  0.0746
 6858SOL    HW121144   7.267   0.669   5.986  2.3525 -0.4469 -2.3681
 6858SOL    HW221145   7.203   0.796   5.934 -0.3219 -0.3456  0.8442
 6859SOL     OW21146   0.122   2.306   0.540  0.1833 -0.0819 -0.3429
 6859SOL    HW121147   0.036   2.265   0.526 -0.8408  1.8975 -0.1612
 6859SOL    HW221148   0.132   2.308   0.635  0.3990 -0.2298 -0.3618
 6860SOL     OW21149   2.388   0.236   5.145  0.2476  0.1252  0.3783
 6860SOL    HW121150   2.333   0.212   5.071  2.1209 -0.4951 -0.8656
 6860SOL    HW221151   2.396   0.331   5.140  0.3435  0.0857 -0.1887
 6861SOL     OW21152   4.594   4.970   1.952  0.0195 -0.1319 -0.4906
 6861SOL    HW121153   4.664   4.960   1.887 -0.2213  1.8720 -1.1216
 6861SOL    HW221154   4.526   5.018   1.905 -0.5290  0.5893  1.0143
 6862SOL     OW21155   0.148   1.348   1.311 -0.0445 -0.0990  0.3763
 6862SOL    HW121156   0.242   1.333   1.300 -0.0624  0.1044 -0.0711
 6862SOL    HW221157   0.127   1.419   1.250 -0.6676 -0.7688 -0.2172
 6863SOL     OW21158   3.822   1.803   2.732  0.3558  0.0358 -0.0764
 6863SOL    HW121159   3.803   1.722   2.687  1.5628  0.3697 -1.2381
 6863SOL    HW221160   3.779   1.871   2.680 -0.5258  0.1770  0.8040
 6864SOL     OW21161   1.494   0.061   5.575 -0.0913 -0.0991  0.4802
 6864SOL    HW121162   1.481   0.059   5.670  0.6439 -0.8287  0.5726
 6864SOL    HW221163   1.425   0.119   5.543 -0.6360 -0.2080  1.4153
 6865SOL     OW21164   5.478   1.782   0.469  0.1028 -0.1279 -0.4654
 6865SOL    HW121165   5.467   1.875   0.488 -2.3643 -0.5609  0.5399
 6865SOL    HW221166   5.449   1.737   0.549  0.3355 -1.7896 -1.2684
 6866SOL     OW21167   7.135   3.483   7.292  0.5476  0.5598  0.2177
 6866SOL    HW121168   7.105   3.409   7.239 -0.4228 -0.0188  1.5339
 6866SOL    HW221169   7.074   3.486   7.366  1.0610  2.1859  0.5997
 6867SOL     OW21170   7.270   4.649   3.834  0.2365  0.4034 -0.2799
 6867SOL    HW121171   7.260   4.607   3.748 -0.1986 -3.3257  1.4219
 6867SOL    HW221172   7.212   4.726   3.829 -0.2008  0.0088 -3.1029
 6868SOL     OW21173   2.065   6.265   4.649 -0.1810 -0.2899 -0.7140
 6868SOL    HW121174   1.974   6.288   4.669  0.3500  0.7726  0.6044
 6868SOL    HW221175   2.058   6.183   4.599 -1.8620 -0.1233 -0.8243
 6869SOL     OW21176   0.855   3.753   4.334  0.6135 -0.3478  0.0628
 6869SOL    HW121177   0.874   3.665   4.302 -0.4740 -0.6723  0.2959
 6869SOL    HW221178   0.923   3.770   4.400  0.9402 -0.9252 -0.1188
 6870SOL     OW21179   3.447   3.733   3.948  0.1837  0.1393  0.2234
 6870SOL    HW121180   3.513   3.800   3.932  0.0763  0.8945  2.5700
 6870SOL    HW221181   3.377   3.753   3.887  1.2878  0.4881 -0.9779
 6871SOL     OW21182   3.489   4.115   0.124  0.0212 -0.6347  0.2486
 6871SOL    HW121183   3.549   4.045   0.146  1.6025  0.4376 -0.4515
 6871SOL    HW221184   3.519   4.190   0.176  0.3081  0.3428 -1.2460
 6872SOL     OW21185   4.874   4.779   7.216  0.0508  0.3867 -0.2521
 6872SOL    HW121186   4.947   4.831   7.182 -0.7895  1.9918  0.3302
 6872SOL    HW221187   4.913   4.727   7.286  0.3642  2.5762  1.3141
 6873SOL     OW21188   5.509   0.012   4.114 -0.4518  0.4329 -0.0098
 6873SOL    HW121189   5.517  -0.080   4.091 -0.5819  0.5738 -0.6587
 6873SOL    HW221190   5.563   0.057   4.049  0.2492  0.7612  0.7820
 6874SOL     OW21191   1.347   5.330   1.497  0.3404 -0.8375  0.4156
 6874SOL    HW121192   1.312   5.352   1.410 -0.5391 -1.4519  0.5978
 6874SOL    HW221193   1.415   5.265   1.479 -0.3672 -1.5436  0.2294
 6875SOL     OW21194   5.060   4.164   5.229  0.6470 -0.5152 -0.0538
 6875SOL    HW121195   4.991   4.209   5.279  0.9775 -0.3602  0.2653
 6875SOL    HW221196   5.138   4.216   5.243  0.6570 -0.2368 -1.0892
 6876SOL     OW21197   3.292   5.609   0.734  0.3664 -0.1056  0.2032
 6876SOL    HW121198   3.281   5.682   0.673 -0.9474 -0.4389  0.0137
 6876SOL    HW221199   3.367   5.560   0.700  1.0797  0.9758  0.1668
 6877SOL     OW21200   6.969   0.097   0.108  0.2149 -0.1815 -0.3487
 6877SOL    HW121201   6.908   0.055   0.169  0.3330 -0.0167 -0.1136
 6877SOL    HW221202   7.030   0.027   0.084  0.5647 -0.0829  0.2430
 6878SOL     OW21203   0.669   4.240   6.486  0.0461 -0.2111 -0.2468
 6878SOL    HW121204   0.688   4.146   6.491 -1.0606 -0.4302  0.0069
 6878SOL    HW221205   0.681   4.262   6.394  0.1604 -0.6290 -0.3339
 6879SOL     OW21206   2.403   5.076   6.826  0.0130 -0.2231  0.1135
 6879SOL    HW121207   2.308   5.081   6.811  0.1470  0.0332 -0.6636
 6879SOL    HW221208   2.440   5.144   6.770  0.7183 -0.7770 -0.1088
 6880SOL     OW21209   1.147   5.984   3.283 -0.0647 -0.3528  0.6272
 6880SOL    HW121210   1.074   6.029   3.325  1.0424  0.9331  1.2663
 6880SOL    HW221211   1.150   6.020   3.195 -1.1146 -1.5289  0.0908
 6881SOL     OW21212   7.395   6.802   3.358  0.2270 -0.3377  0.0343
 6881SOL    HW121213   7.432   6.819   3.271  1.4722  1.4337  0.8604
 6881SOL    HW221214   7.301   6.814   3.347  0.4760  0.9976 -0.8549
 6882SOL     OW21215   6.429   3.177   0.612 -0.1484 -0.4458 -0.6783
 6882SOL    HW121216   6.370   3.111   0.576 -0.4239 -0.3737 -0.3696
 6882SOL    HW221217   6.498   3.186   0.547 -0.3108 -0.7639 -0.8966
 6883SOL     OW21218   3.537   3.925   4.615 -0.3739 -0.2496  0.2824
 6883SOL    HW121219   3.619   3.879   4.598 -1.0434 -1.2323 -0.4087
 6883SOL    HW221220   3.563   4.002   4.666  0.9192 -0.7504  0.4236
 6884SOL     OW21221   4.818   6.732   3.840  0.0978 -0.2030  0.2283
 6884SOL    HW121222   4.727   6.710   3.823  0.8215 -1.9780 -1.7823
 6884SOL    HW221223   4.835   6.808   3.784 -0.4441  0.9457  1.5760
 6885SOL     OW21224   6.506   1.716   5.989 -0.2352 -0.3111  0.1589
 6885SOL    HW121225   6.494   1.759   6.074  0.3858 -1.8563  1.0820
 6885SOL    HW221226   6.568   1.771   5.943 -0.8151  0.7226  0.5870
 6886SOL     OW21227   4.465   5.788   6.317 -0.5729 -0.4277  0.0329
 6886SOL    HW121228   4.387   5.792   6.372 -0.4724  0.4826  0.1161
 6886SOL    HW221229   4.511   5.870   6.333  0.9237 -1.3555  0.7232
 6887SOL     OW21230   2.724   0.218   1.021 -0.5900 -0.1800  0.2239
 6887SOL    HW121231   2.795   0.188   1.077  0.4977 -1.6821 -1.8403
 6887SOL    HW221232   2.740   0.312   1.010 -0.0868 -0.1172  1.3350
 6888SOL     OW21233   1.358   3.406   4.440  0.2797  0.5233  0.3154
 6888SOL    HW121234   1.342   3.500   4.437 -1.1528  0.3327  1.0126
 6888SOL    HW221235   1.290   3.368   4.383  0.1378 -0.1441  0.9107
 6889SOL     OW21236   6.522   4.905   2.640  0.2059  0.0170 -0.7012
 6889SOL    HW121237   6.606   4.939   2.609  1.2783 -0.8778  1.0303
 6889SOL    HW221238   6.465   4.906   2.563  1.3736  1.9329 -1.6028
 6890SOL     OW21239   1.813   3.722   4.822 -0.5477 -0.5466 -0.0312
 6890SOL    HW121240   1.824   3.799   4.876 -0.0049 -0.0448 -0.8283
 6890SOL    HW221241   1.896   3.674   4.831 -0.1044 -0.0109 -1.0807
 6891SOL     OW21242   1.355   6.694   0.642 -0.0480 -0.2107 -0.0442
 6891SOL    HW121243   1.348   6.780   0.683  0.0152 -1.3291  2.5090
 6891SOL    HW221244   1.280   6.689   0.583 -0.1514  1.4964 -0.1101
 6892SOL     OW21245   6.284   1.500   7.292 -0.3405  0.0765  0.2390
 6892SOL    HW121246   6.356   1.524   7.235  0.7161 -2.5117  0.3370
 6892SOL    HW221247   6.296   1.553   7.371  1.5064 -0.3178  0.2564
 6893SOL     OW21248   2.701   3.266   6.705  0.1039 -0.1604  0.1333
 6893SOL    HW121249   2.768   3.207   6.669 -0.0019  0.1594 -0.6122
 6893SOL    HW221250   2.711   3.259   6.800  0.3877 -1.0395  0.0515
 6894SOL     OW21251   4.669   3.920   6.022  0.2932 -0.5349  0.3979
 6894SOL    HW121252   4.671   3.899   6.115  1.5134 -0.4935  0.3962
 6894SOL    HW221253   4.711   4.006   6.016 -1.4823  0.3513  0.0113
 6895SOL     OW21254   1.661   4.580   2.217 -0.0452 -0.0553 -0.2782
 6895SOL    HW121255   1.632   4.533   2.139 -0.5279  0.8015 -0.6329
 6895SOL    HW221256   1.647   4.519   2.289  1.6756 -1.3678 -0.9961
 6896SOL     OW21257   4.587   6.051   1.195  0.4414 -0.1853  0.1587
 6896SOL    HW121258   4.491   6.059   1.190  0.2976  0.9087  2.8547
 6896SOL    HW221259   4.618   6.142   1.195  1.5382 -0.5396 -1.0562
 6897SOL     OW21260   5.648   2.805   0.849  0.0933 -1.1469 -0.2189
 6897SOL    HW121261   5.656   2.741   0.919 -0.2946  0.2107  1.1402
 6897SOL    HW221262   5.554   2.810   0.831 -0.1476  0.4564  1.1614
 6898SOL     OW21263   0.088   5.810   6.225 -0.2987  0.1332  0.3983
 6898SOL    HW121264   0.101   5.887   6.170  1.1043 -0.0188  0.4824
 6898SOL    HW221265   0.046   5.844   6.305 -1.9552  0.4116 -0.5450
 6899SOL     OW21266   6.852   1.080   5.921 -0.1995  0.1491  0.2651
 6899SOL    HW121267   6.828   1.156   5.974 -1.8387 -0.2287  0.0960
 6899SOL    HW221268   6.788   1.078   5.850  1.0390 -0.2419 -0.9007
 6900SOL     OW21269   0.838   7.398   0.559 -0.1136 -0.0590  0.0767
 6900SOL    HW121270   0.770   7.332   0.545 -0.9779  0.6913  0.6387
 6900SOL    HW221271   0.867   7.384   0.649 -0.8311  0.7944  0.4507
 6901SOL     OW21272   3.261   0.817   7.432 -0.5311 -0.0833  0.2154
 6901SOL    HW121273   3.294   0.893   7.481 -2.1489  1.6142 -1.1942
 6901SOL    HW221274   3.318   0.812   7.355 -0.8065  0.0831  0.0012
 6902SOL     OW21275   6.267   3.660   1.001 -0.2333  0.7050  0.0569
 6902SOL    HW121276   6.250   3.680   0.909 -0.8645 -3.0891 -0.8263
 6902SOL    HW221277   6.181   3.662   1.043  0.0213  2.1721  0.5552
 6903SOL     OW21278   1.382   1.992   0.223 -0.0401 -0.4190 -0.3131
 6903SOL    HW121279   1.446   2.063   0.221 -0.0292 -0.4070  0.3173
 6903SOL    HW221280   1.429   1.917   0.186 -0.0794 -0.0821 -1.0581
 6904SOL     OW21281   1.245   6.159   1.660  0.2598  0.0269 -0.5960
 6904SOL    HW121282   1.303   6.131   1.589  0.7595 -0.1986 -0.1078
 6904SOL    HW221283   1.304   6.176   1.733 -0.2740 -0.0026 -0.1545
 6905SOL     OW21284   0.723   4.642   2.941  0.1818  0.3696 -0.6229
 6905SOL    HW121285   0.696   4.605   3.025  0.4777 -1.0912 -1.1479
 6905SOL    HW221286   0.818   4.632   2.939  0.2944  1.3718 -0.6908
 6906SOL     OW21287   3.958   5.329   1.071 -0.6313 -0.0608 -0.3554
 6906SOL    HW121288   4.020   5.329   0.998  0.0558 -0.2572  0.2135
 6906SOL    HW221289   4.004   5.374   1.141 -1.5319  0.6993 -0.2376
 6907SOL     OW21290   0.173   6.217   1.178  0.3150 -0.3304 -0.1892
 6907SOL    HW121291   0.213   6.303   1.191 -1.5466  0.4691  0.6536
 6907SOL    HW221292   0.126   6.225   1.095 -1.0864  0.0248  0.5936
 6908SOL     OW21293   0.050   0.353   1.538  0.6437 -0.1248 -1.0124
 6908SOL    HW121294   0.047   0.395   1.451 -1.8189  0.5047 -0.7040
 6908SOL    HW221295  -0.006   0.408   1.593  0.5271 -1.6323  0.4570
 6909SOL     OW21296   4.436   2.988   1.547  0.0206 -0.5883 -0.2164
 6909SOL    HW121297   4.457   3.079   1.567  2.3479 -0.9872 -0.5215
 6909SOL    HW221298   4.422   2.946   1.633 -0.2331 -0.1365 -0.0360
 6910SOL     OW21299   5.760   5.154   4.593 -0.5954 -0.2176  0.6419
 6910SOL    HW121300   5.831   5.219   4.601  0.0238 -0.5503 -1.4484
 6910SOL    HW221301   5.681   5.203   4.616 -0.0990  1.2185 -0.4986
 6911SOL     OW21302   1.358   6.360   2.939  0.1806  0.3664 -0.0440
 6911SOL    HW121303   1.322   6.407   3.014 -0.1136 -0.6882  0.5055
 6911SOL    HW221304   1.326   6.408   2.863  1.1722  1.9405  0.4999
 6912SOL     OW21305   0.009   7.245   1.968  0.3989  1.0846 -0.1568
 6912SOL    HW121306   0.038   7.288   2.048  1.5999 -1.7040  1.0155
 6912SOL    HW221307   0.063   7.284   1.899  2.4995  0.4928  1.0695
 6913SOL     OW21308   2.445   0.216   6.621  0.0992  0.4706  0.3093
 6913SOL    HW121309   2.476   0.142   6.674  2.3581  0.4722 -0.9087
 6913SOL    HW221310   2.377   0.178   6.565  2.2398 -1.1083 -1.3435
 6914SOL     OW21311   6.910   2.634   6.256 -0.1272 -0.1046 -0.1960
 6914SOL    HW121312   6.952   2.615   6.172  1.6683  0.5716  0.5064
 6914SOL    HW221313   6.901   2.730   6.258  0.9157 -0.0015  0.8358
 6915SOL     OW21314   5.781   6.952   2.783  0.4849 -0.1863  0.1137
 6915SOL    HW121315   5.763   7.024   2.723  0.0876 -0.4050 -0.0348
 6915SOL    HW221316   5.837   6.990   2.851  1.6870 -0.1648 -0.8729
 6916SOL     OW21317   2.506   5.454   2.026  0.0115  0.1983  0.3662
 6916SOL    HW121318   2.433   5.458   1.965 -0.1656  0.3773  0.5873
 6916SOL    HW221319   2.574   5.407   1.979  0.7226  2.3181 -0.8835
 6917SOL     OW21320   0.942   2.311   0.470 -0.1548  0.4829  0.0136
 6917SOL    HW121321   0.894   2.267   0.541 -0.8934  1.2791  0.0162
 6917SOL    HW221322   0.997   2.242   0.433 -1.7530 -0.6432 -0.3935
 6918SOL     OW21323   1.796   5.730   6.334  0.5572  0.3097 -0.0863
 6918SOL    HW121324   1.876   5.741   6.283  1.1667  0.2739  0.8407
 6918SOL    HW221325   1.766   5.642   6.313  0.5792  0.4350 -0.6716
 6919SOL     OW21326   0.653   5.435   5.300 -0.1660 -0.0005  0.2046
 6919SOL    HW121327   0.721   5.430   5.367 -1.3659  0.3846  1.4911
 6919SOL    HW221328   0.648   5.528   5.277  1.2598 -0.3066 -1.5554
 6920SOL     OW21329   7.197   7.026   6.935 -0.7633 -0.0501  0.6789
 6920SOL    HW121330   7.177   7.119   6.945  0.7988  0.6894 -1.9974
 6920SOL    HW221331   7.140   6.996   6.865  0.4944 -0.3819 -0.2539
 6921SOL     OW21332   2.012   2.945   4.862  0.0918 -0.1978 -0.4759
 6921SOL    HW121333   1.944   2.947   4.795 -1.2093 -0.7225  0.7718
 6921SOL    HW221334   2.062   3.025   4.849 -1.3338  0.6445 -0.8769
 6922SOL     OW21335   5.731   3.138   3.348 -0.5700 -0.2216  0.1886
 6922SOL    HW121336   5.785   3.183   3.283 -1.0192  2.1810  1.3737
 6922SOL    HW221337   5.653   3.112   3.300 -0.9665  1.6517 -0.2811
 6923SOL     OW21338   6.722   6.438   0.311  0.7215 -0.1869  0.7258
 6923SOL    HW121339   6.641   6.481   0.338  1.2154  1.6654 -0.5304
 6923SOL    HW221340   6.764   6.411   0.393 -0.6276 -0.1850  1.4399
 6924SOL     OW21341   7.057   3.269   0.880 -0.1676 -0.1167 -0.1387
 6924SOL    HW121342   7.116   3.314   0.940 -1.8365  1.7900  0.1891
 6924SOL    HW221343   7.094   3.284   0.794 -0.3254  1.3750  0.0295
 6925SOL     OW21344   6.810   4.637   4.672 -0.0407  0.2311  0.5200
 6925SOL    HW121345   6.784   4.550   4.639  0.5726  0.4634 -0.6544
 6925SOL    HW221346   6.904   4.629   4.689  0.0461  0.6951  0.2817
 6926SOL     OW21347   3.530   5.709   0.391 -0.4746 -0.4500 -0.5517
 6926SOL    HW121348   3.533   5.613   0.385  1.6305 -0.3432 -4.6529
 6926SOL    HW221349   3.472   5.736   0.320  1.3294  1.3230 -1.4503
 6927SOL     OW21350   3.962   2.158   0.697  0.5570 -0.4798 -0.0887
 6927SOL    HW121351   3.980   2.222   0.766  2.0906 -1.3991  0.4099
 6927SOL    HW221352   3.904   2.093   0.739 -1.3388  0.7233 -0.7127
 6928SOL     OW21353   3.145   5.499   4.419  0.1087  0.5090 -0.0070
 6928SOL    HW121354   3.058   5.459   4.422 -0.9495  2.6880 -0.1382
 6928SOL    HW221355   3.171   5.505   4.511  1.2976 -2.3816 -0.0337
 6929SOL     OW21356   5.596   6.240   1.324  0.1749 -0.0769 -0.7986
 6929SOL    HW121357   5.532   6.180   1.286  0.6954 -0.8038 -0.5461
 6929SOL    HW221358   5.600   6.215   1.416 -1.4931  2.0312 -0.0650
 6930SOL     OW21359   3.187   1.421   3.386  0.4550 -0.3984  0.3869
 6930SOL    HW121360   3.180   1.429   3.291  0.5435 -1.3100  0.2873
 6930SOL    HW221361   3.180   1.510   3.419  1.3327  0.0360 -0.5416
 6931SOL     OW21362   2.638   4.787   2.369 -0.4122 -0.5466 -0.3785
 6931SOL    HW121363   2.611   4.867   2.414  0.4237 -0.1046 -0.6441
 6931SOL    HW221364   2.708   4.815   2.310 -0.6076 -1.3472 -1.0087
 6932SOL     OW21365   4.615   1.791   3.616 -0.0399 -0.2918  0.6928
 6932SOL    HW121366   4.674   1.782   3.542  0.0657 -0.9451  0.8520
 6932SOL    HW221367   4.650   1.732   3.682 -0.3766 -0.0320  1.1097
 6933SOL     OW21368   5.522   5.472   6.277  1.1407  0.1987  0.5156
 6933SOL    HW121369   5.519   5.566   6.263 -1.2054  0.1823  0.4776
 6933SOL    HW221370   5.491   5.459   6.367 -1.6551 -0.6162 -0.4544
 6934SOL     OW21371   5.080   3.164   5.095 -0.6567  0.5704 -0.1428
 6934SOL    HW121372   4.987   3.170   5.073 -0.2065 -0.0986 -2.5137
 6934SOL    HW221373   5.115   3.250   5.073 -0.3465  0.1493 -1.3496
 6935SOL     OW21374   3.653   1.608   5.851 -0.2910 -0.4977  0.0271
 6935SOL    HW121375   3.632   1.529   5.800 -0.2474 -0.0017 -0.7781
 6935SOL    HW221376   3.747   1.600   5.870 -0.1222 -0.2959 -0.6846
 6936SOL     OW21377   1.401   0.590   5.155  0.1830  0.3916  0.2810
 6936SOL    HW121378   1.465   0.635   5.210 -0.5548  0.5447  1.0330
 6936SOL    HW221379   1.443   0.584   5.070  1.6120 -0.3912  1.0008
 6937SOL     OW21380   7.120   1.772   5.212 -0.4902 -0.1486 -0.3532
 6937SOL    HW121381   7.180   1.799   5.142  0.1693 -2.4064 -0.7402
 6937SOL    HW221382   7.151   1.818   5.290 -0.5672  1.5633 -1.2786
 6938SOL     OW21383   5.485   1.414   0.931 -0.1756 -0.2885  0.5195
 6938SOL    HW121384   5.517   1.415   1.021  0.0384 -2.1892  0.5215
 6938SOL    HW221385   5.394   1.384   0.939  0.2355 -1.7706  0.0609
 6939SOL     OW21386   2.675   2.172   2.127  0.1346  0.0647 -0.8865
 6939SOL    HW121387   2.647   2.256   2.090  0.7617  0.5715 -0.2280
 6939SOL    HW221388   2.605   2.111   2.103 -0.9727  1.0531 -0.2725
 6940SOL     OW21389   6.895   0.230   3.644 -0.1821  0.3014  0.0206
 6940SOL    HW121390   6.843   0.274   3.577 -2.3725 -0.8878  0.8279
 6940SOL    HW221391   6.914   0.144   3.607 -0.6993 -0.0588  0.5598
 6941SOL     OW21392   1.488   0.688   2.468 -0.2655  0.2151 -0.1844
 6941SOL    HW121393   1.525   0.600   2.470 -1.5960 -0.5478 -3.3735
 6941SOL    HW221394   1.417   0.686   2.532 -0.8648 -1.3938 -0.8321
 6942SOL     OW21395   6.317   3.064   4.394  0.0137 -0.7316  0.0044
 6942SOL    HW121396   6.318   3.155   4.426 -2.2782 -0.7253  0.2302
 6942SOL    HW221397   6.362   3.015   4.462  1.9941  0.3028 -0.4879
 6943SOL     OW21398   3.296   4.934   2.029  0.1507 -0.2184  0.8839
 6943SOL    HW121399   3.371   4.959   1.975 -1.3376 -0.5625 -1.4520
 6943SOL    HW221400   3.336   4.895   2.107  2.4578 -1.5686 -0.8200
 6944SOL     OW21401   4.023   0.940   5.932 -0.2715  0.2624  0.2263
 6944SOL    HW121402   4.041   1.030   5.960 -3.5359  0.8722  0.7565
 6944SOL    HW221403   4.007   0.947   5.837  1.4485 -0.1565 -0.1200
 6945SOL     OW21404   4.551   0.095   1.153 -0.3023  0.6280  0.2410
 6945SOL    HW121405   4.462   0.129   1.148 -0.1852  1.0926  1.0552
 6945SOL    HW221406   4.569   0.091   1.247 -0.2473 -1.5367  0.1746
 6946SOL     OW21407   3.597   4.890   4.208 -0.0465 -0.2379  0.5388
 6946SOL    HW121408   3.561   4.967   4.252 -0.6850 -0.7237  0.8948
 6946SOL    HW221409   3.690   4.909   4.199 -0.1511  0.4741  0.8309
 6947SOL     OW21410   6.190   0.620   7.167  0.4964 -0.0306 -0.1871
 6947SOL    HW121411   6.133   0.554   7.128  0.0114  1.0449 -1.3409
 6947SOL    HW221412   6.277   0.601   7.132  0.4406 -0.3403 -0.1557
 6948SOL     OW21413   2.030   0.493   4.951  0.6775  0.1825  0.6303
 6948SOL    HW121414   2.053   0.505   4.859 -2.2964 -0.7364 -0.3461
 6948SOL    HW221415   1.980   0.571   4.974 -2.2853 -1.3943  0.0399
 6949SOL     OW21416   3.210   7.406   1.560  0.1169 -0.1814 -0.2506
 6949SOL    HW121417   3.299   7.393   1.528 -0.1805 -2.7579 -0.2432
 6949SOL    HW221418   3.217   7.400   1.655  0.4250  3.6427  0.1315
 6950SOL     OW21419   7.212   2.118   4.416 -0.5625  0.5744  0.4147
 6950SOL    HW121420   7.293   2.145   4.374 -0.2192 -0.8240  0.1303
 6950SOL    HW221421   7.200   2.181   4.487  1.6774 -0.1636  1.5431
 6951SOL     OW21422   0.435   5.505   3.348  0.0179 -0.1459  0.0512
 6951SOL    HW121423   0.381   5.533   3.422 -0.7849 -2.3647  0.3926
 6951SOL    HW221424   0.381   5.440   3.303  0.0140  1.8457 -3.1791
 6952SOL     OW21425   3.412   4.239   0.764  0.4587 -0.3735  0.7892
 6952SOL    HW121426   3.380   4.150   0.774  1.6753 -0.9679 -0.2723
 6952SOL    HW221427   3.505   4.234   0.787  0.5012  0.6594  0.9055
 6953SOL     OW21428   1.747   6.804   0.491 -0.3430  0.1183  0.3840
 6953SOL    HW121429   1.664   6.766   0.462  1.1806 -2.7633 -0.5040
 6953SOL    HW221430   1.757   6.883   0.437 -1.5628 -0.5751 -0.9211
 6954SOL     OW21431   4.846   1.268   2.986  0.0587 -0.5915  0.3461
 6954SOL    HW121432   4.869   1.361   2.996  1.7755 -0.8292 -0.8979
 6954SOL    HW221433   4.751   1.268   2.976 -0.1505  0.8706  1.9264
 6955SOL     OW21434   2.354   7.179   3.318  0.6907 -0.6212 -0.5115
 6955SOL    HW121435   2.439   7.206   3.284  1.0474  0.2293  0.9795
 6955SOL    HW221436   2.362   7.188   3.413 -0.5549 -2.0480 -0.2396
 6956SOL     OW21437   1.593   3.216   2.234  0.2564 -0.2840 -0.2938
 6956SOL    HW121438   1.670   3.158   2.236  0.3633 -0.1506 -0.4825
 6956SOL    HW221439   1.605   3.268   2.155  0.1692  0.0090 -0.1154
 6957SOL     OW21440   4.818   3.579   3.967  0.2876 -0.1405  0.4910
 6957SOL    HW121441   4.829   3.484   3.975 -0.8345 -0.4334 -1.0043
 6957SOL    HW221442   4.898   3.616   4.005  0.9831 -1.6894  0.5952
 6958SOL     OW21443   2.242   1.247   1.652  0.2262 -0.1582 -0.4248
 6958SOL    HW121444   2.234   1.224   1.559  2.4016 -1.2260 -0.4179
 6958SOL    HW221445   2.232   1.164   1.698  0.6728  0.1058  0.1649
 6959SOL     OW21446   4.172   5.411   3.654 -0.6275 -0.5834 -0.3718
 6959SOL    HW121447   4.234   5.450   3.591  0.8966 -0.5586  1.0671
 6959SOL    HW221448   4.152   5.325   3.618  1.7531 -1.3610  0.0004
 6960SOL     OW21449   2.099   1.842   0.007 -0.6102 -0.0213  0.0953
 6960SOL    HW121450   2.145   1.907   0.061 -1.1215  0.5982 -0.2020
 6960SOL    HW221451   2.160   1.768   0.002  1.6938  1.8643 -2.7304
 6961SOL     OW21452   3.060   5.346   5.740 -0.1662 -0.6871 -0.1414
 6961SOL    HW121453   2.995   5.279   5.758 -2.6188  1.5089 -0.3220
 6961SOL    HW221454   3.061   5.353   5.645 -2.6075  1.8319 -0.1055
 6962SOL     OW21455   1.828   2.960   6.988  0.7557  0.0694 -0.4755
 6962SOL    HW121456   1.869   2.917   6.913  0.8423  0.2401 -0.5262
 6962SOL    HW221457   1.899   2.968   7.052  0.5107 -0.7398 -0.0873
 6963SOL     OW21458   2.748   0.773   3.168  0.2926  0.3185 -0.0200
 6963SOL    HW121459   2.713   0.765   3.257  2.1643 -0.7206  0.6841
 6963SOL    HW221460   2.680   0.736   3.112 -1.5533  2.3024  0.7614
 6964SOL     OW21461   4.132   0.630   3.863 -0.1948 -0.3816 -0.6388
 6964SOL    HW121462   4.093   0.563   3.919 -1.3102  0.8757  0.1596
 6964SOL    HW221463   4.195   0.583   3.809 -0.5749 -1.9744  0.2470
 6965SOL     OW21464   6.344   4.448   1.521 -0.2503  0.1183 -0.0032
 6965SOL    HW121465   6.300   4.387   1.581  2.8273 -0.7029  1.6511
 6965SOL    HW221466   6.372   4.393   1.448 -1.0149  0.4386 -0.5535
 6966SOL     OW21467   5.472   0.783   0.772  0.4769 -0.2313  0.2509
 6966SOL    HW121468   5.444   0.781   0.863 -1.1340  0.5184 -0.1900
 6966SOL    HW221469   5.422   0.713   0.730 -1.1024  1.3318 -0.6201
 6967SOL     OW21470   5.757   5.751   7.024  0.3716 -0.1277  0.3570
 6967SOL    HW121471   5.687   5.710   6.973  0.3179  0.7471 -0.3008
 6967SOL    HW221472   5.830   5.759   6.963  1.0584 -1.0158  1.0350
 6968SOL     OW21473   6.154   2.250   2.438 -0.0105  0.5431 -0.2126
 6968SOL    HW121474   6.092   2.179   2.456 -1.3027  0.8900 -2.8147
 6968SOL    HW221475   6.121   2.324   2.490  0.8811 -0.4294  1.8770
 6969SOL     OW21476   0.392   5.110   3.123 -0.1113 -0.3956  0.1697
 6969SOL    HW121477   0.431   5.044   3.066  1.3362 -0.6713  1.4283
 6969SOL    HW221478   0.400   5.192   3.073  1.3814 -0.5859  0.0594
 6970SOL     OW21479   4.322   3.835   1.698 -0.0646 -0.2358  0.3529
 6970SOL    HW121480   4.375   3.793   1.630 -0.0741  0.0800  0.1513
 6970SOL    HW221481   4.234   3.799   1.686 -0.7064  1.6961 -1.4671
 6971SOL     OW21482   7.382   1.753   3.179 -0.5026 -0.2379 -0.0101
 6971SOL    HW121483   7.469   1.767   3.140 -0.0970 -1.1673  0.5313
 6971SOL    HW221484   7.333   1.707   3.111  0.0341 -1.3732  0.3312
 6972SOL     OW21485   0.634   2.881   2.002 -0.4969  0.4421  0.0917
 6972SOL    HW121486   0.629   2.794   1.963 -2.5801  0.6185 -0.1394
 6972SOL    HW221487   0.544   2.899   2.031  0.0607  2.1985  0.8195
 6973SOL     OW21488   2.397   4.309   3.129 -0.0684 -0.7015  0.0874
 6973SOL    HW121489   2.369   4.397   3.102  0.1693 -0.3638  0.9290
 6973SOL    HW221490   2.327   4.252   3.097 -1.5301  0.0837  1.7274
 6974SOL     OW21491   5.315   2.820   5.998  0.1210 -0.6623  0.7030
 6974SOL    HW121492   5.257   2.856   6.065 -1.3678  0.0704 -0.9052
 6974SOL    HW221493   5.290   2.865   5.918  1.8825 -1.4738 -0.3609
 6975SOL     OW21494   7.016   6.837   0.596 -0.3304 -0.1634 -0.7894
 6975SOL    HW121495   6.937   6.887   0.575  0.2299  0.7979 -0.6674
 6975SOL    HW221496   6.991   6.746   0.583 -1.4061  0.1403 -0.9271
 6976SOL     OW21497   0.460   1.694   3.069 -0.0557  0.0161 -0.0471
 6976SOL    HW121498   0.394   1.715   3.135 -0.5062 -0.5586 -0.3053
 6976SOL    HW221499   0.410   1.680   2.988  0.3829 -0.3232 -0.2645
 6977SOL     OW21500   6.334   6.332   1.232 -0.3450 -0.0386 -0.4669
 6977SOL    HW121501   6.281   6.256   1.209  0.7435 -0.7423 -0.7688
 6977SOL    HW221502   6.321   6.343   1.327 -1.5952  0.2771 -0.6701
 6978SOL     OW21503   3.620   4.597   5.373 -0.2978  0.3796  0.2630
 6978SOL    HW121504   3.679   4.589   5.298 -0.9467  0.0492 -0.2236
 6978SOL    HW221505   3.657   4.539   5.439  1.8516  2.7458  1.2821
 6979SOL     OW21506   2.445   1.441   3.929  0.0570  0.4852  0.0304
 6979SOL    HW121507   2.488   1.363   3.895 -0.2609 -0.5468  1.8733
 6979SOL    HW221508   2.513   1.489   3.975  0.5510  2.0243 -2.1524
 6980SOL     OW21509   7.105   6.369   3.867  0.3180 -0.2844 -0.1572
 6980SOL    HW121510   7.174   6.421   3.824 -0.4492 -0.2693 -1.4182
 6980SOL    HW221511   7.113   6.282   3.829 -1.8285  0.2901 -2.1538
 6981SOL     OW21512   3.540   0.121   4.120  0.5828 -0.3514  0.2388
 6981SOL    HW121513   3.613   0.156   4.171  0.5082  3.3693 -1.8994
 6981SOL    HW221514   3.493   0.198   4.088  0.5147 -2.2210 -5.2405
 6982SOL     OW21515   6.616   6.560   2.299 -0.5559  0.4355 -0.3777
 6982SOL    HW121516   6.639   6.555   2.206 -0.8733  0.0116 -0.4365
 6982SOL    HW221517   6.700   6.556   2.345 -0.4657 -0.4655 -0.6111
 6983SOL     OW21518   6.957   6.589   0.089  0.2075  0.1989 -0.3081
 6983SOL    HW121519   7.019   6.623   0.024  0.2320 -1.6020 -1.3128
 6983SOL    HW221520   6.905   6.664   0.115  0.5328  1.0887 -2.0580
 6984SOL     OW21521   1.885   5.599   6.782  0.0798  0.3358  0.5789
 6984SOL    HW121522   1.814   5.542   6.751  0.5101  0.8454 -1.5401
 6984SOL    HW221523   1.940   5.542   6.834 -1.6392 -0.1718  1.9475
 6985SOL     OW21524   4.664   7.111   6.158 -0.3979 -0.3438  0.0206
 6985SOL    HW121525   4.641   7.079   6.245 -1.4471 -1.3972 -0.6124
 6985SOL    HW221526   4.719   7.188   6.174  0.9401 -1.5622  1.6068
 6986SOL     OW21527   2.957   4.310   4.916  0.4376  0.0454  0.1889
 6986SOL    HW121528   3.024   4.377   4.933  2.4239 -1.0557 -2.6417
 6986SOL    HW221529   3.005   4.237   4.878 -2.4431 -0.5821 -2.6239
 6987SOL     OW21530   3.081   4.613   2.335  0.3993 -0.1932  0.0626
 6987SOL    HW121531   3.061   4.532   2.287  0.6964 -0.5731  0.5603
 6987SOL    HW221532   3.141   4.585   2.404  0.0409  0.3552  0.6033
 6988SOL     OW21533   1.914   3.679   0.459  0.0839  0.3213 -0.1428
 6988SOL    HW121534   1.994   3.684   0.408 -1.2083  1.7122 -2.2123
 6988SOL    HW221535   1.864   3.608   0.418 -0.0785  0.0239  0.5683
 6989SOL     OW21536   6.110   3.117   6.160  0.3100  0.1317  0.7757
 6989SOL    HW121537   6.149   3.134   6.246  0.7503  0.2493  0.5560
 6989SOL    HW221538   6.170   3.055   6.119  1.4259  1.9004 -0.4013
 6990SOL     OW21539   4.441   3.048   3.423 -0.3706  0.4594  0.0739
 6990SOL    HW121540   4.437   2.988   3.348 -0.5558 -0.0806  0.5017
 6990SOL    HW221541   4.519   3.021   3.470 -0.6050  0.3746  0.4159
 6991SOL     OW21542   4.157   1.892   4.625  0.0475  0.3533 -0.4790
 6991SOL    HW121543   4.128   1.822   4.566 -0.3871  0.6192 -0.5824
 6991SOL    HW221544   4.227   1.852   4.677  0.8260  0.2802 -1.5505
 6992SOL     OW21545   2.824   5.835   6.661 -0.0298 -0.0916 -0.3161
 6992SOL    HW121546   2.729   5.844   6.650 -0.0512  0.7364  0.3658
 6992SOL    HW221547   2.860   5.851   6.574 -0.4810  0.4466 -0.4125
 6993SOL     OW21548   0.871   0.377   6.232 -0.5361  0.2968  0.1589
 6993SOL    HW121549   0.879   0.425   6.150  0.8780  0.4556  0.3711
 6993SOL    HW221550   0.880   0.285   6.207 -0.7338  0.3032  0.0634
 6994SOL     OW21551   5.410   1.175   6.671 -0.0330 -0.1658 -0.0290
 6994SOL    HW121552   5.450   1.128   6.598 -2.4470 -1.0102 -0.9189
 6994SOL    HW221553   5.455   1.142   6.748  0.8013 -1.2382 -0.9409
 6995SOL     OW21554   7.074   1.912   4.295 -0.2365 -0.5284 -0.1645
 6995SOL    HW121555   7.107   1.954   4.374 -3.4416  1.3364  0.3623
 6995SOL    HW221556   7.060   1.820   4.320 -1.6377  0.1219  1.6709
 6996SOL     OW21557   7.348   0.791   3.078  0.1665 -0.4533 -0.0737
 6996SOL    HW121558   7.264   0.788   3.034  0.0221 -0.9542  0.2348
 6996SOL    HW221559   7.385   0.876   3.053 -1.2683  0.6486  1.3145
 6997SOL     OW21560   0.334   1.692   3.566 -0.1910  0.4664  0.3548
 6997SOL    HW121561   0.352   1.651   3.651 -0.9063  0.3793  0.4668
 6997SOL    HW221562   0.289   1.773   3.588 -0.1969  0.5416  0.0613
 6998SOL     OW21563   2.225   6.252   2.627  0.3005 -0.2042  0.2192
 6998SOL    HW121564   2.262   6.205   2.701 -1.3554 -0.2867  1.0353
 6998SOL    HW221565   2.130   6.248   2.640 -0.0077  0.5065 -1.4575
 6999SOL     OW21566   7.054   1.561   3.168  0.1262  0.2149 -0.3236
 6999SOL    HW121567   7.130   1.534   3.117 -0.3956  0.2433 -1.1402
 6999SOL    HW221568   6.979   1.535   3.115 -0.4221  0.8783  0.1064
 7000SOL     OW21569   7.391   0.945   5.764 -0.1280  0.3541  0.1870
 7000SOL    HW121570   7.449   0.890   5.711 -1.6825 -1.3953  0.1902
 7000SOL    HW221571   7.407   0.916   5.854 -1.3864 -0.6008  0.1370
 7001SOL     OW21572   3.605   0.508   1.212  0.5861  0.7609 -0.4160
 7001SOL    HW121573   3.696   0.536   1.217  1.4840 -1.9851  0.4661
 7001SOL    HW221574   3.604   0.438   1.146 -0.4314 -0.5611  0.9117
 7002SOL     OW21575   7.126   3.310   2.741 -0.0199 -0.6355 -0.5658
 7002SOL    HW121576   7.044   3.267   2.764 -0.3053 -0.4421 -1.2195
 7002SOL    HW221577   7.104   3.403   2.735  0.5759 -0.3876  0.7507
 7003SOL     OW21578   3.032   2.740   6.773 -0.2370 -0.2474 -0.4420
 7003SOL    HW121579   3.058   2.653   6.744 -1.3848 -1.1018  0.9533
 7003SOL    HW221580   2.937   2.736   6.778 -0.1994  0.4874  1.4237
 7004SOL     OW21581   4.838   4.859   0.615  0.2794 -0.3289 -0.2518
 7004SOL    HW121582   4.850   4.924   0.546 -1.6210  1.4813  0.9919
 7004SOL    HW221583   4.867   4.904   0.695  0.2607 -1.5364  0.4589
 7005SOL     OW21584   4.145   5.459   4.748 -0.0826 -0.0468 -0.3403
 7005SOL    HW121585   4.075   5.520   4.725 -0.2434 -0.1392 -0.1012
 7005SOL    HW221586   4.203   5.510   4.805  0.1733  0.0999 -0.7234
 7006SOL     OW21587   6.341   4.361   5.782 -0.1066  0.6102  0.1147
 7006SOL    HW121588   6.413   4.373   5.844  0.2096  0.0838 -0.1436
 7006SOL    HW221589   6.264   4.344   5.837  0.4153 -1.1596  0.3547
 7007SOL     OW21590   7.233   3.449   5.860 -0.1665  0.2999  0.1088
 7007SOL    HW121591   7.226   3.372   5.916 -0.0915 -0.0407 -0.3443
 7007SOL    HW221592   7.323   3.447   5.829  0.1182  1.1051  0.8482
 7008SOL     OW21593   7.050   1.120   0.697 -0.0659  0.0371 -0.2892
 7008SOL    HW121594   6.979   1.056   0.691  0.6459 -0.7408 -0.6672
 7008SOL    HW221595   7.036   1.178   0.623 -0.0952 -0.3395 -0.5821
 7009SOL     OW21596   3.403   6.343   6.949  0.0299  0.0434 -0.2666
 7009SOL    HW121597   3.485   6.386   6.923  0.3385 -1.3469 -1.7399
 7009SOL    HW221598   3.394   6.269   6.889 -2.1033 -0.1036  0.1497
 7010SOL     OW21599   3.435   3.455   7.148 -0.4295  0.0518 -0.1495
 7010SOL    HW121600   3.500   3.508   7.195  0.6258 -0.1005 -1.3817
 7010SOL    HW221601   3.478   3.371   7.134 -0.7318  0.0767 -1.3253
 7011SOL     OW21602   3.246   4.510   1.762 -1.0592  0.1854  0.2857
 7011SOL    HW121603   3.256   4.428   1.714  0.6363  0.1577  0.6280
 7011SOL    HW221604   3.223   4.575   1.695 -4.2939 -0.8144  0.2282
 7012SOL     OW21605   4.606   1.748   4.100  0.2919 -0.2200  0.0798
 7012SOL    HW121606   4.656   1.721   4.177 -0.5183 -1.8769  0.0677
 7012SOL    HW221607   4.577   1.666   4.060 -2.5983  0.6169  0.2234
 7013SOL     OW21608   0.681   4.219   2.266 -0.6357 -0.0536  0.1086
 7013SOL    HW121609   0.694   4.253   2.355  0.9732 -0.8497  0.2118
 7013SOL    HW221610   0.679   4.298   2.211  1.0101  0.3504  0.5748
 7014SOL     OW21611   6.990   4.748   3.027  0.1077 -0.2628 -0.3645
 7014SOL    HW121612   6.964   4.788   3.110  0.9714 -1.5528  0.5740
 7014SOL    HW221613   6.937   4.792   2.961  1.5713  3.0276  0.4573
 7015SOL     OW21614   3.046   1.447   0.956  0.3278  0.1293  0.4111
 7015SOL    HW121615   3.067   1.480   1.044  0.2706 -0.5833  0.6963
 7015SOL    HW221616   3.056   1.352   0.963 -1.0602 -0.0615  0.0263
 7016SOL     OW21617   4.130   7.242   3.024 -0.4725 -0.2443  0.3531
 7016SOL    HW121618   4.121   7.334   3.000 -0.8898 -0.0020  1.4016
 7016SOL    HW221619   4.217   7.236   3.063  0.1383 -0.6042 -1.0094
 7017SOL     OW21620   0.810   0.742   1.962  0.1983 -0.3570  0.5709
 7017SOL    HW121621   0.817   0.653   1.997  0.7102 -0.8552 -0.7263
 7017SOL    HW221622   0.798   0.729   1.868  0.1621  0.9578  0.3841
 7018SOL     OW21623   3.977   6.368   3.315  0.4811  1.2110  0.5682
 7018SOL    HW121624   4.050   6.368   3.378 -0.5581 -0.4645  1.8472
 7018SOL    HW221625   3.942   6.279   3.319 -0.6076  1.5085 -1.2786
 7019SOL     OW21626   4.560   4.979   2.456 -0.8912 -0.6546  0.4372
 7019SOL    HW121627   4.599   5.066   2.446  0.3732 -1.0776  1.4708
 7019SOL    HW221628   4.537   4.953   2.366  0.9779 -0.2552 -0.2112
 7020SOL     OW21629   5.785   3.493   0.337  0.1485  0.1185 -0.5067
 7020SOL    HW121630   5.826   3.461   0.417  0.3633  0.6878 -0.3812
 7020SOL    HW221631   5.809   3.586   0.334 -0.8835  0.3868 -0.5905
 7021SOL     OW21632   1.029   0.906   2.451  0.1068 -0.2630 -0.0762
 7021SOL    HW121633   0.992   0.817   2.456 -0.3391 -0.1133 -0.7174
 7021SOL    HW221634   1.003   0.938   2.365  0.8906  0.2216 -0.1359
 7022SOL     OW21635   1.026   0.998   0.817  0.2400  0.6223 -0.0428
 7022SOL    HW121636   1.012   1.007   0.911  0.1715 -1.4977  0.2145
 7022SOL    HW221637   0.956   0.939   0.788 -0.9494  2.7690 -1.8326
 7023SOL     OW21638   2.659   2.856   5.981 -0.0738  0.0177  0.0695
 7023SOL    HW121639   2.665   2.849   6.076 -0.8086 -2.1574  0.0219
 7023SOL    HW221640   2.749   2.852   5.950  0.0730 -2.7784  0.5827
 7024SOL     OW21641   1.701   2.974   1.324 -0.7660 -0.4441  0.3353
 7024SOL    HW121642   1.791   2.976   1.360 -0.3584 -2.5080 -0.4439
 7024SOL    HW221643   1.647   3.005   1.397  0.4680 -0.2235  1.2119
 7025SOL     OW21644   5.830   2.614   3.354  0.1059  0.0147  0.2487
 7025SOL    HW121645   5.808   2.528   3.318 -0.8325  0.3852 -0.0878
 7025SOL    HW221646   5.923   2.608   3.376  0.5208 -0.5066 -1.4611
 7026SOL     OW21647   0.981   5.163   6.966  0.3929 -0.1618  0.3531
 7026SOL    HW121648   1.046   5.126   6.905  1.0095 -0.4863  1.1908
 7026SOL    HW221649   0.903   5.108   6.954  0.8581 -0.8943  0.6039
 7027SOL     OW21650   6.194   1.880   5.295 -0.6184  0.9781 -0.2335
 7027SOL    HW121651   6.199   1.885   5.390 -0.2503  0.5901 -0.2260
 7027SOL    HW221652   6.106   1.910   5.273 -0.1903  2.5738  0.1136
 7028SOL     OW21653   6.582   5.466   7.112  0.3294 -0.6332 -0.6814
 7028SOL    HW121654   6.668   5.425   7.102  0.7747  0.3309 -0.9750
 7028SOL    HW221655   6.602   5.560   7.121 -0.7278 -0.3405 -1.3159
 7029SOL     OW21656   6.831   4.129   5.092  0.2117  0.6224 -0.0372
 7029SOL    HW121657   6.825   4.187   5.167 -0.7081  1.8991 -1.0540
 7029SOL    HW221658   6.914   4.083   5.104 -0.3507  0.0467  2.2446
 7030SOL     OW21659   0.051   2.962   1.869 -0.1494 -0.0744  0.0612
 7030SOL    HW121660   0.072   2.869   1.865 -2.1817 -0.5823  0.1895
 7030SOL    HW221661   0.117   3.004   1.813  1.1670 -1.4913  0.4886
 7031SOL     OW21662   4.595   5.453   2.730  0.4696  0.2837 -0.1242
 7031SOL    HW121663   4.546   5.525   2.770  1.4579  0.3905  0.9561
 7031SOL    HW221664   4.604   5.478   2.638 -0.8347  0.6121 -0.1885
 7032SOL     OW21665   4.778   5.765   5.377 -0.1106  0.5438  0.3990
 7032SOL    HW121666   4.686   5.749   5.356 -0.2342  3.1934 -1.5860
 7032SOL    HW221667   4.792   5.857   5.355  3.3077 -0.0527 -0.5532
 7033SOL     OW21668   0.972   0.884   5.256 -0.1344 -0.0518 -0.0588
 7033SOL    HW121669   0.911   0.814   5.233  0.0767  0.3288 -2.0094
 7033SOL    HW221670   0.992   0.870   5.348 -2.1541 -0.9466  0.2840
 7034SOL     OW21671   3.079   6.670   7.245 -1.2878  0.3603 -0.1882
 7034SOL    HW121672   3.039   6.611   7.309  0.7484 -1.3820 -0.3947
 7034SOL    HW221673   3.155   6.622   7.213 -0.6256  2.3607 -1.8320
 7035SOL     OW21674   3.401   4.788   5.882  0.3172  0.0683 -0.0806
 7035SOL    HW121675   3.365   4.714   5.832 -1.3457  2.0533 -2.0030
 7035SOL    HW221676   3.379   4.767   5.973 -3.2164 -0.3166 -0.8402
 7036SOL     OW21677   3.767   1.445   2.943  0.5026  0.8206  0.0751
 7036SOL    HW121678   3.789   1.352   2.934 -1.3621  0.1887  1.3732
 7036SOL    HW221679   3.821   1.475   3.016  1.6512  0.9722 -0.8173
 7037SOL     OW21680   2.275   6.209   0.491 -0.7141  0.2174 -0.0981
 7037SOL    HW121681   2.191   6.171   0.517 -0.1442 -0.0901  1.3655
 7037SOL    HW221682   2.252   6.269   0.419 -1.8238 -1.7394 -1.4816
 7038SOL     OW21683   0.084   4.944   1.147  0.1521  0.1298  0.5391
 7038SOL    HW121684   0.042   4.921   1.064  0.5339 -1.3210  0.7313
 7038SOL    HW221685   0.172   4.971   1.123 -0.4738  2.0846  0.2534
 7039SOL     OW21686   1.880   6.599   4.008  0.2317  0.0327  0.5901
 7039SOL    HW121687   1.892   6.654   4.086  0.3561 -0.7846  1.1638
 7039SOL    HW221688   1.967   6.563   3.991 -0.0296 -0.6992  0.7716
 7040SOL     OW21689   3.344   1.651   2.549  0.3039  0.3782  0.2274
 7040SOL    HW121690   3.364   1.744   2.542 -0.9096  0.7556  1.3656
 7040SOL    HW221691   3.367   1.615   2.464  1.3924  1.5902 -0.0317
 7041SOL     OW21692   1.363   6.082   2.753  0.3098 -0.0159  0.1912
 7041SOL    HW121693   1.306   6.006   2.767 -0.0084  0.0503 -0.6953
 7041SOL    HW221694   1.309   6.157   2.775 -0.1688  0.0844 -1.2292
 7042SOL     OW21695   2.624   5.722   1.858  0.1415 -0.1283 -0.1052
 7042SOL    HW121696   2.572   5.751   1.933  1.7533  0.7965  0.7079
 7042SOL    HW221697   2.566   5.734   1.783 -1.4696 -0.9491  0.9485
 7043SOL     OW21698   2.790   3.548   1.981 -0.1763 -0.0436  0.1124
 7043SOL    HW121699   2.883   3.543   1.958 -0.1725  1.2965 -0.2729
 7043SOL    HW221700   2.753   3.465   1.950  0.7894 -0.3705 -0.2095
 7044SOL     OW21701   7.131   1.457   1.990 -0.6482  0.4471  0.1071
 7044SOL    HW121702   7.224   1.453   2.013 -0.4886 -2.3513 -0.6514
 7044SOL    HW221703   7.089   1.498   2.065  1.2487  2.3883  0.1765
 7045SOL     OW21704   5.192   4.486   1.029  0.1577 -0.0576 -0.0673
 7045SOL    HW121705   5.276   4.491   0.984 -0.2281  0.9877 -0.7228
 7045SOL    HW221706   5.170   4.577   1.050 -0.3725 -0.3974  0.9355
 7046SOL     OW21707   6.514   7.195   3.237 -0.1872 -0.1777  0.0369
 7046SOL    HW121708   6.515   7.289   3.218  0.5498  0.2661  2.0915
 7046SOL    HW221709   6.595   7.162   3.198 -0.6401 -0.0642 -1.0399
 7047SOL     OW21710   7.185   4.786   6.136  0.2003 -0.1625  0.6689
 7047SOL    HW121711   7.267   4.745   6.164  0.2757 -0.3302  0.2055
 7047SOL    HW221712   7.200   4.879   6.146 -0.1865 -0.2432  2.3306
 7048SOL     OW21713   4.597   0.459   2.982  0.0516  0.3478 -0.0294
 7048SOL    HW121714   4.541   0.387   3.011 -1.2473  1.1439 -0.4773
 7048SOL    HW221715   4.675   0.453   3.039  0.6539 -2.2272 -0.9759
 7049SOL     OW21716   1.149   2.378   1.580  0.4648 -0.3256  0.3054
 7049SOL    HW121717   1.213   2.342   1.642  0.5505 -0.3572  0.1998
 7049SOL    HW221718   1.162   2.473   1.585  0.9027 -0.3591 -0.1215
 7050SOL     OW21719   5.129   5.912   3.149  1.1705 -0.0721  0.4507
 7050SOL    HW121720   5.190   5.841   3.126  1.6285 -0.2352  2.0571
 7050SOL    HW221721   5.162   5.988   3.101  1.7943 -0.4943  0.1957
 7051SOL     OW21722   5.769   4.094   3.625  0.4782  0.2961  0.0511
 7051SOL    HW121723   5.832   4.135   3.566  1.7565  0.0536  1.2025
 7051SOL    HW221724   5.684   4.111   3.585  1.1456  2.0532 -0.7043
 7052SOL     OW21725   0.233   4.581   7.065 -0.1010 -1.1119  0.0062
 7052SOL    HW121726   0.194   4.657   7.109 -0.1119 -1.1835  0.1223
 7052SOL    HW221727   0.166   4.551   7.003 -0.3230 -1.3706  0.3637
 7053SOL     OW21728   2.730   4.267   5.251 -0.3312  0.7343  0.6028
 7053SOL    HW121729   2.761   4.236   5.166 -0.7596 -4.2115  1.9674
 7053SOL    HW221730   2.807   4.264   5.307 -1.0250 -1.2830  1.5293
 7054SOL     OW21731   5.408   4.497   1.223 -0.2220  0.1826  0.5079
 7054SOL    HW121732   5.419   4.428   1.156 -0.1165  0.5087  0.1865
 7054SOL    HW221733   5.486   4.551   1.215 -0.2936  0.3277  0.7774
 7055SOL     OW21734   4.179   3.338   4.747  0.0682 -0.2162 -0.1614
 7055SOL    HW121735   4.162   3.310   4.657 -0.6367 -0.8689  0.1632
 7055SOL    HW221736   4.119   3.286   4.800  0.0127  0.6314  0.6356
 7056SOL     OW21737   0.111   2.067   4.844 -0.0244 -0.2010  0.1337
 7056SOL    HW121738   0.117   2.062   4.939 -1.4264  0.3900  0.2753
 7056SOL    HW221739   0.180   2.128   4.818  0.9183 -1.0146  0.6751
 7057SOL     OW21740   1.563   6.265   1.585 -0.2422 -0.2576  0.2957
 7057SOL    HW121741   1.568   6.200   1.655  1.5052 -0.7737 -0.2692
 7057SOL    HW221742   1.604   6.223   1.509 -0.4880  0.9328 -0.5309
 7058SOL     OW21743   0.857   3.713   3.825 -0.6816  0.1928  0.8922
 7058SOL    HW121744   0.897   3.792   3.788  0.3995 -0.8072 -0.1870
 7058SOL    HW221745   0.786   3.745   3.880  1.3769  2.0719  2.6693
 7059SOL     OW21746   4.690   6.467   1.754  0.8493 -0.1058  0.3166
 7059SOL    HW121747   4.770   6.493   1.708  1.0082 -0.3435  0.4574
 7059SOL    HW221748   4.707   6.377   1.782  0.3540 -0.3174 -0.0547
 7060SOL     OW21749   0.739   6.790   0.375  0.0280 -0.2949  0.1167
 7060SOL    HW121750   0.677   6.795   0.448 -1.0800  0.1533 -0.8259
 7060SOL    HW221751   0.714   6.710   0.328 -0.5473  0.4543 -0.8817
 7061SOL     OW21752   4.148   5.274   0.892 -0.1321  0.4941  0.5963
 7061SOL    HW121753   4.099   5.287   0.812  0.3223 -0.2364  0.1810
 7061SOL    HW221754   4.232   5.317   0.877  0.2698 -0.3446  0.3389
 7062SOL     OW21755   6.408   7.356   1.461  0.4360 -0.9761 -0.1297
 7062SOL    HW121756   6.397   7.449   1.445 -2.4761 -1.4951 -1.7139
 7062SOL    HW221757   6.438   7.351   1.552  0.5521  1.4624  0.0377
 7063SOL     OW21758   5.093   0.740   7.388 -0.3075  0.1228  0.0459
 7063SOL    HW121759   5.185   0.712   7.390 -0.2486  0.2773  2.3545
 7063SOL    HW221760   5.089   0.802   7.315  1.2970 -0.2641 -0.4269
 7064SOL     OW21761   2.550   2.888   3.170  0.4592  0.2169  0.2163
 7064SOL    HW121762   2.586   2.941   3.242 -0.0993 -0.0634  0.7157
 7064SOL    HW221763   2.498   2.821   3.215 -1.0291  0.8651 -0.4952
 7065SOL     OW21764   5.636   2.049   3.217  0.4610 -0.1179 -0.0448
 7065SOL    HW121765   5.580   2.022   3.144 -2.1088  0.1642  1.6567
 7065SOL    HW221766   5.672   2.134   3.189  1.7669 -1.2444 -2.0007
 7066SOL     OW21767   4.434   6.946   4.722  0.1947 -0.2307 -0.1021
 7066SOL    HW121768   4.355   6.995   4.744  1.3496  0.9345  1.6821
 7066SOL    HW221769   4.410   6.854   4.735 -0.0195  0.2056  3.9282
 7067SOL     OW21770   6.137   3.886   0.201 -0.0949  0.2625 -0.5889
 7067SOL    HW121771   6.119   3.900   0.108  1.3931 -0.0007 -0.9493
 7067SOL    HW221772   6.188   3.963   0.227 -1.4572  0.8855  0.3161
 7068SOL     OW21773   3.472   4.752   6.406  0.3800  0.0359 -0.1499
 7068SOL    HW121774   3.377   4.746   6.410  0.4418 -0.3304  0.9457
 7068SOL    HW221775   3.489   4.812   6.333 -0.6795  0.1051 -0.3546
 7069SOL     OW21776   2.828   5.961   0.434 -0.4319  0.0540 -0.6928
 7069SOL    HW121777   2.909   6.009   0.450 -0.1682  0.0523 -1.9171
 7069SOL    HW221778   2.828   5.890   0.498 -1.2609  2.1403  1.8042
 7070SOL     OW21779   0.052   6.016   0.916 -0.4239 -0.2983  0.3394
 7070SOL    HW121780  -0.031   5.978   0.888 -1.3171 -0.2468  2.6441
 7070SOL    HW221781   0.034   6.109   0.926 -0.5961 -0.5030  2.3306
 7071SOL     OW21782   3.074   0.433   7.415 -0.0961  0.5157 -0.5492
 7071SOL    HW121783   3.148   0.373   7.423 -0.1023  0.5460 -0.2181
 7071SOL    HW221784   3.068   0.474   7.502  0.4308  1.6015 -1.0090
 7072SOL     OW21785   6.312   1.367   1.049  0.5126  0.4736  0.3562
 7072SOL    HW121786   6.232   1.333   1.088  0.2482  1.4345  0.6634
 7072SOL    HW221787   6.363   1.288   1.027 -0.4016 -0.1398  0.3683
 7073SOL     OW21788   2.584   6.611   2.415 -0.3971 -0.0910 -0.2320
 7073SOL    HW121789   2.628   6.540   2.370 -1.8598 -0.5463 -1.0095
 7073SOL    HW221790   2.542   6.661   2.345 -0.6256  0.6602  0.4271
 7074SOL     OW21791   2.954   2.129   0.253 -0.1258 -0.2769 -0.1781
 7074SOL    HW121792   2.929   2.041   0.227 -0.8845 -0.9593  2.5172
 7074SOL    HW221793   3.039   2.118   0.296 -1.1674 -0.1453  2.0668
 7075SOL     OW21794   5.074   1.764   3.058  0.0045  0.0273 -0.5499
 7075SOL    HW121795   5.120   1.758   2.974 -1.3984 -0.6658 -1.2891
 7075SOL    HW221796   5.018   1.687   3.061 -0.6045  0.4882  0.6383
 7076SOL     OW21797   3.190   5.905   3.006 -0.0587 -0.5948  0.0830
 7076SOL    HW121798   3.142   5.910   3.089 -1.5875  0.0855 -0.7908
 7076SOL    HW221799   3.274   5.945   3.024 -1.4967  2.4433  0.5859
 7077SOL     OW21800   6.652   3.309   5.993  0.3255 -0.0519  0.1824
 7077SOL    HW121801   6.744   3.286   6.009 -0.0409 -1.8897 -0.0771
 7077SOL    HW221802   6.653   3.357   5.910  0.9349 -1.1934 -0.4951
 7078SOL     OW21803   0.051   2.280   3.787 -0.3920  0.0987  0.1888
 7078SOL    HW121804  -0.023   2.234   3.748  1.4328 -2.9873  0.0221
 7078SOL    HW221805   0.069   2.353   3.727 -1.8951 -0.4198 -0.9465
 7079SOL     OW21806   3.711   4.647   5.121  0.0552  0.3563  0.2022
 7079SOL    HW121807   3.670   4.734   5.127 -1.0140 -0.0382 -1.1116
 7079SOL    HW221808   3.793   4.663   5.073 -0.7223  0.4855 -1.1401
 7080SOL     OW21809   1.092   4.920   5.290 -1.0353  0.6374  0.6665
 7080SOL    HW121810   1.106   4.988   5.356  1.1179  0.9773 -0.0798
 7080SOL    HW221811   1.005   4.939   5.255 -1.7679  1.1049  2.5992
 7081SOL     OW21812   0.758   5.887   6.262  0.8198 -0.2427 -0.0244
 7081SOL    HW121813   0.724   5.846   6.182  1.2742 -1.2309  0.2760
 7081SOL    HW221814   0.700   5.962   6.276  1.0616  0.2882 -1.5771
 7082SOL     OW21815   1.186   0.789   6.253  0.2418 -0.1453 -0.2179
 7082SOL    HW121816   1.181   0.697   6.277  0.3357  0.1659  1.0591
 7082SOL    HW221817   1.102   0.807   6.209  0.7536 -1.1351 -1.6913
 7083SOL     OW21818   6.041   3.750   2.233 -0.1616 -0.4601  0.5321
 7083SOL    HW121819   6.086   3.835   2.238 -2.3840  0.8107  0.3398
 7083SOL    HW221820   5.974   3.755   2.301 -0.7456 -1.8008  0.0768
 7084SOL     OW21821   1.995   2.356   3.295 -0.4690 -0.9951  0.1143
 7084SOL    HW121822   1.983   2.270   3.336 -1.7247 -0.9189 -0.0433
 7084SOL    HW221823   2.015   2.336   3.204  1.6113 -1.1498  0.5742
 7085SOL     OW21824   0.947   6.438   2.585 -0.4733  0.3419  0.3507
 7085SOL    HW121825   0.928   6.484   2.666  0.4401  0.3534  0.5726
 7085SOL    HW221826   1.029   6.476   2.554 -1.0860  0.7168 -0.8728
 7086SOL     OW21827   1.855   2.512   4.005  0.0945 -0.0038  0.1960
 7086SOL    HW121828   1.814   2.591   3.972 -3.2008 -1.1670  1.1520
 7086SOL    HW221829   1.824   2.442   3.946 -0.2706 -1.1153  1.6534
 7087SOL     OW21830   3.365   6.426   3.083 -0.1512  0.0041  0.0309
 7087SOL    HW121831   3.278   6.397   3.057 -0.2920  1.7749 -1.6606
 7087SOL    HW221832   3.388   6.495   3.021  2.2022  0.0456  0.8233
 7088SOL     OW21833   4.348   3.669   4.657  1.0760  0.1621 -0.5547
 7088SOL    HW121834   4.328   3.640   4.746  1.8897  0.9793 -0.0846
 7088SOL    HW221835   4.285   3.739   4.640 -1.0373 -1.8755 -1.7732
 7089SOL     OW21836   1.797   3.630   3.747 -0.4668 -0.2620 -0.3809
 7089SOL    HW121837   1.883   3.603   3.778 -0.9110 -1.1685  0.1146
 7089SOL    HW221838   1.750   3.656   3.827 -0.4622  0.8327 -0.7130
 7090SOL     OW21839   2.876   5.499   6.918 -0.0196 -0.0544  0.2001
 7090SOL    HW121840   2.882   5.404   6.912  0.6137  0.0060 -0.2440
 7090SOL    HW221841   2.932   5.522   6.992  1.6338  0.1315 -1.0424
 7091SOL     OW21842   1.530   1.301   0.441 -0.0774  0.4296  0.6225
 7091SOL    HW121843   1.514   1.207   0.431  1.3110  0.2184  0.1157
 7091SOL    HW221844   1.451   1.335   0.483 -0.8931 -0.8412  0.1668
 7092SOL     OW21845   4.713   2.626   3.544  0.7948 -0.3594 -0.2678
 7092SOL    HW121846   4.790   2.646   3.598  1.4864  0.1566 -1.4042
 7092SOL    HW221847   4.747   2.575   3.472  0.1753  0.3558 -1.0904
 7093SOL     OW21848   1.040   7.119   1.790  0.1997 -0.4161 -0.3309
 7093SOL    HW121849   0.963   7.072   1.757 -0.4029 -0.0196  0.4854
 7093SOL    HW221850   1.114   7.078   1.745 -0.6608  1.3826 -3.7609
 7094SOL     OW21851   6.574   1.723   6.813 -0.6847  0.3204  0.8028
 7094SOL    HW121852   6.494   1.689   6.853 -1.5622  0.3074 -0.8641
 7094SOL    HW221853   6.613   1.648   6.768 -0.5861  0.6742  0.2898
 7095SOL     OW21854   5.292   3.648   1.533 -0.5174  0.4605  0.2585
 7095SOL    HW121855   5.197   3.649   1.519 -0.7258 -1.5437  1.1501
 7095SOL    HW221856   5.313   3.556   1.544  1.4014  0.9542  1.0480
 7096SOL     OW21857   1.529   6.408   7.327 -0.2016 -0.0623  0.3107
 7096SOL    HW121858   1.533   6.372   7.416 -0.1018 -0.2133  0.2461
 7096SOL    HW221859   1.512   6.501   7.339 -0.5617 -0.1485  0.4770
 7097SOL     OW21860   0.527   3.329   4.316 -0.4447  0.7304 -0.5471
 7097SOL    HW121861   0.530   3.397   4.384  0.6903 -0.4787  0.6931
 7097SOL    HW221862   0.529   3.377   4.234 -0.6495  2.2275  0.2812
 7098SOL     OW21863   0.954   3.527   2.703  0.1547 -0.6766  0.1235
 7098SOL    HW121864   1.008   3.448   2.706  2.0481  0.5742  0.3293
 7098SOL    HW221865   0.991   3.584   2.770  0.2646  1.2501 -1.4875
 7099SOL     OW21866   3.416   1.168   1.792  0.2829 -0.1599  0.4828
 7099SOL    HW121867   3.331   1.147   1.832  1.0936 -1.3725  1.6859
 7099SOL    HW221868   3.445   1.247   1.838 -0.3035  0.4129 -0.1209
 7100SOL     OW21869   4.189   0.857   3.954 -0.7436  0.0868 -0.3121
 7100SOL    HW121870   4.160   0.766   3.960 -0.1272 -0.1612 -0.9516
 7100SOL    HW221871   4.145   0.891   3.876  0.2026 -0.1261 -0.9600
 7101SOL     OW21872   6.600   2.700   2.094 -0.1328  0.4767 -0.3367
 7101SOL    HW121873   6.610   2.795   2.092  0.1465  0.4495 -0.2763
 7101SOL    HW221874   6.678   2.668   2.141  0.5243  0.1174 -1.6266
 7102SOL     OW21875   5.858   5.528   7.126 -0.2400  0.7523 -0.3514
 7102SOL    HW121876   5.949   5.534   7.097 -0.6929  0.3293 -1.9598
 7102SOL    HW221877   5.816   5.606   7.091 -0.1246  2.0187  2.0791
 7103SOL     OW21878   6.475   1.585   5.025 -0.0683  0.4200  0.1324
 7103SOL    HW121879   6.457   1.559   5.115  0.8523 -1.9097 -0.2689
 7103SOL    HW221880   6.537   1.519   4.993 -0.9710  0.7024 -2.4526
 7104SOL     OW21881   1.364   1.297   1.254  0.6313  0.0332  0.5001
 7104SOL    HW121882   1.405   1.251   1.327 -0.4720  1.1780  1.9037
 7104SOL    HW221883   1.409   1.381   1.251 -0.5303  0.7119  1.0951
 7105SOL     OW21884   5.101   3.093   1.706 -0.3109  0.1573 -0.0320
 7105SOL    HW121885   5.022   3.051   1.740 -0.8875  0.1895 -1.2405
 7105SOL    HW221886   5.156   3.021   1.675  0.7285  0.0524  1.9333
 7106SOL     OW21887   3.794   0.657   6.208  0.4314 -0.1354 -0.6528
 7106SOL    HW121888   3.812   0.652   6.302  0.5348 -1.9073 -0.7342
 7106SOL    HW221889   3.789   0.751   6.190 -0.1942  0.2467  1.2270
 7107SOL     OW21890   3.983   1.547   2.516  0.0547  0.1157 -0.4697
 7107SOL    HW121891   3.893   1.543   2.548  0.3675 -2.5510  0.3321
 7107SOL    HW221892   4.030   1.596   2.584 -0.5614  0.4005 -0.2453
 7108SOL     OW21893   1.620   6.458   6.542  0.3455  0.2957  0.2703
 7108SOL    HW121894   1.649   6.390   6.603 -0.3207 -0.5014 -0.2708
 7108SOL    HW221895   1.557   6.510   6.592 -1.5781 -1.4422 -0.1968
 7109SOL     OW21896   3.317   6.947   2.220 -0.5781 -0.6050 -0.7366
 7109SOL    HW121897   3.257   7.013   2.254  0.3165 -0.5493  0.7981
 7109SOL    HW221898   3.268   6.865   2.225 -1.0807 -0.3294 -1.0296
 7110SOL     OW21899   0.529   5.031   2.882  0.1832 -0.3455 -0.5573
 7110SOL    HW121900   0.615   5.068   2.860  0.4430 -0.4254  0.2915
 7110SOL    HW221901   0.468   5.075   2.823  0.8840 -0.7115 -1.5740
 7111SOL     OW21902   5.562   6.963   5.215 -0.3783  0.4212  0.6013
 7111SOL    HW121903   5.565   6.983   5.121  3.3282 -0.8776  0.2946
 7111SOL    HW221904   5.508   6.884   5.221  0.2778 -0.1442 -0.6322
 7112SOL     OW21905   4.687   0.335   2.345 -0.2993  0.4300  0.6878
 7112SOL    HW121906   4.655   0.346   2.255  1.0407  3.1534  0.4414
 7112SOL    HW221907   4.608   0.323   2.397 -1.1315 -0.7186 -0.7591
 7113SOL     OW21908   1.003   1.473   1.826  0.3335  0.4527  0.2736
 7113SOL    HW121909   1.018   1.447   1.735 -0.2332 -0.6953  0.4828
 7113SOL    HW221910   1.070   1.426   1.876  0.6153  1.0451  0.4542
 7114SOL     OW21911   0.640   1.615   4.096  0.1976  0.2020  0.3026
 7114SOL    HW121912   0.568   1.568   4.138  1.7678 -0.1063  2.8834
 7114SOL    HW221913   0.615   1.707   4.099 -1.1384 -0.0657 -1.1637
 7115SOL     OW21914   5.362   3.282   6.412  0.1947  0.6274 -0.0063
 7115SOL    HW121915   5.396   3.320   6.331 -0.7454  1.6684  0.0655
 7115SOL    HW221916   5.306   3.350   6.449 -4.5514 -1.9703 -1.6452
 7116SOL     OW21917   4.496   0.005   3.946  0.3197 -0.2365  0.3321
 7116SOL    HW121918   4.574  -0.046   3.928  1.7314  2.1295 -0.7501
 7116SOL    HW221919   4.522   0.096   3.929 -2.7199  0.6393 -0.2659
 7117SOL     OW21920   7.421   1.616   4.741 -0.1572  0.2926  0.5339
 7117SOL    HW121921   7.413   1.650   4.652 -0.4256  1.0053  0.8179
 7117SOL    HW221922   7.435   1.522   4.730 -0.0045  0.4023 -0.2625
 7118SOL     OW21923   6.715   0.833   0.189 -0.1154 -0.4069 -0.4612
 7118SOL    HW121924   6.657   0.759   0.205 -0.2233 -0.4158 -0.8843
 7118SOL    HW221925   6.802   0.795   0.186 -0.2833 -0.7034 -1.9103
 7119SOL     OW21926   2.492   6.834   3.421 -0.5328  0.1654  0.0067
 7119SOL    HW121927   2.574   6.790   3.400 -0.8563 -0.3313 -0.2137
 7119SOL    HW221928   2.440   6.829   3.341 -0.3972  1.3571 -0.1819
 7120SOL     OW21929   2.726   5.314   7.359  0.2647  0.3844  0.6578
 7120SOL    HW121930   2.644   5.353   7.328  0.9905  1.1754 -0.3108
 7120SOL    HW221931   2.698   5.246   7.420 -1.2471 -1.0011 -1.4398
 7121SOL     OW21932   3.953   1.742   3.833  0.2207 -0.0776  0.2058
 7121SOL    HW121933   3.948   1.677   3.903  0.5712 -0.4362 -0.0913
 7121SOL    HW221934   4.024   1.800   3.859  0.0135  0.0886  0.3954
 7122SOL     OW21935   4.788   2.325   1.862  0.1556 -0.5485 -0.3340
 7122SOL    HW121936   4.790   2.309   1.767  2.5010 -2.4141 -0.0752
 7122SOL    HW221937   4.805   2.419   1.871 -1.4135 -0.0695 -1.7422
 7123SOL     OW21938   4.935   2.684   4.996  0.2731 -0.0191 -0.2025
 7123SOL    HW121939   4.983   2.625   4.938 -0.9552  0.3605 -1.6524
 7123SOL    HW221940   4.995   2.757   5.010  0.7215 -0.2793 -0.7038
 7124SOL     OW21941   1.494   3.819   1.065  0.0419 -0.0456 -0.1724
 7124SOL    HW121942   1.473   3.838   1.156 -0.6701 -0.6976 -0.1857
 7124SOL    HW221943   1.587   3.836   1.057  0.3578 -1.0827  0.9842
 7125SOL     OW21944   0.691   3.761   3.051  0.0954 -0.5833 -0.5379
 7125SOL    HW121945   0.656   3.769   2.962  0.0020 -0.2615 -0.4758
 7125SOL    HW221946   0.718   3.670   3.059  1.2246 -0.3325 -1.3068
 7126SOL     OW21947   2.538   1.634   3.089 -0.4130  0.2325  0.2016
 7126SOL    HW121948   2.464   1.595   3.042  0.2061  1.0197 -1.5291
 7126SOL    HW221949   2.607   1.568   3.083  0.1868  0.9671 -1.4949
 7127SOL     OW21950   4.314   7.277   5.545 -0.6318 -0.1989 -0.1338
 7127SOL    HW121951   4.300   7.191   5.584 -1.2913  0.4894  1.2121
 7127SOL    HW221952   4.299   7.264   5.452 -2.0436 -1.2747  0.2110
 7128SOL     OW21953   3.472   6.197   1.894 -0.0128  0.3880 -0.5783
 7128SOL    HW121954   3.492   6.116   1.939  0.1790  0.3774 -0.6819
 7128SOL    HW221955   3.435   6.169   1.810 -0.2587  0.4081 -0.4792
 7129SOL     OW21956   6.159   3.055   1.282  0.3135  0.4932 -0.2753
 7129SOL    HW121957   6.067   3.032   1.293  0.5245 -1.3904 -1.8998
 7129SOL    HW221958   6.172   3.059   1.188  2.3508 -1.4684 -0.1649
 7130SOL     OW21959   6.964   4.501   5.315  0.2588 -0.4122  0.2143
 7130SOL    HW121960   7.054   4.477   5.293  0.6246  0.5140  0.6543
 7130SOL    HW221961   6.945   4.576   5.259 -0.1252 -0.4126  0.3425
 7131SOL     OW21962   2.536   1.907   1.165  0.1410 -0.0879 -0.3423
 7131SOL    HW121963   2.605   1.957   1.208  0.1056 -1.2536  1.1616
 7131SOL    HW221964   2.579   1.869   1.089  0.0893  2.3697 -1.6947
 7132SOL     OW21965   4.061   5.994   6.777 -0.2840 -0.1741 -0.1405
 7132SOL    HW121966   4.117   6.009   6.700 -2.3923  1.6364 -1.4748
 7132SOL    HW221967   4.055   6.080   6.819 -0.2795 -0.8430  1.2715
 7133SOL     OW21968   2.032   6.316   6.693  0.2897 -0.4280  0.0037
 7133SOL    HW121969   1.994   6.282   6.774  0.7667  0.7480  0.7601
 7133SOL    HW221970   2.119   6.277   6.689  0.4899 -0.0385  0.3906
 7134SOL     OW21971   1.211   5.268   3.025  0.2631  0.0622  0.2896
 7134SOL    HW121972   1.131   5.256   2.974  0.3864 -0.3747  0.1982
 7134SOL    HW221973   1.188   5.238   3.113 -0.2661  1.7777  0.7852
 7135SOL     OW21974   3.568   3.945   5.864  0.2435  0.5454  0.0071
 7135SOL    HW121975   3.536   3.917   5.779  0.1364  2.4841 -0.6371
 7135SOL    HW221976   3.506   3.906   5.926  0.1019 -0.5685 -0.7939
 7136SOL     OW21977   3.460   1.889   1.443  0.4558  0.1620  0.3731
 7136SOL    HW121978   3.378   1.939   1.445  0.4651  0.1843  0.2368
 7136SOL    HW221979   3.495   1.905   1.355  0.3280 -0.2987  0.2381
 7137SOL     OW21980   0.407   1.335   5.369 -0.5015 -0.3744  0.2910
 7137SOL    HW121981   0.327   1.282   5.377 -1.8329  1.3831 -0.6583
 7137SOL    HW221982   0.406   1.365   5.278  1.5257 -0.6824  0.1326
 7138SOL     OW21983   5.925   6.468   0.045 -0.3808  0.7688  0.2265
 7138SOL    HW121984   5.955   6.400  -0.016 -0.4799  1.0800 -0.1777
 7138SOL    HW221985   5.832   6.477   0.026 -0.4888  0.6159  0.6778
 7139SOL     OW21986   2.087   5.888   5.889 -0.1972  0.3908 -0.0255
 7139SOL    HW121987   2.107   5.917   5.800 -1.0076  1.3239  0.0781
 7139SOL    HW221988   2.171   5.860   5.925  0.1559  0.0955 -1.0440
 7140SOL     OW21989   5.758   7.017   0.328 -0.4797  0.2459 -0.5860
 7140SOL    HW121990   5.728   7.061   0.248  1.4705 -1.5351 -2.4131
 7140SOL    HW221991   5.709   6.935   0.329  0.7242 -0.4875 -0.8972
 7141SOL     OW21992   6.628   4.059   2.522 -0.7456 -0.2044 -0.5086
 7141SOL    HW121993   6.687   4.132   2.501 -1.2297  1.2399  2.5972
 7141SOL    HW221994   6.686   3.984   2.531  0.3817  0.7447  0.4780
 7142SOL     OW21995   6.500   4.295   1.946 -0.1133  0.0146 -0.1708
 7142SOL    HW121996   6.595   4.303   1.958  0.1556  0.0971 -2.0962
 7142SOL    HW221997   6.464   4.370   1.993  0.6491 -0.6277  1.5516
 7143SOL     OW21998   5.333   4.768   2.052  0.1271  0.5052 -0.5090
 7143SOL    HW121999   5.403   4.728   2.104  0.7256  1.5058 -0.5150
 7143SOL    HW222000   5.372   4.777   1.965  0.4484  2.1643 -0.2260
 7144SOL     OW22001   6.505   3.371   2.196  0.3359 -0.2579  0.2341
 7144SOL    HW122002   6.444   3.445   2.197  1.7463  0.9491  1.1410
 7144SOL    HW222003   6.485   3.322   2.276 -1.6654 -1.8395 -1.1422
 7145SOL     OW22004   0.566   5.890   6.561  0.3150  0.0719 -0.3051
 7145SOL    HW122005   0.517   5.967   6.591 -0.4884 -0.7513  0.5572
 7145SOL    HW222006   0.626   5.871   6.633 -0.5388 -0.9874  0.1488
 7146SOL     OW22007   4.985   0.418   5.820 -0.1654 -0.0313  0.1838
 7146SOL    HW122008   4.926   0.403   5.747  1.6787 -0.3310 -1.3408
 7146SOL    HW222009   5.014   0.330   5.846  0.0433  0.1350  0.5253
 7147SOL     OW22010   4.159   5.647   5.803 -0.4092  0.2529  0.6673
 7147SOL    HW122011   4.157   5.742   5.816 -0.5008  0.3212  0.1793
 7147SOL    HW222012   4.171   5.611   5.891  1.4966  0.7824  0.6747
 7148SOL     OW22013   5.046   4.547   2.471 -0.3512 -0.2764 -0.5000
 7148SOL    HW122014   5.125   4.521   2.423 -1.2564 -2.8038 -0.7597
 7148SOL    HW222015   5.076   4.559   2.561  0.5172 -0.1202 -0.7938
 7149SOL     OW22016   0.636   4.508   3.179  0.0046  0.1071 -0.3598
 7149SOL    HW122017   0.630   4.525   3.273 -1.9568 -1.1646 -0.2017
 7149SOL    HW222018   0.669   4.418   3.174  0.0150  0.1411 -0.8897
 7150SOL     OW22019   5.834   3.206   6.462 -0.0382  0.4908 -0.4081
 7150SOL    HW122020   5.915   3.250   6.439  0.1715  0.3879  0.1124
 7150SOL    HW222021   5.771   3.277   6.478  0.2375  0.6010  0.2123
 7151SOL     OW22022   3.012   3.247   0.798 -0.4701  0.6789  0.1043
 7151SOL    HW122023   2.973   3.177   0.746 -0.5772  0.7965  0.0253
 7151SOL    HW222024   2.938   3.302   0.824 -0.6497 -0.2807  1.7637
 7152SOL     OW22025   4.946   6.078   2.203  0.0377 -0.0135  0.1532
 7152SOL    HW122026   4.899   6.098   2.284 -0.4923 -0.7067  0.0320
 7152SOL    HW222027   4.888   6.109   2.134  0.0918 -0.2101  0.0204
 7153SOL     OW22028   2.355   3.365   6.304  0.7559  0.8502 -0.3539
 7153SOL    HW122029   2.279   3.313   6.330  1.1849  0.6833  0.6125
 7153SOL    HW222030   2.427   3.329   6.356  1.6595  0.5011 -1.8173
 7154SOL     OW22031   7.119   2.679   3.282  0.2820  0.5480  0.2861
 7154SOL    HW122032   7.082   2.722   3.359 -1.6976  0.0401 -0.2982
 7154SOL    HW222033   7.094   2.736   3.209  1.7569  0.7987 -0.0570
 7155SOL     OW22034   2.919   3.227   7.230 -0.1083 -0.3755 -0.0717
 7155SOL    HW122035   2.913   3.184   7.315  0.2897 -0.1128  0.0966
 7155SOL    HW222036   3.013   3.241   7.218 -0.2304  0.4495 -0.1147
 7156SOL     OW22037   3.948   5.117   6.030  0.6265  0.3499 -0.3370
 7156SOL    HW122038   3.941   5.119   6.126  1.3553  0.2916 -0.2805
 7156SOL    HW222039   4.007   5.189   6.009  0.9338 -0.0092 -0.7030
 7157SOL     OW22040   0.309   7.289   5.320  0.1137  0.2188  0.9885
 7157SOL    HW122041   0.219   7.321   5.322  0.2547  0.5636  2.0534
 7157SOL    HW222042   0.344   7.321   5.237 -0.5551  0.6035  0.8519
 7158SOL     OW22043   3.345   3.737   0.314 -0.4572  0.4869  0.3200
 7158SOL    HW122044   3.399   3.680   0.259 -2.5522 -1.1864 -0.1446
 7158SOL    HW222045   3.317   3.808   0.255 -0.6984  0.0468 -0.0997
 7159SOL     OW22046   6.536   7.082   5.826  0.2554  0.4744  1.0414
 7159SOL    HW122047   6.488   7.003   5.852 -0.1071  0.4899  0.4243
 7159SOL    HW222048   6.612   7.049   5.778 -0.6535  0.5315 -0.4795
 7160SOL     OW22049   3.034   3.954   5.467  0.0182  0.0157  0.4778
 7160SOL    HW122050   2.974   3.923   5.399 -1.0514  2.0638  0.4276
 7160SOL    HW222051   2.990   3.931   5.549 -1.9122  3.1624  0.4759
 7161SOL     OW22052   4.527   6.148   5.656 -0.1924 -0.2998  0.5863
 7161SOL    HW122053   4.576   6.069   5.679  0.3713 -0.4248 -0.9472
 7161SOL    HW222054   4.437   6.118   5.646 -0.4333 -0.2756  2.3345
 7162SOL     OW22055   4.587   1.800   5.932  0.3599  0.2907 -0.0254
 7162SOL    HW122056   4.681   1.815   5.927  0.1714  1.6737  0.2542
 7162SOL    HW222057   4.564   1.818   6.023 -0.2406  0.4284 -0.1962
 7163SOL     OW22058   2.706   4.664   2.625 -0.4031 -0.1649 -0.1045
 7163SOL    HW122059   2.687   4.749   2.664  1.0190  1.0515 -1.9043
 7163SOL    HW222060   2.707   4.680   2.531  4.1524 -1.0700 -0.4303
 7164SOL     OW22061   4.876   5.004   0.372  0.1836  0.1183  0.5547
 7164SOL    HW122062   4.966   4.993   0.342  1.4579  0.6825  3.8328
 7164SOL    HW222063   4.856   5.096   0.354  0.6964  0.2988  0.8876
 7165SOL     OW22064   5.497   5.368   1.543 -0.0239  0.9121 -0.3293
 7165SOL    HW122065   5.498   5.341   1.635 -0.9968  1.4262 -0.1547
 7165SOL    HW222066   5.502   5.463   1.546 -0.5389  0.9610 -0.7859
 7166SOL     OW22067   0.992   0.778   7.301 -0.2153  0.6809  0.7675
 7166SOL    HW122068   1.016   0.687   7.316 -0.7045  0.2919 -0.6566
 7166SOL    HW222069   1.035   0.826   7.373  0.7236 -0.5547  1.0762
 7167SOL     OW22070   6.772   0.288   1.150  0.5561 -0.0249 -0.3641
 7167SOL    HW122071   6.752   0.195   1.159  0.5156 -0.2602 -2.3916
 7167SOL    HW222072   6.695   0.332   1.186 -0.5016 -0.8343 -1.5310
 7168SOL     OW22073   4.685   0.121   6.441 -0.2111 -0.4869  0.0387
 7168SOL    HW122074   4.740   0.187   6.398 -0.5987  0.1634  0.5194
 7168SOL    HW222075   4.747   0.063   6.485  0.1716 -0.8747 -0.9632
 7169SOL     OW22076   0.529   3.011   7.254  0.8791 -0.4272 -0.4686
 7169SOL    HW122077   0.573   3.092   7.280 -0.1278  0.5133 -1.5494
 7169SOL    HW222078   0.571   2.943   7.305  3.6025  0.3862 -1.4682
 7170SOL     OW22079   1.466   6.915   6.683  0.3687  0.4127 -0.5959
 7170SOL    HW122080   1.477   6.903   6.777 -0.4410  0.8687 -0.4404
 7170SOL    HW222081   1.547   6.880   6.645  1.5034  1.8364  0.3796
 7171SOL     OW22082   0.721   3.036   0.992 -0.2686 -0.8505  0.5095
 7171SOL    HW122083   0.689   2.967   0.934  0.6717 -0.1436 -0.9283
 7171SOL    HW222084   0.789   2.994   1.044 -1.0874 -1.4881  1.0652
 7172SOL     OW22085   3.592   5.135   6.474 -0.2393  0.0195 -0.4533
 7172SOL    HW122086   3.499   5.116   6.461 -0.4428 -0.4766  1.4848
 7172SOL    HW222087   3.610   5.108   6.564  1.3254  1.9770 -0.1175
 7173SOL     OW22088   0.746   6.807   2.569 -0.6115 -0.2035  0.5437
 7173SOL    HW122089   0.803   6.883   2.555 -2.2168  1.2789  1.5756
 7173SOL    HW222090   0.746   6.761   2.485  1.2665  0.3128  0.2321
 7174SOL     OW22091   0.031   5.859   1.292 -0.4079 -0.3008  0.0345
 7174SOL    HW122092  -0.033   5.929   1.288  0.2606  0.2590 -1.2301
 7174SOL    HW222093   0.007   5.799   1.222  0.8117  0.2553 -0.8982
 7175SOL     OW22094   6.025   2.952   5.726  0.5886  0.2852 -0.2794
 7175SOL    HW122095   6.005   2.984   5.814  0.5171 -0.4168 -0.0336
 7175SOL    HW222096   6.016   3.029   5.670 -0.1104  0.5755  0.2189
 7176SOL     OW22097   5.460   2.468   4.388 -0.2246 -0.1144 -0.1984
 7176SOL    HW122098   5.419   2.536   4.442  0.2281  0.2435 -0.3069
 7176SOL    HW222099   5.545   2.504   4.363  0.2817 -0.9706  0.2588
 7177SOL     OW22100   2.063   7.196   0.092  0.8773  0.3377 -0.4177
 7177SOL    HW122101   2.023   7.131   0.150 -0.5943 -1.0154 -2.7432
 7177SOL    HW222102   2.150   7.160   0.074  1.2060  0.5811  0.6183
 7178SOL     OW22103   3.701   4.237   3.980 -0.0731 -0.6271 -0.2496
 7178SOL    HW122104   3.714   4.332   3.973  1.1302 -0.7619 -0.1325
 7178SOL    HW222105   3.688   4.208   3.890 -0.7659 -0.3122 -0.2525
 7179SOL     OW22106   0.446   6.986   2.501  0.1912  0.1917 -0.5495
 7179SOL    HW122107   0.426   6.923   2.571 -0.0495  0.4178 -0.4123
 7179SOL    HW222108   0.470   6.932   2.426  1.1609 -0.0451 -0.0861
 7180SOL     OW22109   2.748   2.728   6.779 -0.5572  0.3976  0.6926
 7180SOL    HW122110   2.709   2.708   6.694 -0.0351  2.1832 -0.0034
 7180SOL    HW222111   2.677   2.717   6.842 -1.8173  2.0534 -0.3576
 7181SOL     OW22112   4.175   4.643   0.832  0.5275  0.5118 -0.0755
 7181SOL    HW122113   4.221   4.684   0.905  0.0784 -0.8523  1.0150
 7181SOL    HW222114   4.238   4.645   0.760  0.2004  3.9832 -0.4565
 7182SOL     OW22115   3.519   2.125   0.689 -0.5100  0.2139 -0.9451
 7182SOL    HW122116   3.432   2.115   0.649 -0.0860  1.9435 -2.4277
 7182SOL    HW222117   3.567   2.181   0.628  1.9628 -1.3884 -0.5996
 7183SOL     OW22118   1.721   4.474   6.793  0.1647 -0.1753 -0.1597
 7183SOL    HW122119   1.763   4.546   6.842  1.3760 -1.2353  0.4194
 7183SOL    HW222120   1.790   4.441   6.735  0.4776 -2.5362  1.4352
 7184SOL     OW22121   5.682   5.599   0.060 -0.2863 -0.4404 -0.8857
 7184SOL    HW122122   5.617   5.641   0.004 -1.5219  0.2973  0.9901
 7184SOL    HW222123   5.716   5.527   0.008 -1.7120 -0.0876 -2.3839
 7185SOL     OW22124   5.788   7.436   0.870 -0.2358 -0.8093 -0.3213
 7185SOL    HW122125   5.697   7.407   0.864 -0.2405 -0.9793  0.4280
 7185SOL    HW222126   5.839   7.355   0.872 -0.1074 -0.7256 -0.1865
 7186SOL     OW22127   1.154   3.899   1.896 -0.1335  0.1017 -0.4975
 7186SOL    HW122128   1.148   3.929   1.806 -1.4332  0.4973 -0.3018
 7186SOL    HW222129   1.064   3.901   1.928  0.3196  0.1088  0.8549
 7187SOL     OW22130   1.056   3.307   4.424  0.3626 -0.0499  0.3205
 7187SOL    HW122131   1.120   3.281   4.358  0.0459 -1.9900  0.6993
 7187SOL    HW222132   1.109   3.327   4.501  0.6152  0.2589  0.0728
 7188SOL     OW22133   3.693   7.217   4.739  0.6728 -0.4695  0.0021
 7188SOL    HW122134   3.665   7.184   4.653 -2.0746 -0.2439  0.7299
 7188SOL    HW222135   3.682   7.312   4.733 -1.7806 -0.6180  1.2711
 7189SOL     OW22136   5.753   7.123   1.564  0.2442 -0.3452  0.0087
 7189SOL    HW122137   5.685   7.131   1.631  0.4732 -1.8199  0.4681
 7189SOL    HW222138   5.709   7.146   1.482 -0.3359  0.4048  0.5250
 7190SOL     OW22139   4.153   1.048   6.272  0.8261 -0.0070 -0.1852
 7190SOL    HW122140   4.227   0.991   6.292  1.0449 -0.0486 -1.0623
 7190SOL    HW222141   4.192   1.121   6.224  0.3761  0.2675 -0.1364
 7191SOL     OW22142   4.754   6.869   1.744  0.2195  0.3488  0.2016
 7191SOL    HW122143   4.732   6.816   1.821  0.6197 -1.0518 -0.6012
 7191SOL    HW222144   4.814   6.814   1.694 -0.5033  0.9715 -1.4258
 7192SOL     OW22145   4.644   2.309   0.410  0.5297 -0.0790  0.0781
 7192SOL    HW122146   4.576   2.288   0.474 -0.3446 -2.7023 -1.5689
 7192SOL    HW222147   4.662   2.402   0.424 -0.7726 -0.1574  2.9968
 7193SOL     OW22148   5.351   1.617   3.771  0.0900 -0.3389  0.7198
 7193SOL    HW122149   5.386   1.704   3.749 -0.6177 -0.1018  0.4967
 7193SOL    HW222150   5.398   1.557   3.714  1.2744 -0.2183  1.5528
 7194SOL     OW22151   7.140   2.327   2.190  0.6269 -0.6584 -0.3449
 7194SOL    HW122152   7.138   2.389   2.117  0.5076 -2.6671 -2.1137
 7194SOL    HW222153   7.164   2.381   2.265  0.4551  1.5469 -1.7779
 7195SOL     OW22154   4.018   0.610   1.441  0.5315 -0.3712  0.3208
 7195SOL    HW122155   4.088   0.664   1.401  2.6327 -2.3482  1.1057
 7195SOL    HW222156   4.003   0.651   1.526  0.6861  0.1219  0.1187
 7196SOL     OW22157   3.104   1.628   0.173  0.3799  0.0885  0.3159
 7196SOL    HW122158   3.191   1.628   0.134  0.3919  1.1019  0.3066
 7196SOL    HW222159   3.120   1.626   0.267  0.3935 -0.4101  0.3054
 7197SOL     OW22160   7.414   1.334   6.548 -0.0638 -0.0975 -0.0940
 7197SOL    HW122161   7.349   1.320   6.616 -1.5872 -0.9442 -1.6300
 7197SOL    HW222162   7.386   1.414   6.504  1.1059  0.6389  0.4699
 7198SOL     OW22163   0.142   6.995   6.637 -0.3961  0.3952  0.8969
 7198SOL    HW122164   0.102   6.982   6.723  0.0163 -0.6247  0.9559
 7198SOL    HW222165   0.194   7.075   6.647 -0.1502  0.1525  1.6859
 7199SOL     OW22166   7.230   5.586   2.020 -0.3676 -0.0886 -0.5819
 7199SOL    HW122167   7.189   5.614   1.938 -0.3551  2.4367  0.1715
 7199SOL    HW222168   7.207   5.655   2.083  1.1092 -1.0130  1.0673
 7200SOL     OW22169   2.812   2.838   1.895 -0.4201  0.5862  0.2808
 7200SOL    HW122170   2.721   2.829   1.868  0.5757  0.6673 -3.7928
 7200SOL    HW222171   2.827   2.932   1.901 -0.9106  0.5667  2.5444
 7201SOL     OW22172   4.253   1.973   2.923 -0.1271  0.0509 -0.3441
 7201SOL    HW122173   4.331   1.931   2.961 -0.5094 -0.3536  0.0094
 7201SOL    HW222174   4.244   2.055   2.971 -0.4919 -0.3666  0.3129
 7202SOL     OW22175   6.292   7.293   6.925 -0.3488 -0.1861  0.3168
 7202SOL    HW122176   6.387   7.304   6.931 -0.0228 -2.5933  0.5766
 7202SOL    HW222177   6.268   7.338   6.844  0.8086  1.3929  0.7946
 7203SOL     OW22178   5.369   5.860   5.731  0.0139  0.6938  0.2046
 7203SOL    HW122179   5.374   5.914   5.652 -0.1369  2.4653  1.3384
 7203SOL    HW222180   5.276   5.862   5.755  0.0871  0.3287  0.5218
 7204SOL     OW22181   0.648   0.680   5.849 -0.3113 -0.3637 -0.1679
 7204SOL    HW122182   0.556   0.654   5.838 -0.4516 -0.0962  0.3383
 7204SOL    HW222183   0.673   0.718   5.765 -1.1208  0.9616  0.1750
 7205SOL     OW22184   3.671   1.584   6.536  0.2388 -0.0099 -0.5126
 7205SOL    HW122185   3.688   1.491   6.522 -1.0476 -0.5356  1.0833
 7205SOL    HW222186   3.731   1.610   6.605  1.2195  0.6133 -1.5577
 7206SOL     OW22187   2.951   3.843   3.082 -0.1472 -0.4000 -0.0502
 7206SOL    HW122188   2.897   3.790   3.141 -1.2901 -0.6104 -1.2529
 7206SOL    HW222189   2.978   3.918   3.135 -2.2010  0.0698  0.4254
 7207SOL     OW22190   3.983   4.474   0.005 -0.9765  0.5217  0.0175
 7207SOL    HW122191   3.974   4.567  -0.014  0.0638  0.7286  0.4482
 7207SOL    HW222192   3.893   4.441   0.009 -1.3270  1.3034 -1.0881
 7208SOL     OW22193   6.706   0.601   7.442 -0.1949  0.1360 -0.6981
 7208SOL    HW122194   6.771   0.539   7.477 -0.5133  0.6963  0.9629
 7208SOL    HW222195   6.625   0.551   7.437 -0.1250  0.0249 -0.7251
 7209SOL     OW22196   0.041   6.803   3.096  0.3589 -0.0315 -0.5012
 7209SOL    HW122197  -0.014   6.746   3.043 -0.1816  1.1167 -1.2187
 7209SOL    HW222198   0.035   6.889   3.054  3.1435  0.0475 -0.9531
 7210SOL     OW22199   6.709   1.493   1.582 -0.2239 -0.7907  0.2683
 7210SOL    HW122200   6.662   1.420   1.620  0.1099 -0.6003  1.0579
 7210SOL    HW222201   6.788   1.454   1.545  0.3763 -0.7217  1.4467
 7211SOL     OW22202   3.114   1.108   0.584  0.1894  0.3217  0.2172
 7211SOL    HW122203   3.164   1.143   0.658  1.3281  0.8796 -0.7809
 7211SOL    HW222204   3.055   1.179   0.559  1.6410  1.1210 -1.0356
 7212SOL     OW22205   2.079   0.657   5.336  0.5306 -0.0706  0.1836
 7212SOL    HW122206   2.025   0.612   5.271  2.2157 -1.4023 -0.3469
 7212SOL    HW222207   2.060   0.611   5.418  1.3051 -0.9785 -0.1253
 7213SOL     OW22208   1.258   5.483   2.865  0.2440 -0.0011 -0.1104
 7213SOL    HW122209   1.246   5.396   2.903 -0.6153  0.5941  1.0310
 7213SOL    HW222210   1.171   5.523   2.866  1.0000  1.8306  1.8537
 7214SOL     OW22211   2.506   5.221   4.203  0.6495 -0.6666  0.1381
 7214SOL    HW122212   2.522   5.151   4.266  0.2837  0.2980  1.3399
 7214SOL    HW222213   2.570   5.288   4.224  0.3846 -0.2373 -0.3906
 7215SOL     OW22214   5.412   2.941   0.663 -0.4904  0.4004  0.1302
 7215SOL    HW122215   5.471   2.900   0.599 -0.2429 -0.7856  1.0730
 7215SOL    HW222216   5.432   3.034   0.659  0.6855  0.1411 -0.3376
 7216SOL     OW22217   4.346   2.346   6.245 -0.5863  0.1221  0.3873
 7216SOL    HW122218   4.436   2.338   6.214 -0.7660  3.2250 -1.3207
 7216SOL    HW222219   4.354   2.368   6.338  0.3489 -0.1495  0.3800
 7217SOL     OW22220   3.394   4.859   6.828 -0.7073  0.0511  0.4151
 7217SOL    HW122221   3.432   4.771   6.820 -0.8436  0.1015 -1.0031
 7217SOL    HW222222   3.300   4.844   6.839 -0.3502 -0.1001  4.5715
 7218SOL     OW22223   6.463   5.505   3.817  0.3999  0.4626 -0.8289
 7218SOL    HW122224   6.371   5.493   3.839  0.3706  3.6516  1.5475
 7218SOL    HW222225   6.462   5.571   3.747  0.8757  0.7058 -0.6098
 7219SOL     OW22226   6.480   0.705   5.046  0.5376  0.6755 -0.3500
 7219SOL    HW122227   6.464   0.687   5.139  0.4835 -0.4058 -0.5463
 7219SOL    HW222228   6.476   0.800   5.039 -0.0235  0.7519  0.6564
 7220SOL     OW22229   1.775   4.112   2.895 -0.0341  0.1508  0.1571
 7220SOL    HW122230   1.696   4.089   2.846 -0.7800 -0.7990  1.7144
 7220SOL    HW222231   1.805   4.028   2.931  0.5466  0.7989  1.2022
 7221SOL     OW22232   0.444   5.392   6.181 -0.1281 -0.4333  0.3462
 7221SOL    HW122233   0.502   5.326   6.143 -0.1265 -0.9947  1.2869
 7221SOL    HW222234   0.360   5.378   6.139 -0.2162 -1.2743  0.7839
 7222SOL     OW22235   4.205   6.822   2.906  0.5755 -0.5446 -0.4846
 7222SOL    HW122236   4.141   6.759   2.872 -0.1112 -0.6217  0.8812
 7222SOL    HW222237   4.209   6.804   3.000 -1.4811  2.9715  0.4356
 7223SOL     OW22238   2.128   2.216   4.163  0.1701  0.0846 -0.3565
 7223SOL    HW122239   2.174   2.132   4.158 -2.5921 -1.7572  1.9648
 7223SOL    HW222240   2.164   2.259   4.240  1.0359  0.7201 -1.0970
 7224SOL     OW22241   4.135   0.331   5.861  0.2060 -0.2892 -0.4871
 7224SOL    HW122242   4.086   0.399   5.906 -0.5666 -0.8665 -0.4486
 7224SOL    HW222243   4.219   0.372   5.840  0.5818  0.0013  1.4387
 7225SOL     OW22244   1.520   1.686   6.780  0.1070 -0.1107 -0.6381
 7225SOL    HW122245   1.556   1.640   6.705  0.3927  0.5955 -0.9421
 7225SOL    HW222246   1.451   1.741   6.744 -1.0068 -1.1357 -0.1182
 7226SOL     OW22247   1.539   7.088   1.196  0.5166  0.3330 -0.1031
 7226SOL    HW122248   1.535   7.122   1.286 -0.7300 -0.3455  0.1254
 7226SOL    HW222249   1.610   7.024   1.198  0.7182  0.5605  0.3034
 7227SOL     OW22250   7.164   6.331   6.262  0.5644  0.5148  0.6751
 7227SOL    HW122251   7.167   6.235   6.261 -1.4637  0.3909  1.8360
 7227SOL    HW222252   7.191   6.355   6.350  0.9609  1.0089  0.4219
 7228SOL     OW22253   5.586   4.755   4.164 -0.2373 -0.2024 -0.1285
 7228SOL    HW122254   5.585   4.839   4.119 -1.5761  0.0703  0.3766
 7228SOL    HW222255   5.557   4.692   4.098 -4.6948  0.5200  0.8078
 7229SOL     OW22256   3.361   5.106   6.972 -0.2328  0.1320  0.4516
 7229SOL    HW122257   3.367   5.021   6.929 -0.1778  0.0247  0.6722
 7229SOL    HW222258   3.372   5.169   6.901  0.0892 -0.0463  0.3415
 7230SOL     OW22259   4.570   2.017   2.498  0.4103  0.2705 -0.2025
 7230SOL    HW122260   4.557   2.080   2.569  1.0977  0.4699 -0.2561
 7230SOL    HW222261   4.607   2.068   2.426  0.8371 -0.1671 -0.2951
 7231SOL     OW22262   6.979   4.545   6.261 -0.0680  0.3602  0.5799
 7231SOL    HW122263   7.016   4.555   6.174 -0.5385  0.0669  0.3386
 7231SOL    HW222264   6.931   4.462   6.258  0.7340 -0.1528  1.4200
 7232SOL     OW22265   2.631   3.399   5.108  0.6617 -0.2031 -0.1871
 7232SOL    HW122266   2.668   3.336   5.170  0.4661  0.4491  0.6172
 7232SOL    HW222267   2.654   3.485   5.145  0.1018  0.2026 -0.7598
 7233SOL     OW22268   0.044   3.863   1.163 -0.6684 -0.1403  0.0387
 7233SOL    HW122269   0.095   3.903   1.234 -2.1746  2.3594 -0.1699
 7233SOL    HW222270   0.108   3.848   1.094  0.0020  2.4015 -0.0150
 7234SOL     OW22271   5.959   5.219   2.327  0.6030  0.4612 -0.0793
 7234SOL    HW122272   5.945   5.287   2.393  2.3325  2.4513 -1.6063
 7234SOL    HW222273   5.968   5.138   2.377 -2.0460  1.1906  1.7944
 7235SOL     OW22274   6.889   1.261   3.863  0.3884  0.0655 -0.1382
 7235SOL    HW122275   6.975   1.240   3.825  0.4627  1.1375 -0.6034
 7235SOL    HW222276   6.895   1.353   3.886 -1.1833  0.6380 -1.7489
 7236SOL     OW22277   1.844   4.627   2.754 -0.2702 -0.2110  0.3629
 7236SOL    HW122278   1.764   4.592   2.716 -0.0427 -0.1723 -0.1588
 7236SOL    HW222279   1.908   4.556   2.744  0.3158  0.4969 -1.1042
 7237SOL     OW22280   0.767   1.180   3.980  0.0843 -0.2196  0.1477
 7237SOL    HW122281   0.779   1.118   3.908 -2.1787 -0.5969  0.0193
 7237SOL    HW222282   0.852   1.222   3.990  1.0091 -1.6096 -1.3819
 7238SOL     OW22283   6.821   1.725   4.867 -0.3938  0.3864  0.0269
 7238SOL    HW122284   6.811   1.760   4.956  3.2521 -0.2336  0.8273
 7238SOL    HW222285   6.792   1.634   4.874  0.8960  0.0159  0.9311
 7239SOL     OW22286   0.710   3.731   3.510  0.4596  0.0916  0.2277
 7239SOL    HW122287   0.661   3.778   3.577  0.3221 -1.9051  1.6215
 7239SOL    HW222288   0.645   3.707   3.444  0.2741  0.6232  0.2192
 7240SOL     OW22289   4.950   2.030   5.034 -1.0280  0.7082 -0.0610
 7240SOL    HW122290   5.029   1.986   5.065 -1.9963 -0.8762  0.2586
 7240SOL    HW222291   4.932   2.097   5.100 -2.1841 -1.5820  2.1125
 7241SOL     OW22292   0.260   0.599   4.517  0.2217  0.0671 -0.2483
 7241SOL    HW122293   0.296   0.635   4.437 -0.6236  0.4374 -0.4640
 7241SOL    HW222294   0.285   0.661   4.585  1.7416 -0.7093 -0.0444
 7242SOL     OW22295   3.503   3.737   0.017  0.0833  0.0453 -0.5956
 7242SOL    HW122296   3.566   3.779   0.076 -0.4192  2.6757 -1.7899
 7242SOL    HW222297   3.557   3.699  -0.052  0.4951  3.0779 -2.1177
 7243SOL     OW22298   2.228   2.094   6.948 -0.2352 -0.3180  0.5103
 7243SOL    HW122299   2.181   2.053   7.020  0.4326  0.1299  1.2112
 7243SOL    HW222300   2.313   2.050   6.947 -0.1147 -0.0801  0.2129
 7244SOL     OW22301   6.141   1.262   6.820  0.4301 -0.3194  0.0694
 7244SOL    HW122302   6.154   1.186   6.763 -0.2395  0.6775 -1.4638
 7244SOL    HW222303   6.220   1.314   6.808  0.6299 -0.4675  0.6779
 7245SOL     OW22304   5.838   3.930   4.319 -0.6071 -0.2913 -0.0819
 7245SOL    HW122305   5.799   3.964   4.239  1.5105 -1.8219 -1.9003
 7245SOL    HW222306   5.772   3.871   4.355 -1.0635 -0.7026 -1.5181
 7246SOL     OW22307   6.768   0.672   3.088 -0.1511 -0.0426 -0.7001
 7246SOL    HW122308   6.731   0.699   3.172 -0.0855 -0.8680 -0.3990
 7246SOL    HW222309   6.848   0.624   3.110  1.0504  1.5619 -1.3327
 7247SOL     OW22310   4.388   0.542   5.332 -0.0456 -0.4373 -0.1847
 7247SOL    HW122311   4.322   0.569   5.395 -0.8326  0.4467 -1.3431
 7247SOL    HW222312   4.414   0.623   5.287 -1.1158 -1.2822 -2.4867
 7248SOL     OW22313   1.727   6.180   4.958  0.0888  0.8342 -0.3487
 7248SOL    HW122314   1.632   6.188   4.951 -0.2838 -1.3820  1.1794
 7248SOL    HW222315   1.743   6.086   4.967  2.4060  1.1854 -0.1345
 7249SOL     OW22316   1.659   6.761   0.953  0.4261  0.2016  0.5165
 7249SOL    HW122317   1.575   6.715   0.942  0.9384 -0.3339 -1.5128
 7249SOL    HW222318   1.723   6.706   0.908  1.5655  1.4846  0.5022
 7250SOL     OW22319   2.687   3.421   3.031 -0.2841  0.3906  0.1818
 7250SOL    HW122320   2.725   3.357   2.970  0.7887  0.7086  0.5003
 7250SOL    HW222321   2.613   3.458   2.983  0.3689  0.4241 -0.8355
 7251SOL     OW22322   1.760   4.919   6.673 -0.8179  0.1218  0.0276
 7251SOL    HW122323   1.822   4.851   6.646  0.6359  1.2803  0.3009
 7251SOL    HW222324   1.708   4.936   6.595  1.1927  1.1756 -1.1643
 7252SOL     OW22325   0.020   3.407   0.707 -0.1814  0.4890  0.3016
 7252SOL    HW122326   0.001   3.435   0.617 -1.0590  0.9517  0.6255
 7252SOL    HW222327   0.043   3.487   0.754 -1.1287  0.4646  0.8324
 7253SOL     OW22328   2.832   1.455   3.757  0.0172  0.2742  0.0159
 7253SOL    HW122329   2.860   1.439   3.667 -0.5613 -0.9158  0.0166
 7253SOL    HW222330   2.793   1.542   3.756 -1.9115 -0.5510 -1.3848
 7254SOL     OW22331   0.223   5.865   2.832 -0.0058  0.2966 -0.4472
 7254SOL    HW122332   0.311   5.882   2.864 -0.2536 -0.9021  0.9928
 7254SOL    HW222333   0.223   5.771   2.811 -1.2540 -0.0142  0.7748
 7255SOL     OW22334   6.558   4.189   7.222  0.3103  0.5336 -0.0243
 7255SOL    HW122335   6.604   4.149   7.148  0.9293  0.9744  0.1112
 7255SOL    HW222336   6.468   4.200   7.192  0.7888  1.7011 -1.1204
 7256SOL     OW22337   1.549   7.038   4.465  0.1853  0.6401 -0.1355
 7256SOL    HW122338   1.617   6.977   4.493  0.7575  0.0889 -2.4436
 7256SOL    HW222339   1.478   7.026   4.527  0.4314 -2.1356 -0.2832
 7257SOL     OW22340   3.870   3.523   1.688  0.1480 -0.7881 -0.2175
 7257SOL    HW122341   3.801   3.459   1.672 -0.5303 -0.2199  0.3403
 7257SOL    HW222342   3.888   3.516   1.782  0.3293 -0.4161 -0.2222
 7258SOL     OW22343   1.801   1.418   3.070 -0.4285 -0.2870 -0.3397
 7258SOL    HW122344   1.828   1.499   3.115  0.2353 -0.3940 -0.5409
 7258SOL    HW222345   1.883   1.377   3.044 -0.7610 -1.0900 -0.1342
 7259SOL     OW22346   2.516   6.485   5.534 -0.0719 -0.0214 -0.1896
 7259SOL    HW122347   2.494   6.438   5.453 -1.3366 -0.8311  0.5829
 7259SOL    HW222348   2.462   6.564   5.532 -0.6747 -0.4127  0.1940
 7260SOL     OW22349   2.674   0.319   2.960 -0.0846 -0.1643 -0.2376
 7260SOL    HW122350   2.703   0.245   2.907  0.9833  0.5298 -0.6575
 7260SOL    HW222351   2.754   0.354   2.998 -0.8112 -0.7026  1.9774
 7261SOL     OW22352   4.673   6.534   5.629 -0.0542 -0.3896  0.1086
 7261SOL    HW122353   4.585   6.548   5.592  0.0362 -2.5180 -1.1151
 7261SOL    HW222354   4.665   6.452   5.677  1.3224 -0.7669 -0.2692
 7262SOL     OW22355   0.672   2.093   4.958  0.1489  0.1700 -0.4491
 7262SOL    HW122356   0.638   2.083   5.047 -1.8589  1.1286 -1.0355
 7262SOL    HW222357   0.670   2.187   4.942  0.8588  0.0388 -1.3716
 7263SOL     OW22358   1.297   1.033   2.348  0.5256  0.0358 -0.0958
 7263SOL    HW122359   1.204   1.012   2.351  0.3471  0.8214  0.1393
 7263SOL    HW222360   1.319   1.036   2.255  0.4678 -0.7879 -0.1372
 7264SOL     OW22361   1.507   4.884   3.248  0.0409 -0.5641  0.4221
 7264SOL    HW122362   1.502   4.856   3.156 -1.7439 -2.7879  1.1058
 7264SOL    HW222363   1.477   4.975   3.246 -0.0760 -0.5975 -1.1812
 7265SOL     OW22364   7.073   6.002   2.371 -0.1693  0.1284  0.3427
 7265SOL    HW122365   7.099   5.912   2.351 -0.2554 -0.4029  2.3607
 7265SOL    HW222366   6.980   5.996   2.395 -0.2755  0.8228  0.1393
 7266SOL     OW22367   7.153   0.774   2.881 -0.5517  0.4994  0.0604
 7266SOL    HW122368   7.208   0.779   2.803  0.5767 -1.3221  0.6690
 7266SOL    HW222369   7.097   0.852   2.876  0.2118  0.9864 -1.9878
 7267SOL     OW22370   4.909   1.799   1.909  0.3265  0.4601  0.4064
 7267SOL    HW122371   4.888   1.717   1.864  1.2215 -0.1853  1.1378
 7267SOL    HW222372   4.830   1.852   1.899  0.3153  0.1649 -1.5013
 7268SOL     OW22373   1.478   1.965   5.565  0.4733 -0.0423 -0.2190
 7268SOL    HW122374   1.386   1.951   5.588  0.5715  0.8330  0.8306
 7268SOL    HW222375   1.508   1.881   5.532 -0.3476 -0.7293  0.7169
 7269SOL     OW22376   2.247   6.371   1.127 -0.1039  0.0387 -0.7803
 7269SOL    HW122377   2.178   6.373   1.061  0.9834  1.5516 -1.9606
 7269SOL    HW222378   2.264   6.279   1.142 -2.0998 -0.3705 -0.7261
 7270SOL     OW22379   2.849   0.070   0.823  0.2042  0.0651  0.5416
 7270SOL    HW122380   2.765   0.053   0.780  0.7612 -0.6345 -0.3135
 7270SOL    HW222381   2.830   0.140   0.886 -0.7987  0.6245 -0.3463
 7271SOL     OW22382   4.604   5.592   4.284 -0.3576 -0.5531 -0.5479
 7271SOL    HW122383   4.573   5.603   4.374 -0.6752  0.0977 -0.7284
 7271SOL    HW222384   4.662   5.516   4.288  0.5489  0.1572  0.4357
 7272SOL     OW22385   3.436   5.000   3.366 -0.5839 -0.0664  0.1376
 7272SOL    HW122386   3.385   4.925   3.335 -0.8110  0.1022  0.0988
 7272SOL    HW222387   3.483   4.967   3.442 -2.7374  0.4222  1.7943
 7273SOL     OW22388   1.712   2.927   1.621  0.1139 -0.3365  0.0332
 7273SOL    HW122389   1.748   2.917   1.709  1.2558  1.1167 -0.2173
 7273SOL    HW222390   1.701   2.838   1.589 -2.7524 -1.0441  2.5268
 7274SOL     OW22391   6.035   3.567   1.118  0.3250 -0.0822 -0.0286
 7274SOL    HW122392   6.016   3.534   1.029  1.2899 -2.2168  0.4849
 7274SOL    HW222393   5.951   3.601   1.149 -0.7600 -1.9075 -0.7498
 7275SOL     OW22394   3.959   4.713   3.570 -0.1486 -0.0690  0.5376
 7275SOL    HW122395   3.909   4.662   3.506 -2.0844 -0.5420  2.3020
 7275SOL    HW222396   4.043   4.668   3.578  1.0215  1.1583 -3.0542
 7276SOL     OW22397   5.418   1.511   6.908  0.7222  0.1378 -0.1623
 7276SOL    HW122398   5.395   1.570   6.980 -2.2988  0.9618 -1.5920
 7276SOL    HW222399   5.480   1.561   6.855  0.6064  0.7877  0.2973
 7277SOL     OW22400   7.299   5.223   4.261  0.2390 -0.2932 -0.1221
 7277SOL    HW122401   7.366   5.278   4.303  0.4909 -0.4419 -0.3234
 7277SOL    HW222402   7.216   5.255   4.296  0.3973  0.0970 -0.1020
 7278SOL     OW22403   0.178   5.656   3.109 -0.2556 -0.4320 -0.5887
 7278SOL    HW122404   0.209   5.639   3.020 -1.1795 -1.2086 -0.7794
 7278SOL    HW222405   0.175   5.569   3.150  1.2690  0.0266  0.5990
 7279SOL     OW22406   4.352   6.328   2.577  0.2166  0.5128 -0.2776
 7279SOL    HW122407   4.422   6.388   2.551  0.5595  0.0044 -0.5535
 7279SOL    HW222408   4.343   6.340   2.672 -0.1733  1.4669 -0.4286
 7280SOL     OW22409   3.156   4.162   5.116 -0.1366 -0.1486 -0.0086
 7280SOL    HW122410   3.155   4.243   5.065 -0.1453 -1.2206 -1.7911
 7280SOL    HW222411   3.169   4.093   5.052  0.2431 -1.5595  1.5050
 7281SOL     OW22412   4.269   3.901   2.452  0.6012  0.4294 -0.3220
 7281SOL    HW122413   4.250   3.812   2.484 -0.9923  0.3387 -1.4098
 7281SOL    HW222414   4.358   3.919   2.484 -0.0191 -0.4996  2.1826
 7282SOL     OW22415   1.115   2.677   5.698  0.3387  0.0487  0.5104
 7282SOL    HW122416   1.202   2.698   5.731  0.7076 -0.4252 -0.1398
 7282SOL    HW222417   1.131   2.633   5.615 -0.5886  3.0003 -1.3819
 7283SOL     OW22418   5.391   3.737   4.450 -0.2038  0.4032  0.2384
 7283SOL    HW122419   5.336   3.675   4.401  0.7885 -0.3112 -0.0150
 7283SOL    HW222420   5.346   3.821   4.442 -0.8022  0.0103 -0.6921
 7284SOL     OW22421   1.810   1.101   2.820  0.6811 -0.2511  0.1916
 7284SOL    HW122422   1.718   1.076   2.823  1.0261 -1.4998  0.8178
 7284SOL    HW222423   1.810   1.183   2.769 -0.9648  0.8195  1.7571
 7285SOL     OW22424   2.094   6.628   0.782  0.0732 -0.0056 -0.4066
 7285SOL    HW122425   2.017   6.579   0.811  0.9803 -1.8819 -1.0149
 7285SOL    HW222426   2.058   6.708   0.743 -1.4105  0.2655  1.3800
 7286SOL     OW22427   2.016   5.537   4.668  0.0095 -0.2119  0.1407
 7286SOL    HW122428   1.964   5.564   4.744 -0.1791  1.1773 -0.4595
 7286SOL    HW222429   1.953   5.498   4.608 -0.1153  0.2348 -0.0177
 7287SOL     OW22430   6.611   4.310   4.731 -0.2899 -0.4380 -0.0952
 7287SOL    HW122431   6.635   4.236   4.787 -0.6565  0.2776  1.0464
 7287SOL    HW222432   6.679   4.313   4.665  0.1758 -1.3015  0.3259
 7288SOL     OW22433   3.470   0.296   0.264  0.0575 -0.1646  0.0460
 7288SOL    HW122434   3.490   0.214   0.310 -1.0542 -0.5173 -0.0674
 7288SOL    HW222435   3.421   0.348   0.327 -1.7166 -0.7592 -0.7575
 7289SOL     OW22436   2.048   6.713   3.670 -0.0895  0.0076  0.3264
 7289SOL    HW122437   2.099   6.666   3.605 -0.5340 -0.4578  0.3037
 7289SOL    HW222438   2.030   6.647   3.738 -0.6748  0.1569  0.3201
 7290SOL     OW22439   2.113   6.853   1.515 -0.3023 -0.1992 -0.2088
 7290SOL    HW122440   2.106   6.896   1.600 -0.7509  0.0898 -0.3914
 7290SOL    HW222441   2.191   6.893   1.475 -0.6973  0.4343 -0.3666
 7291SOL     OW22442   0.448   5.106   4.116 -0.1307 -0.6788  0.1831
 7291SOL    HW122443   0.414   5.052   4.187 -0.1427  0.7022  1.2720
 7291SOL    HW222444   0.449   5.195   4.151  0.3276 -0.0186 -1.3873
 7292SOL     OW22445   6.981   2.566   6.809 -0.3663 -0.1490 -0.4384
 7292SOL    HW122446   6.900   2.612   6.789  0.3981  1.4506  0.0024
 7292SOL    HW222447   6.958   2.473   6.803 -2.3369  0.2594  0.1270
 7293SOL     OW22448   1.208   1.958   2.437  0.8982  0.4279 -0.1743
 7293SOL    HW122449   1.183   2.014   2.364 -0.7372 -1.4746 -1.1693
 7293SOL    HW222450   1.205   1.869   2.401  3.8366 -0.3714  1.1874
 7294SOL     OW22451   6.589   2.209   2.725  0.0039  0.1372  0.2117
 7294SOL    HW122452   6.520   2.234   2.787  0.3247 -0.8482  0.9883
 7294SOL    HW222453   6.624   2.127   2.760 -0.9465 -1.3975 -2.1480
 7295SOL     OW22454   4.105   6.009   3.654 -0.0917  0.1978 -0.1480
 7295SOL    HW122455   4.050   5.943   3.695 -0.7656 -0.2941 -1.7527
 7295SOL    HW222456   4.044   6.066   3.608  0.5791  1.1747  0.1279
 7296SOL     OW22457   3.925   2.533   0.652 -0.4864  0.0091 -0.2738
 7296SOL    HW122458   3.859   2.508   0.716 -1.3912  0.8868 -0.8434
 7296SOL    HW222459   3.999   2.563   0.705 -0.7075 -0.5414  0.3654
 7297SOL     OW22460   0.179   4.685   4.385 -0.0062  0.1909 -0.4967
 7297SOL    HW122461   0.168   4.763   4.331  1.8896  0.2517 -0.8832
 7297SOL    HW222462   0.267   4.653   4.362  0.0040 -0.9737  1.0279
 7298SOL     OW22463   4.617   5.657   0.995 -0.0989 -0.1965 -0.1702
 7298SOL    HW122464   4.661   5.704   1.066  0.3638  0.6590 -0.9883
 7298SOL    HW222465   4.679   5.588   0.970 -1.6797 -2.7972  2.4926
 7299SOL     OW22466   6.545   4.737   1.261 -0.4554  0.1183  0.6340
 7299SOL    HW122467   6.571   4.811   1.206  0.3066 -0.1160  0.6689
 7299SOL    HW222468   6.509   4.674   1.199  0.7824 -0.3172  0.3246
 7300SOL     OW22469   4.371   3.367   3.796  0.0812  0.0094 -0.5428
 7300SOL    HW122470   4.458   3.396   3.824  0.3481 -0.7992 -0.5135
 7300SOL    HW222471   4.325   3.448   3.773 -0.3730  0.8251  2.7210
 7301SOL     OW22472   2.232   6.556   4.248 -0.1322 -0.1782  0.0700
 7301SOL    HW122473   2.258   6.639   4.288  0.9949 -1.2945  1.7760
 7301SOL    HW222474   2.314   6.508   4.236 -0.5861 -0.5116 -2.2964
 7302SOL     OW22475   5.314   3.036   4.789  0.3162 -0.1933  0.1937
 7302SOL    HW122476   5.334   3.127   4.813  2.2277 -0.0664 -1.5914
 7302SOL    HW222477   5.222   3.038   4.762  0.3372  1.2255  0.1391
 7303SOL     OW22478   1.447   0.362   1.236 -0.2575  0.0784 -0.0146
 7303SOL    HW122479   1.368   0.367   1.181 -0.1967 -0.3509 -0.1416
 7303SOL    HW222480   1.413   0.356   1.325 -0.3578  0.7230  0.0005
 7304SOL     OW22481   5.840   1.766   4.834  0.2586  0.1563 -0.1768
 7304SOL    HW122482   5.794   1.724   4.907 -1.6265  0.1846 -1.2727
 7304SOL    HW222483   5.829   1.705   4.761  1.6027  0.3947 -0.5965
 7305SOL     OW22484   4.883   5.916   6.996 -0.2941  0.6052 -0.1972
 7305SOL    HW122485   4.895   5.891   7.088  1.3010 -1.6841 -0.9465
 7305SOL    HW222486   4.788   5.908   6.982 -0.3835 -0.6246  0.8539
 7306SOL     OW22487   5.304   1.203   0.622 -0.1855  0.1919 -0.3582
 7306SOL    HW122488   5.348   1.157   0.694 -1.8927  0.0352  0.6468
 7306SOL    HW222489   5.237   1.255   0.666 -1.1819  0.1995 -1.8444
 7307SOL     OW22490   4.321   5.395   1.625 -0.5697  0.1926 -0.5014
 7307SOL    HW122491   4.402   5.429   1.664  0.4431 -2.2307 -0.3376
 7307SOL    HW222492   4.288   5.468   1.572  0.5594  1.9595  1.0939
 7308SOL     OW22493   1.266   0.651   0.435  0.2972 -0.2252  0.0142
 7308SOL    HW122494   1.333   0.692   0.489  0.6549  0.7956 -1.1513
 7308SOL    HW222495   1.215   0.599   0.496  0.1572  1.5365  1.5019
 7309SOL     OW22496   2.806   7.381   0.072 -0.1960 -0.1609 -0.2421
 7309SOL    HW122497   2.796   7.303   0.017 -0.3330 -1.2224  1.2446
 7309SOL    HW222498   2.738   7.372   0.139 -0.5062  1.4753 -0.3085
 7310SOL     OW22499   7.145   3.944   4.300 -0.5905 -0.3037  0.5092
 7310SOL    HW122500   7.177   4.019   4.350 -1.7828  0.4652  0.1650
 7310SOL    HW222501   7.157   3.869   4.359  1.0452  0.0595  0.6858
 7311SOL     OW22502   0.827   0.177   3.331 -0.2847  0.5543 -0.3054
 7311SOL    HW122503   0.803   0.164   3.240  1.6847  1.0018 -0.9297
 7311SOL    HW222504   0.904   0.233   3.328  0.5248 -0.3796  1.5735
 7312SOL     OW22505   6.404   2.689   5.785 -0.2856  0.2933  0.6885
 7312SOL    HW122506   6.494   2.681   5.752 -0.4319  0.4679  0.2436
 7312SOL    HW222507   6.357   2.734   5.715 -0.4159  1.4072  1.4636
 7313SOL     OW22508   2.141   2.234   3.629  0.5597  0.3786  0.6183
 7313SOL    HW122509   2.190   2.187   3.697  2.6117 -0.3546 -1.2392
 7313SOL    HW222510   2.205   2.250   3.560 -1.4113  1.1380 -1.1465
 7314SOL     OW22511   6.243   0.720   2.750  0.0864  0.1745  0.2609
 7314SOL    HW122512   6.190   0.649   2.715  0.6561 -1.1404  1.9051
 7314SOL    HW222513   6.201   0.800   2.718 -1.6694 -0.8610 -0.1441
 7315SOL     OW22514   0.910   6.074   2.928  0.0054 -0.4223  0.2228
 7315SOL    HW122515   0.998   6.087   2.963  0.0734  2.6727 -0.8045
 7315SOL    HW222516   0.854   6.128   2.985 -1.0386 -1.3318  0.0868
 7316SOL     OW22517   7.064   5.886   3.607 -0.0819 -0.2670 -0.5402
 7316SOL    HW122518   7.147   5.919   3.573 -0.1389  0.5905  0.1145
 7316SOL    HW222519   6.997   5.938   3.563 -0.2820 -0.8948 -0.9991
 7317SOL     OW22520   1.845   3.338   5.995  0.0198 -0.2238  0.1203
 7317SOL    HW122521   1.925   3.384   5.970  1.3078 -1.0462  2.3813
 7317SOL    HW222522   1.777   3.375   5.940  1.6399  1.8076 -0.6211
 7318SOL     OW22523   4.982   0.310   0.047 -0.3937  0.0224 -0.4547
 7318SOL    HW122524   5.021   0.330   0.131 -0.3944  1.3695 -0.7404
 7318SOL    HW222525   5.028   0.367  -0.015 -1.4154  0.1666 -1.1098
 7319SOL     OW22526   4.757   5.267   6.658  0.1848  0.0421 -0.5915
 7319SOL    HW122527   4.827   5.298   6.601 -0.5559  1.7608 -0.6193
 7319SOL    HW222528   4.758   5.327   6.732 -0.8471 -0.2959 -0.2906
 7320SOL     OW22529   5.189   3.663   2.609  0.1871  0.1361  0.3171
 7320SOL    HW122530   5.215   3.619   2.528 -0.1083 -0.3409  0.4821
 7320SOL    HW222531   5.102   3.629   2.629  0.7476 -0.6606  1.4947
 7321SOL     OW22532   1.716   2.369   0.416  0.3557  0.3359  0.2533
 7321SOL    HW122533   1.812   2.368   0.417  0.3574 -0.7503  0.4232
 7321SOL    HW222534   1.691   2.277   0.427 -0.6881  0.2844 -2.0359
 7322SOL     OW22535   4.842   2.492   6.435  0.1022 -0.0306 -0.5903
 7322SOL    HW122536   4.831   2.418   6.495  0.9962 -0.1605 -0.5788
 7322SOL    HW222537   4.910   2.464   6.374  0.7668  0.9496 -0.3203
 7323SOL     OW22538   6.606   2.281   0.984 -0.2663  0.3248  0.3659
 7323SOL    HW122539   6.629   2.233   1.063  1.2958 -1.1460 -0.8995
 7323SOL    HW222540   6.686   2.327   0.960 -0.1423 -0.6973 -1.3146
 7324SOL     OW22541   0.809   3.970   1.655 -0.0758 -0.0299 -0.1607
 7324SOL    HW122542   0.790   4.064   1.658 -0.7503 -0.1689 -0.0309
 7324SOL    HW222543   0.773   3.936   1.737 -2.0533 -0.8093 -1.3098
 7325SOL     OW22544   5.733   1.842   2.740 -0.2823  0.0347 -0.3008
 7325SOL    HW122545   5.749   1.818   2.649  0.4791  0.5593 -0.3119
 7325SOL    HW222546   5.790   1.917   2.756 -1.0758  0.5214  0.3423
 7326SOL     OW22547   6.446   5.092   5.328 -0.5361 -0.0284 -0.1069
 7326SOL    HW122548   6.509   5.088   5.399 -1.9306  1.8504  1.3247
 7326SOL    HW222549   6.499   5.081   5.249  1.3331 -0.1120  1.0932
 7327SOL     OW22550   5.455   6.002   5.108  0.1184 -0.0873 -0.5307
 7327SOL    HW122551   5.432   5.995   5.201 -0.4744  0.1491 -0.6538
 7327SOL    HW222552   5.385   5.956   5.063 -0.3620  1.0167 -0.9443
 7328SOL     OW22553   6.333   7.272   3.464 -0.5519  0.2394  0.0010
 7328SOL    HW122554   6.284   7.354   3.471  0.1880  0.6446  0.5369
 7328SOL    HW222555   6.380   7.280   3.381  0.1809  0.7408  0.4500
 7329SOL     OW22556   1.291   7.289   2.507 -0.8705  0.2089  0.1899
 7329SOL    HW122557   1.307   7.377   2.473 -3.7080  0.1646 -1.4910
 7329SOL    HW222558   1.356   7.234   2.463  0.2759  1.2633  0.5042
 7330SOL     OW22559   1.906   6.717   6.450  0.4453 -0.0153  0.0571
 7330SOL    HW122560   1.959   6.731   6.529 -1.7046 -1.7100  1.9607
 7330SOL    HW222561   1.929   6.628   6.423 -0.8323 -0.4983  0.4887
 7331SOL     OW22562   4.659   0.065   4.394  0.6095  0.2802  0.3879
 7331SOL    HW122563   4.659   0.130   4.323 -1.2975 -0.3679 -0.2911
 7331SOL    HW222564   4.670  -0.019   4.349 -1.5955 -0.2297  0.6543
 7332SOL     OW22565   5.727   0.556   3.625  0.5450 -0.1978 -0.3070
 7332SOL    HW122566   5.675   0.587   3.551  0.2419 -0.8993 -0.3895
 7332SOL    HW222567   5.761   0.472   3.596 -0.7419 -1.1650  0.8879
 7333SOL     OW22568   7.404   5.647   0.528  0.0201  0.3068  0.4492
 7333SOL    HW122569   7.358   5.731   0.537 -0.2404  0.1522  0.5615
 7333SOL    HW222570   7.475   5.666   0.466 -0.7097  0.3441 -0.4036
 7334SOL     OW22571   4.132   4.133   0.482 -0.2597 -0.1497 -0.0721
 7334SOL    HW122572   4.063   4.151   0.419 -0.4837 -1.4887 -0.2380
 7334SOL    HW222573   4.185   4.065   0.442 -1.8996 -2.9676  2.1308
 7335SOL     OW22574   1.090   3.373   3.568 -0.3464  0.5681  0.2854
 7335SOL    HW122575   1.028   3.446   3.570 -2.0550 -0.7626 -0.4506
 7335SOL    HW222576   1.085   3.341   3.478 -1.6931 -2.0601  1.1994
 7336SOL     OW22577   3.124   3.118   2.825 -0.1546  0.5791 -0.2516
 7336SOL    HW122578   3.131   3.184   2.757  0.4297  2.4298  1.4888
 7336SOL    HW222579   3.134   3.167   2.907 -2.0416 -1.3280  1.2519
 7337SOL     OW22580   0.340   2.075   1.887  0.0514 -0.0145  0.1828
 7337SOL    HW122581   0.314   1.984   1.902  1.2769 -0.2105  1.2766
 7337SOL    HW222582   0.395   2.072   1.808  0.0910 -0.2195  0.2184
 7338SOL     OW22583   5.759   4.775   4.879  0.4589  1.0518 -0.0774
 7338SOL    HW122584   5.840   4.728   4.897 -1.5266 -3.4607 -1.6175
 7338SOL    HW222585   5.758   4.784   4.784 -0.5034  1.8068 -0.0037
 7339SOL     OW22586   2.367   2.753   1.132  0.2311  0.4363 -0.1291
 7339SOL    HW122587   2.401   2.790   1.213 -0.5728  1.5993 -0.3120
 7339SOL    HW222588   2.423   2.789   1.063 -1.3408  2.4657 -0.4460
 7340SOL     OW22589   6.500   5.291   2.153  0.5280 -0.1456  0.2806
 7340SOL    HW122590   6.499   5.332   2.067  1.3600 -0.4876  0.1052
 7340SOL    HW222591   6.450   5.210   2.142 -1.0256  0.7405  0.6010
 7341SOL     OW22592   6.459   1.554   2.508 -0.7563  0.3693  0.0425
 7341SOL    HW122593   6.546   1.592   2.493 -0.3329 -0.8196 -0.6697
 7341SOL    HW222594   6.437   1.512   2.425 -0.8000 -1.6826  1.0408
 7342SOL     OW22595   0.720   5.253   6.566  0.3619 -0.1182 -0.1406
 7342SOL    HW122596   0.803   5.271   6.523 -0.7757  1.2543 -1.8867
 7342SOL    HW222597   0.656   5.306   6.519 -1.5511 -1.2490  1.0360
 7343SOL     OW22598   3.796   4.707   2.511 -0.0071  0.3395 -0.1655
 7343SOL    HW122599   3.848   4.787   2.500 -1.0134  1.3322  1.7629
 7343SOL    HW222600   3.706   4.734   2.491 -0.1355 -0.7864 -1.2383
 7344SOL     OW22601   0.248   1.650   5.300 -0.2790 -0.0770  0.0222
 7344SOL    HW122602   0.176   1.678   5.244  0.7325  1.4342 -0.5811
 7344SOL    HW222603   0.318   1.627   5.238 -0.2940 -1.7600  0.5849
 7345SOL     OW22604   5.768   5.145   7.126 -0.0936  0.4156  0.1640
 7345SOL    HW122605   5.677   5.132   7.098 -0.0547 -0.3977  0.3830
 7345SOL    HW222606   5.793   5.060   7.164  1.5922 -0.2252 -2.1996
 7346SOL     OW22607   5.262   0.402   1.244  0.1807  0.0377  0.3457
 7346SOL    HW122608   5.357   0.411   1.253 -0.0066  0.2329  3.2722
 7346SOL    HW222609   5.226   0.472   1.299 -1.7563  1.5294 -2.5738
 7347SOL     OW22610   0.303   3.423   6.907 -0.1458  0.2095  0.5802
 7347SOL    HW122611   0.227   3.420   6.964 -0.5858  0.9227  0.0416
 7347SOL    HW222612   0.269   3.449   6.822  0.6555  0.2369  0.2573
 7348SOL     OW22613   0.664   0.474   4.245  0.0167 -0.1505  0.4755
 7348SOL    HW122614   0.657   0.493   4.151 -0.1018  2.3260  0.9060
 7348SOL    HW222615   0.583   0.428   4.266 -0.2148 -0.2360 -0.5274
 7349SOL     OW22616   3.354   0.019   2.862  0.2009  0.0975  0.0980
 7349SOL    HW122617   3.346  -0.075   2.881 -0.8428  0.5075  1.9675
 7349SOL    HW222618   3.391   0.022   2.774  1.1937 -2.0643  0.3456
 7350SOL     OW22619   3.392   3.233   3.048  0.1816  0.2120  0.2298
 7350SOL    HW122620   3.435   3.185   2.977  1.8284  0.4942  0.9919
 7350SOL    HW222621   3.398   3.176   3.124 -1.4777 -0.0431  0.2040
 7351SOL     OW22622   5.306   7.142   4.844  0.3630 -0.0722  0.1959
 7351SOL    HW122623   5.246   7.067   4.852  0.1393 -0.4298 -3.2468
 7351SOL    HW222624   5.264   7.212   4.894 -2.2550 -0.7270 -0.9156
 7352SOL     OW22625   4.631   7.143   6.825 -0.2479  0.0863 -0.3766
 7352SOL    HW122626   4.536   7.132   6.816 -0.1216 -1.5393 -0.0556
 7352SOL    HW222627   4.650   7.119   6.915  0.4871  0.3405 -0.4555
 7353SOL     OW22628   7.210   3.425   3.046  0.4609  0.0945  0.0954
 7353SOL    HW122629   7.282   3.373   3.010 -0.3534 -0.2888 -1.0314
 7353SOL    HW222630   7.160   3.363   3.100 -0.5649 -0.3753 -1.3251
 7354SOL     OW22631   1.572   1.417   3.919  0.1365  0.5848 -0.4850
 7354SOL    HW122632   1.634   1.482   3.952 -1.1512  1.5625  0.1146
 7354SOL    HW222633   1.519   1.394   3.995 -0.5698  0.1684 -1.0898
 7355SOL     OW22634   6.001   3.645   7.267 -0.3015 -0.5910 -0.4299
 7355SOL    HW122635   5.973   3.606   7.349  0.8268 -0.0463  0.2329
 7355SOL    HW222636   6.093   3.620   7.258  0.1061  0.8704 -0.5937
 7356SOL     OW22637   1.209   3.062   5.540 -0.3819 -0.2453 -0.5715
 7356SOL    HW122638   1.202   3.034   5.631  0.1980  3.6207  0.8657
 7356SOL    HW222639   1.300   3.044   5.516  0.6680  2.1383  1.1168
 7357SOL     OW22640   4.283   0.901   2.592  0.1893 -0.0262  0.0651
 7357SOL    HW122641   4.314   0.977   2.542  1.3647 -1.3100 -1.2707
 7357SOL    HW222642   4.348   0.833   2.574 -1.5651 -1.7983  0.0308
 7358SOL     OW22643   4.019   5.934   6.228 -0.3970 -0.3052 -0.2051
 7358SOL    HW122644   3.981   6.023   6.228  2.2128  0.9177  1.2080
 7358SOL    HW222645   3.962   5.885   6.287 -1.9290  0.3735 -1.0503
 7359SOL     OW22646   7.204   7.088   6.487  0.3916  0.4114 -0.2660
 7359SOL    HW122647   7.279   7.135   6.451 -0.4359  1.2404 -0.9858
 7359SOL    HW222648   7.188   7.128   6.572  0.9176  0.0597 -0.0019
 7360SOL     OW22649   1.811   5.397   0.199 -0.1383  0.1205 -0.6759
 7360SOL    HW122650   1.802   5.468   0.262 -2.1656  0.2868 -1.0933
 7360SOL    HW222651   1.862   5.331   0.245  0.1667  1.0686  0.3909
 7361SOL     OW22652   6.237   4.261   2.746  0.1318  0.0469 -0.3389
 7361SOL    HW122653   6.216   4.202   2.673  0.5337 -1.1617  0.4988
 7361SOL    HW222654   6.332   4.272   2.742  0.0150  1.0540 -0.7749
 7362SOL     OW22655   5.848   0.815   3.679 -0.2648 -0.4235 -0.4147
 7362SOL    HW122656   5.837   0.721   3.662 -0.1236 -0.4699 -0.2524
 7362SOL    HW222657   5.933   0.821   3.723 -1.6269 -0.5935  2.4771
 7363SOL     OW22658   5.984   2.127   5.515 -0.3803  0.2710  0.5576
 7363SOL    HW122659   6.076   2.142   5.497 -0.1161  1.1194  2.3798
 7363SOL    HW222660   5.938   2.156   5.436  0.8295  1.0927  0.1400
 7364SOL     OW22661   1.684   4.139   1.604 -0.1074 -0.3556  0.0887
 7364SOL    HW122662   1.648   4.080   1.671  0.4011 -1.4323 -0.5699
 7364SOL    HW222663   1.778   4.132   1.614 -0.0140  1.3535  0.8457
 7365SOL     OW22664   7.306   3.059   7.164 -0.0382  0.0522  0.5815
 7365SOL    HW122665   7.256   2.982   7.138 -0.6972  0.2868  1.1235
 7365SOL    HW222666   7.365   3.075   7.090 -0.3785 -0.5558  0.1656
 7366SOL     OW22667   4.704   6.896   4.505  0.7013 -0.2693  0.0668
 7366SOL    HW122668   4.653   6.968   4.468  1.0471 -0.2945 -0.4759
 7366SOL    HW222669   4.672   6.887   4.594  0.2251  0.1535 -0.0569
 7367SOL     OW22670   7.410   5.756   5.286  0.3158  0.1968  0.1038
 7367SOL    HW122671   7.344   5.687   5.296  0.9588 -0.7101 -1.4419
 7367SOL    HW222672   7.360   5.838   5.286 -0.7145 -0.4175 -0.1698
 7368SOL     OW22673   2.640   5.795   3.411  0.0930 -0.4533  0.8267
 7368SOL    HW122674   2.704   5.826   3.347 -1.1227  0.6734  0.1145
 7368SOL    HW222675   2.555   5.818   3.374 -0.7731 -2.2479  1.5717
 7369SOL     OW22676   7.110   4.876   3.825 -0.4965 -0.0219  0.2322
 7369SOL    HW122677   7.075   4.949   3.876  0.1939 -0.2458  1.0582
 7369SOL    HW222678   7.042   4.809   3.829 -0.1654 -0.3059  1.4861
 7370SOL     OW22679   0.200   3.387   3.122 -0.1750  0.5310 -0.4682
 7370SOL    HW122680   0.257   3.393   3.199 -0.7522 -1.4267  0.1697
 7370SOL    HW222681   0.146   3.466   3.126 -0.8100  0.0525  1.6728
 7371SOL     OW22682   3.753   5.253   5.133 -0.2828  0.2450 -0.4032
 7371SOL    HW122683   3.748   5.225   5.042 -1.0486 -0.5914 -0.1155
 7371SOL    HW222684   3.845   5.247   5.156 -0.2570 -0.7329 -0.7548
 7372SOL     OW22685   1.432   5.558   4.842 -0.0099 -0.2360 -0.4198
 7372SOL    HW122686   1.460   5.604   4.763 -0.9906  0.8443 -0.1599
 7372SOL    HW222687   1.409   5.470   4.812  0.1757 -0.0111 -1.2349
 7373SOL     OW22688   0.387   6.038   1.108  0.1456  0.0716  0.0291
 7373SOL    HW122689   0.298   6.042   1.145  0.2324  1.0498  0.1662
 7373SOL    HW222690   0.425   5.958   1.144  0.3506  1.1366  2.3728
 7374SOL     OW22691   6.251   5.598   5.729 -0.0554  1.0987  0.3048
 7374SOL    HW122692   6.330   5.596   5.783 -0.3692  1.3207  0.7734
 7374SOL    HW222693   6.179   5.587   5.791 -0.3946 -5.7866 -0.4459
 7375SOL     OW22694   6.443   3.445   4.044  0.1600 -0.6795  0.2925
 7375SOL    HW122695   6.361   3.455   3.996  1.2842  1.8582 -1.2937
 7375SOL    HW222696   6.428   3.489   4.128  0.3430  1.2093 -0.6305
 7376SOL     OW22697   6.872   0.747   4.366  0.2417  1.0326  0.4863
 7376SOL    HW122698   6.959   0.769   4.333  0.4599  0.2362  0.4996
 7376SOL    HW222699   6.882   0.658   4.401 -0.0210  1.7414  2.5101
 7377SOL     OW22700   4.528   1.749   1.277 -0.6538 -0.2556 -0.5270
 7377SOL    HW122701   4.529   1.700   1.195 -0.6765 -1.4554  0.1665
 7377SOL    HW222702   4.463   1.704   1.331 -0.4960  0.3949  0.2251
 7378SOL     OW22703   2.041   1.471   4.451 -0.4928  0.4075 -0.3771
 7378SOL    HW122704   2.128   1.444   4.480  0.7649  4.0294 -0.2721
 7378SOL    HW222705   2.045   1.464   4.355  1.3202  3.6359 -0.7092
 7379SOL     OW22706   3.933   7.247   1.216 -0.2772  0.2450 -0.3717
 7379SOL    HW122707   3.945   7.157   1.245  1.2048  1.1193  2.0708
 7379SOL    HW222708   3.840   7.255   1.197 -0.5671 -1.5981  0.1340
 7380SOL     OW22709   3.763   0.875   0.568 -0.0646 -0.0374  0.2859
 7380SOL    HW122710   3.717   0.945   0.523  0.7997  0.6369  0.4321
 7380SOL    HW222711   3.773   0.806   0.503  0.4266  0.5873 -0.3053
 7381SOL     OW22712   6.025   5.848   7.408 -0.2921  0.3250  0.1595
 7381SOL    HW122713   5.973   5.839   7.488  0.2790  0.4855  0.5564
 7381SOL    HW222714   5.985   5.921   7.362  0.5230  1.4768  1.2151
 7382SOL     OW22715   3.539   6.869   2.065  0.3247  0.2862 -0.8512
 7382SOL    HW122716   3.511   6.806   1.999  1.2822  0.1160 -1.1000
 7382SOL    HW222717   3.458   6.891   2.112  0.0235 -1.4044 -0.5078
 7383SOL     OW22718   5.465   5.596   1.076  0.5201 -0.0489  0.3329
 7383SOL    HW122719   5.379   5.639   1.070  0.8180  0.4343 -0.6586
 7383SOL    HW222720   5.498   5.596   0.987  2.0654  0.8115  0.8679
 7384SOL     OW22721   0.383   6.632   4.763  0.8833 -0.3151  0.6896
 7384SOL    HW122722   0.355   6.679   4.841 -1.8123 -0.6458  0.0281
 7384SOL    HW222723   0.352   6.542   4.777  2.0107 -0.8376  0.0040
 7385SOL     OW22724   3.912   6.479   4.498  0.4380 -0.3531  0.2378
 7385SOL    HW122725   3.982   6.495   4.561 -0.9782  2.1472  1.3016
 7385SOL    HW222726   3.833   6.469   4.552 -0.4348 -0.5954 -1.0445
 7386SOL     OW22727   2.117   2.754   2.508 -0.1026 -0.2827  0.1159
 7386SOL    HW122728   2.198   2.703   2.516 -0.3188 -0.4545  1.5820
 7386SOL    HW222729   2.066   2.729   2.585 -1.5951 -0.2263 -0.8244
 7387SOL     OW22730   0.073   3.855   7.202 -0.5134 -0.0929 -0.6899
 7387SOL    HW122731   0.004   3.800   7.165 -1.4155 -0.1925  1.0512
 7387SOL    HW222732   0.121   3.797   7.261  0.4944  0.2171 -1.1779
 7388SOL     OW22733   4.944   6.011   0.038  0.5840  0.2827  0.4568
 7388SOL    HW122734   4.926   6.006   0.131  0.6167 -2.1718  0.3729
 7388SOL    HW222735   5.040   6.012   0.032  0.5848  1.2251  0.4502
 7389SOL     OW22736   3.362   4.026   3.138 -0.0272  0.7213  0.8712
 7389SOL    HW122737   3.300   3.953   3.137 -1.6197  1.9769  1.7157
 7389SOL    HW222738   3.448   3.986   3.127 -0.9031 -1.1990  0.6927
 7390SOL     OW22739   4.956   2.946   0.434  0.2023  0.4531 -0.1701
 7390SOL    HW122740   5.005   2.900   0.502 -1.0003 -2.8868 -1.3324
 7390SOL    HW222741   4.865   2.942   0.463 -0.1993 -0.1020 -1.4004
 7391SOL     OW22742   1.212   6.453   1.929  0.2672 -0.6845 -0.1579
 7391SOL    HW122743   1.273   6.523   1.905 -0.2756  0.1122  0.7202
 7391SOL    HW222744   1.142   6.497   1.976  0.3339 -1.9203  1.1708
 7392SOL     OW22745   2.283   3.298   0.607 -0.3222 -0.0927 -0.5545
 7392SOL    HW122746   2.279   3.280   0.701  0.6273  0.8234 -0.3311
 7392SOL    HW222747   2.298   3.392   0.601  1.8257 -0.4528 -1.5724
 7393SOL     OW22748   3.165   6.085   2.002  0.1294 -0.2664 -0.0547
 7393SOL    HW122749   3.116   6.161   1.970  0.2943 -0.2702 -0.3275
 7393SOL    HW222750   3.239   6.123   2.050  0.7665 -0.2280 -1.0277
 7394SOL     OW22751   4.284   1.771   3.211 -0.1366  0.7420 -0.0229
 7394SOL    HW122752   4.226   1.706   3.249  0.6875  0.4142  0.7106
 7394SOL    HW222753   4.257   1.854   3.251  0.9120  0.3605  1.5594
 7395SOL     OW22754   6.577   6.061   6.335 -0.1563  0.1112  0.6115
 7395SOL    HW122755   6.564   5.981   6.387  0.7104  0.5876  1.5843
 7395SOL    HW222756   6.661   6.096   6.365  0.8031 -0.0291 -1.6959
 7396SOL     OW22757   5.786   2.602   2.235  0.4903 -0.0942  0.7331
 7396SOL    HW122758   5.704   2.579   2.190 -2.2206  3.6992  3.1003
 7396SOL    HW222759   5.794   2.537   2.305 -1.2975  0.1475  1.2327
 7397SOL     OW22760   0.679   5.643   3.539 -0.1328  0.2781  0.7147
 7397SOL    HW122761   0.613   5.611   3.478 -0.3615  0.9250  0.6110
 7397SOL    HW222762   0.761   5.640   3.489 -0.3496  0.9798  0.3052
 7398SOL     OW22763   7.055   4.281   1.487  0.4555 -0.3907 -0.2987
 7398SOL    HW122764   7.105   4.358   1.517  0.0626 -1.0016  2.1035
 7398SOL    HW222765   6.966   4.313   1.478  0.1341 -0.6917  1.4843
 7399SOL     OW22766   4.576   2.961   4.872  0.4616  0.6930  0.2752
 7399SOL    HW122767   4.484   2.981   4.856 -0.6099 -1.9625  2.1842
 7399SOL    HW222768   4.595   2.998   4.959  0.7191  0.0325  0.5157
 7400SOL     OW22769   1.648   1.466   2.497 -0.3628 -0.5801  0.0864
 7400SOL    HW122770   1.718   1.453   2.434  0.2816 -0.4789  0.7637
 7400SOL    HW222771   1.588   1.393   2.482 -0.0611 -0.7282 -0.4262
 7401SOL     OW22772   1.518   1.213   6.257 -0.4455 -0.4850 -0.4033
 7401SOL    HW122773   1.535   1.295   6.304 -1.0843 -0.2303 -0.6012
 7401SOL    HW222774   1.490   1.152   6.325  0.7764 -0.7746 -0.1429
 7402SOL     OW22775   1.749   1.208   1.581 -0.0479  0.0656  0.2891
 7402SOL    HW122776   1.779   1.276   1.641 -0.8666  0.8406 -0.1461
 7402SOL    HW222777   1.755   1.249   1.494 -1.8353  0.0877  0.1436
 7403SOL     OW22778   3.093   4.929   6.737 -0.4810  0.2334 -0.1479
 7403SOL    HW122779   3.055   5.016   6.747 -1.4358 -0.1075 -0.7298
 7403SOL    HW222780   3.118   4.925   6.645 -1.7842 -0.6287 -0.4841
 7404SOL     OW22781   5.659   1.905   1.971 -0.1325 -0.5873  0.6094
 7404SOL    HW122782   5.625   1.830   1.922 -1.8418  0.3482  0.2830
 7404SOL    HW222783   5.581   1.949   2.005  0.6752  2.0393 -0.6798
 7405SOL     OW22784   5.939   3.840   2.704  0.0176  0.1066  0.0962
 7405SOL    HW122785   5.983   3.894   2.769 -1.1484  0.8282  0.3250
 7405SOL    HW222786   5.846   3.851   2.723 -0.3821  0.6265 -1.8974
 7406SOL     OW22787   6.958   7.215   1.403  0.3407 -0.2688 -0.2867
 7406SOL    HW122788   6.999   7.264   1.332  0.9416  1.1908  1.0293
 7406SOL    HW222789   6.967   7.271   1.480 -1.5778 -1.1800  0.6572
 7407SOL     OW22790   0.987   1.268   3.704  0.2956 -0.4398  0.5053
 7407SOL    HW122791   1.077   1.289   3.680 -0.3751  0.8359 -1.0807
 7407SOL    HW222792   0.987   1.267   3.800  1.5560  1.6825  0.5832
 7408SOL     OW22793   3.107   4.218   6.490  0.0040  0.0537  0.5524
 7408SOL    HW122794   3.102   4.204   6.584 -1.6584 -0.0313  0.4666
 7408SOL    HW222795   3.024   4.259   6.466 -0.2265 -1.2350 -1.0817
 7409SOL     OW22796   3.278   3.365   3.550  0.1421 -0.4348  0.5259
 7409SOL    HW122797   3.361   3.373   3.502 -0.0196 -0.9707  0.1391
 7409SOL    HW222798   3.229   3.443   3.526  0.9863  0.4852  1.6843
 7410SOL     OW22799   4.503   7.321   7.092  0.4221 -0.1838  0.1510
 7410SOL    HW122800   4.531   7.244   7.043 -3.5324 -0.3167 -2.3612
 7410SOL    HW222801   4.539   7.395   7.043 -0.2844 -0.4175 -0.7717
 7411SOL     OW22802   6.069   6.389   5.383  0.2661  0.3061 -0.4107
 7411SOL    HW122803   6.007   6.449   5.423  0.0713 -0.2531  0.1345
 7411SOL    HW222804   6.152   6.407   5.427 -0.0383 -0.5992  0.5669
 7412SOL     OW22805   0.158   1.185   5.381 -0.5249 -0.1185 -0.5318
 7412SOL    HW122806   0.089   1.145   5.434  0.0339  1.6657  1.6883
 7412SOL    HW222807   0.110   1.232   5.312 -1.6422  1.2509  1.0800
 7413SOL     OW22808   3.730   1.899   3.893 -0.2159 -0.6348 -0.1445
 7413SOL    HW122809   3.815   1.858   3.876  0.1268  0.0645 -0.1533
 7413SOL    HW222810   3.728   1.976   3.835 -1.5283 -1.5039 -1.3232
 7414SOL     OW22811   1.423   2.482   3.251 -0.2121  0.1597 -0.2589
 7414SOL    HW122812   1.455   2.403   3.293 -0.1767  0.2521 -0.1096
 7414SOL    HW222813   1.338   2.458   3.215  0.7885 -0.6280 -2.2850
 7415SOL     OW22814   3.068   2.285   4.320  0.1180  0.3841  0.2312
 7415SOL    HW122815   3.092   2.348   4.389  0.7779 -0.8834  1.2009
 7415SOL    HW222816   3.090   2.200   4.357 -0.3521 -0.3998 -1.2281
 7416SOL     OW22817   5.464   4.825   1.097 -0.3323  0.3417  0.1897
 7416SOL    HW122818   5.388   4.808   1.152 -0.3279 -0.0999  0.0557
 7416SOL    HW222819   5.468   4.921   1.092 -1.6489  0.3652 -0.8697
 7417SOL     OW22820   0.434   6.545   3.079 -0.0213  0.3663 -0.4644
 7417SOL    HW122821   0.339   6.536   3.071  0.2068 -1.2550 -1.8924
 7417SOL    HW222822   0.453   6.631   3.041 -0.8602  0.5091 -0.5801
 7418SOL     OW22823   3.923   5.066   6.630 -0.8082  0.4931  0.1355
 7418SOL    HW122824   3.860   5.010   6.585 -1.9731  0.9476  1.1349
 7418SOL    HW222825   3.996   5.007   6.651 -1.9010 -0.6251  0.9689
 7419SOL     OW22826   1.979   2.707   2.949 -0.2876  0.2307 -0.0293
 7419SOL    HW122827   2.004   2.797   2.925  0.3467 -0.1079 -0.6848
 7419SOL    HW222828   1.950   2.668   2.866  0.9256 -0.6413 -0.0691
 7420SOL     OW22829   4.120   4.122   2.647  0.1924 -0.2575  0.0832
 7420SOL    HW122830   4.065   4.113   2.724  0.3991  2.9610  0.7149
 7420SOL    HW222831   4.209   4.113   2.680  0.2861  1.2181  0.3091
 7421SOL     OW22832   7.174   4.187   3.454  0.3375 -0.2390 -0.1119
 7421SOL    HW122833   7.231   4.112   3.433  3.0307  0.3232  3.9905
 7421SOL    HW222834   7.120   4.156   3.526  1.0094  1.4653  1.1871
 7422SOL     OW22835   6.606   0.226   0.874 -0.6236  0.7324  0.1109
 7422SOL    HW122836   6.539   0.161   0.897 -1.2800  1.1679 -0.5046
 7422SOL    HW222837   6.689   0.179   0.879 -0.9995  0.1129  0.6412
 7423SOL     OW22838   4.056   3.496   6.867 -0.4304 -0.1121  0.0005
 7423SOL    HW122839   3.961   3.504   6.867 -0.9161 -3.7626  1.3936
 7423SOL    HW222840   4.079   3.475   6.777 -1.2344 -1.0783  0.0017
 7424SOL     OW22841   6.717   1.507   4.451  0.5357  0.5348 -0.6857
 7424SOL    HW122842   6.719   1.584   4.507  0.3859 -1.3568  2.1351
 7424SOL    HW222843   6.787   1.451   4.485  2.4595  0.3955 -4.3546
 7425SOL     OW22844   7.339   3.801   2.206  0.5400  0.2415  0.1360
 7425SOL    HW122845   7.359   3.816   2.298 -1.0355  2.5732  0.1881
 7425SOL    HW222846   7.263   3.857   2.189 -0.3213 -1.4757 -2.1424
 7426SOL     OW22847   6.406   2.814   1.758  0.7475  0.5782 -0.1244
 7426SOL    HW122848   6.373   2.810   1.668  0.2235 -0.5355  0.1088
 7426SOL    HW222849   6.372   2.736   1.800 -1.3853  2.4547  1.8842
 7427SOL     OW22850   2.310   6.669   0.939 -0.0288 -0.3184 -0.1462
 7427SOL    HW122851   2.231   6.640   0.893  0.6580 -2.7402  0.0546
 7427SOL    HW222852   2.277   6.716   1.015 -1.2188  1.0334 -1.4383
 7428SOL     OW22853   3.706   5.254   0.604 -0.2899  0.3192 -0.0396
 7428SOL    HW122854   3.684   5.180   0.661  1.5067  1.1825  1.9466
 7428SOL    HW222855   3.781   5.223   0.552 -0.1530  0.4141  0.0986
 7429SOL     OW22856   1.875   1.937   3.291  0.8315  0.0814  0.0500
 7429SOL    HW122857   1.965   1.954   3.261  0.7230  1.3295  0.3765
 7429SOL    HW222858   1.856   2.009   3.351 -0.1132 -0.6122  0.5933
 7430SOL     OW22859   1.575   2.883   6.886  0.2340  0.1610 -0.3174
 7430SOL    HW122860   1.601   2.849   6.800  1.1954 -1.0505  0.4195
 7430SOL    HW222861   1.656   2.915   6.925  0.3146 -1.5733  1.0992
 7431SOL     OW22862   1.331   6.838   2.300  0.2198 -0.3494  0.5211
 7431SOL    HW122863   1.381   6.795   2.231  2.1990 -1.1706  2.3488
 7431SOL    HW222864   1.249   6.864   2.258  1.5167 -0.3673 -2.2254
 7432SOL     OW22865   6.957   0.982   0.326  0.4778  0.6797  0.0233
 7432SOL    HW122866   6.950   0.889   0.304 -1.8918  0.7829  0.0933
 7432SOL    HW222867   6.942   0.986   0.420  1.2041  1.0965  0.1301
 7433SOL     OW22868   2.209   0.066   2.155  0.7114  0.0637 -0.4660
 7433SOL    HW122869   2.125   0.031   2.128  0.5591 -0.4718  0.6458
 7433SOL    HW222870   2.192   0.109   2.239  1.6086 -0.3810 -0.0354
 7434SOL     OW22871   1.258   7.392   0.115  0.7121  0.4118 -0.1944
 7434SOL    HW122872   1.242   7.469   0.061 -0.1684  0.6002  0.3303
 7434SOL    HW222873   1.256   7.319   0.054  0.5376  0.6997 -0.5339
 7435SOL     OW22874   4.668   3.356   2.842  0.2346  0.0451  0.3955
 7435SOL    HW122875   4.735   3.288   2.847  0.3678  0.2046  0.7878
 7435SOL    HW222876   4.683   3.397   2.756  0.1045 -0.4667  0.1260
 7436SOL     OW22877   3.073   3.534   1.812  0.1473  0.1657  0.0889
 7436SOL    HW122878   3.051   3.573   1.728  1.6864  1.0946  0.0703
 7436SOL    HW222879   3.119   3.603   1.859  0.3090 -0.6977  1.2534
 7437SOL     OW22880   4.054   4.100   0.739 -0.2645  0.0745 -0.1692
 7437SOL    HW122881   4.088   4.092   0.650 -2.8242 -3.1953 -1.0495
 7437SOL    HW222882   4.027   4.192   0.746  1.1337  0.7169 -2.2879
 7438SOL     OW22883   1.196   6.303   6.382 -0.1546 -0.2585 -0.7123
 7438SOL    HW122884   1.255   6.343   6.318 -0.1527 -0.3123 -0.7447
 7438SOL    HW222885   1.108   6.321   6.349 -0.1498 -1.7812 -1.6789
 7439SOL     OW22886   3.356   2.793   7.225  0.2664 -0.2136  0.6256
 7439SOL    HW122887   3.313   2.746   7.153 -0.7579  0.6490  0.6493
 7439SOL    HW222888   3.396   2.870   7.183 -0.4133  0.3425  0.9763
 7440SOL     OW22889   3.555   6.997   1.192 -0.3324  0.0820 -0.6911
 7440SOL    HW122890   3.595   6.911   1.175  2.4532  1.1238  0.1324
 7440SOL    HW222891   3.514   7.021   1.109 -2.1966 -2.4536 -0.6492
 7441SOL     OW22892   7.259   1.872   2.508  0.1961  0.4623  0.5891
 7441SOL    HW122893   7.172   1.857   2.546  0.0575 -0.0356  0.0963
 7441SOL    HW222894   7.279   1.963   2.528 -0.7563  0.7960  0.0746
 7442SOL     OW22895   5.789   6.444   7.057  0.3242  0.0666  0.3607
 7442SOL    HW122896   5.711   6.432   7.111  1.0216 -1.9970  1.0032
 7442SOL    HW222897   5.764   6.510   6.992 -1.5123  0.3953  1.3435
 7443SOL     OW22898   1.983   0.997   4.692  0.2763  0.0239  0.1320
 7443SOL    HW122899   1.924   1.021   4.621 -1.1239  1.1340  1.5790
 7443SOL    HW222900   2.070   1.010   4.656 -0.3890  1.0652 -1.2214
 7444SOL     OW22901   1.432   3.665   3.528  0.7048 -0.3883  0.1344
 7444SOL    HW122902   1.418   3.633   3.438 -1.6095  2.0829 -0.5341
 7444SOL    HW222903   1.513   3.715   3.523  0.3179  0.1763 -0.7458
 7445SOL     OW22904   6.187   2.538   4.163 -0.4298  0.4358 -0.1304
 7445SOL    HW122905   6.245   2.492   4.102 -0.3076  0.6589 -0.1820
 7445SOL    HW222906   6.107   2.553   4.114 -1.0144 -0.9963  0.3298
 7446SOL     OW22907   6.385   5.210   4.807 -0.1188  0.0611 -0.0230
 7446SOL    HW122908   6.322   5.174   4.869 -0.6844  0.8736 -0.1120
 7446SOL    HW222909   6.396   5.301   4.833  0.1530  0.2332 -0.7101
 7447SOL     OW22910   1.089   1.799   0.325 -0.4504  0.0246  0.7667
 7447SOL    HW122911   1.015   1.781   0.383 -0.8876  0.0048  0.2015
 7447SOL    HW222912   1.059   1.870   0.268  0.0041  0.0965  0.6085
 7448SOL     OW22913   1.418   0.600   3.812  0.4672  0.2030 -0.7742
 7448SOL    HW122914   1.336   0.629   3.852 -0.2771 -2.0000 -0.5460
 7448SOL    HW222915   1.428   0.654   3.734  1.9609  4.6743  2.1273
 7449SOL     OW22916   3.215   4.016   6.333  0.5777  0.3713 -0.0950
 7449SOL    HW122917   3.235   3.931   6.371  1.3127 -0.5226 -2.3539
 7449SOL    HW222918   3.222   4.077   6.407  4.6365 -0.8370  0.7841
 7450SOL     OW22919   0.267   0.227   4.400  0.7446 -0.1489  0.0800
 7450SOL    HW122920   0.285   0.175   4.478  0.4652  1.0346  0.9561
 7450SOL    HW222921   0.328   0.301   4.405  0.6071  0.0390 -0.7354
 7451SOL     OW22922   2.737   6.919   3.896  0.4523  0.2116  0.2743
 7451SOL    HW122923   2.800   6.978   3.855 -1.9687 -0.0130 -4.4587
 7451SOL    HW222924   2.778   6.832   3.889  0.7289  0.3760 -0.1905
 7452SOL     OW22925   6.068   2.121   3.325 -0.3265 -0.2185  0.7254
 7452SOL    HW122926   5.991   2.071   3.298 -0.2148  0.2796 -0.5380
 7452SOL    HW222927   6.045   2.155   3.411 -2.2087  1.3276 -0.3300
 7453SOL     OW22928   0.976   6.919   1.525 -0.5325  0.0540 -0.0711
 7453SOL    HW122929   0.987   6.824   1.517 -2.8798 -0.3374  0.6423
 7453SOL    HW222930   0.909   6.930   1.592  0.8125  2.3091  1.0023
 7454SOL     OW22931   3.180   3.849   0.105  0.7054  0.4033  0.1181
 7454SOL    HW122932   3.109   3.880   0.160  1.0552  0.8828  0.3129
 7454SOL    HW222933   3.137   3.798   0.036  0.2249  0.2321  0.5369
 7455SOL     OW22934   0.478   3.165   1.822  0.1990 -0.1773  0.9184
 7455SOL    HW122935   0.416   3.227   1.862  1.2660  0.6338  1.3797
 7455SOL    HW222936   0.562   3.211   1.825  0.4089 -0.2230 -1.9842
 7456SOL     OW22937   5.316   3.704   3.549 -0.4484  0.2946 -0.0336
 7456SOL    HW122938   5.248   3.692   3.482 -0.8430 -0.2590  0.4518
 7456SOL    HW222939   5.334   3.615   3.580 -0.8305  0.6213  1.1372
 7457SOL     OW22940   5.145   1.557   0.078  0.2242 -0.2508  0.4024
 7457SOL    HW122941   5.165   1.590  -0.009  2.0479  0.5757  1.0743
 7457SOL    HW222942   5.172   1.465   0.076 -0.3145 -0.3998 -0.0751
 7458SOL     OW22943   7.144   4.518   2.938 -0.1351 -0.4299  0.5573
 7458SOL    HW122944   7.108   4.606   2.936  0.3376 -0.2510 -0.1347
 7458SOL    HW222945   7.119   4.479   2.855  1.6099 -0.1575 -0.1406
 7459SOL     OW22946   4.550   0.394   1.406  0.0398  0.0924  0.1600
 7459SOL    HW122947   4.623   0.453   1.422 -0.2560  0.9678 -1.4713
 7459SOL    HW222948   4.583   0.307   1.428  1.3030  0.5738  0.2253
 7460SOL     OW22949   4.931   7.309   5.419  0.0949  0.1817 -0.3104
 7460SOL    HW122950   4.979   7.269   5.492 -0.1373  0.2903 -0.0978
 7460SOL    HW222951   4.848   7.338   5.457 -0.4978 -0.7638 -0.8671
 7461SOL     OW22952   7.049   4.708   2.181 -0.2230 -0.0288 -0.0667
 7461SOL    HW122953   6.994   4.662   2.118 -0.0655 -1.1074  0.5698
 7461SOL    HW222954   7.008   4.693   2.266  0.3665  0.1931  0.2643
 7462SOL     OW22955   0.731   2.452   1.208  0.0679  0.6409 -0.2283
 7462SOL    HW122956   0.794   2.383   1.187 -0.7702 -0.7178  1.4388
 7462SOL    HW222957   0.708   2.491   1.124  1.8753  0.0723 -1.0351
 7463SOL     OW22958   5.990   3.888   5.166 -0.0194  0.2073  0.8471
 7463SOL    HW122959   6.008   3.798   5.190  2.6841  0.3505 -0.3175
 7463SOL    HW222960   6.002   3.891   5.071  0.5592  1.9028  0.9402
 7464SOL     OW22961   0.019   0.376   4.432 -0.3920 -0.0594 -0.3631
 7464SOL    HW122962   0.099   0.347   4.389  0.3645 -0.1957  1.0642
 7464SOL    HW222963   0.002   0.463   4.396 -0.3388 -0.5478 -1.6112
 7465SOL     OW22964   6.734   2.705   5.583  0.4850  0.6980  0.5734
 7465SOL    HW122965   6.732   2.674   5.493 -0.7517 -0.1679  0.8851
 7465SOL    HW222966   6.783   2.788   5.578  2.6058 -0.5177 -0.4800
 7466SOL     OW22967   3.862   5.800   3.502  0.0919  0.1632  0.1302
 7466SOL    HW122968   3.858   5.883   3.453 -0.2908 -0.2893 -0.6192
 7466SOL    HW222969   3.799   5.812   3.573  0.3451  0.6671  0.2808
 7467SOL     OW22970   2.990   0.933   4.082  0.3126 -0.1200  0.1863
 7467SOL    HW122971   2.957   0.876   4.151  0.7192 -0.7405 -0.1263
 7467SOL    HW222972   2.914   0.949   4.026  0.2115 -0.4075  0.2407
 7468SOL     OW22973   0.463   2.183   2.719  0.2657  0.0112 -0.0700
 7468SOL    HW122974   0.427   2.131   2.647 -0.2272 -1.2022  1.0335
 7468SOL    HW222975   0.394   2.183   2.786  1.1889  0.0802  0.9029
 7469SOL     OW22976   5.733   5.269   3.980  0.5224 -0.1379 -0.1919
 7469SOL    HW122977   5.777   5.330   4.040  1.2599 -0.8471  0.0074
 7469SOL    HW222978   5.776   5.282   3.896 -1.1727  1.5715 -0.8761
 7470SOL     OW22979   1.280   0.540   0.069 -0.1718 -1.2484  0.1068
 7470SOL    HW122980   1.325   0.462   0.100 -0.5315 -1.2464  0.6398
 7470SOL    HW222981   1.292   0.605   0.138 -1.8292 -1.5599  0.7478
 7471SOL     OW22982   6.694   6.754   0.762  0.2736  0.2214  0.8929
 7471SOL    HW122983   6.635   6.821   0.728 -1.3989 -0.9731  1.3007
 7471SOL    HW222984   6.775   6.801   0.782 -1.0266  2.2568  1.7356
 7472SOL     OW22985   5.297   6.484   4.308  0.8559 -0.5103 -0.5231
 7472SOL    HW122986   5.236   6.429   4.357  0.6980  0.6433  0.6242
 7472SOL    HW222987   5.253   6.500   4.224  0.2291 -0.8848 -0.2725
 7473SOL     OW22988   5.054   4.127   4.746 -0.1660 -0.0506 -0.2443
 7473SOL    HW122989   4.961   4.108   4.757 -0.2270  0.4269  0.1215
 7473SOL    HW222990   5.060   4.169   4.660  0.0718 -2.2801 -1.3678
 7474SOL     OW22991   1.512   0.837   4.389 -0.0225 -0.5792  0.1312
 7474SOL    HW122992   1.459   0.875   4.459 -0.0100 -0.5027  0.0987
 7474SOL    HW222993   1.469   0.865   4.308  0.7481  0.4744  0.0745
 7475SOL     OW22994   5.524   5.676   3.583  0.7426  0.2020 -0.3449
 7475SOL    HW122995   5.505   5.616   3.655 -0.2515 -0.8245 -1.4218
 7475SOL    HW222996   5.438   5.703   3.552  1.1694  0.9370 -0.9057
 7476SOL     OW22997   1.116   1.272   1.146  0.1219 -0.3731 -0.2483
 7476SOL    HW122998   1.112   1.192   1.094  1.7190 -0.9587  0.4439
 7476SOL    HW222999   1.200   1.265   1.193 -0.6234  0.7721  1.3309
 7477SOL     OW23000   6.848   5.476   2.854  0.1552  0.7267 -0.0157
 7477SOL    HW123001   6.943   5.473   2.842  0.0974  0.1029 -0.3776
 7477SOL    HW223002   6.836   5.488   2.948  0.5900  0.5512  0.0654
 7478SOL     OW23003   6.955   0.384   0.706  0.0605  0.0566  0.4411
 7478SOL    HW123004   7.010   0.461   0.691  0.1101  0.0935  0.7986
 7478SOL    HW223005   7.010   0.323   0.755  0.1390 -0.3627 -0.1603
 7479SOL     OW23006   0.158   2.514   6.296  0.3300  0.6775  0.1718
 7479SOL    HW123007   0.244   2.480   6.321 -0.4076 -0.2497  1.5398
 7479SOL    HW223008   0.109   2.519   6.378 -1.3181  0.0532 -0.7294
 7480SOL     OW23009   4.373   5.451   0.841 -0.0990  0.6652  0.3575
 7480SOL    HW123010   4.466   5.456   0.861  0.5362  2.7817 -2.4822
 7480SOL    HW223011   4.369   5.422   0.750 -2.1516  1.4258  0.1377
 7481SOL     OW23012   4.271   0.614   0.321  0.0470  0.7879  0.3125
 7481SOL    HW123013   4.180   0.584   0.317  0.7361 -1.4429 -0.2860
 7481SOL    HW223014   4.288   0.626   0.414 -0.7207  0.7453  0.4689
 7482SOL     OW23015   1.924   0.099   7.270  0.4506  0.2672 -0.3997
 7482SOL    HW123016   1.910   0.187   7.304  0.6199 -0.0946  0.6340
 7482SOL    HW223017   1.995   0.108   7.206  0.4050  0.8886 -0.3621
 7483SOL     OW23018   6.328   3.934   5.068 -0.1769 -0.3920 -0.4474
 7483SOL    HW123019   6.305   3.939   5.161 -1.3213 -0.1753 -0.7263
 7483SOL    HW223020   6.368   4.018   5.049  0.3592 -0.5587 -0.0774
 7484SOL     OW23021   6.794   0.083   1.455 -0.0062 -0.0371 -0.0551
 7484SOL    HW123022   6.801   0.088   1.360  1.1726  0.2042  0.0346
 7484SOL    HW223023   6.746   0.163   1.480 -0.2090 -0.0410 -0.4263
 7485SOL     OW23024   2.869   0.505   2.900 -0.0149  0.3857  0.3633
 7485SOL    HW123025   2.855   0.484   2.808 -0.8699  0.4029  0.4881
 7485SOL    HW223026   2.964   0.495   2.912  0.3030  1.6030 -0.8282
 7486SOL     OW23027   0.759   5.747   5.565  0.1618  0.1625 -0.3534
 7486SOL    HW123028   0.727   5.758   5.654  0.4720 -0.1215 -0.2053
 7486SOL    HW223029   0.771   5.653   5.555 -2.3694 -0.1149 -1.5832
 7487SOL     OW23030   5.565   6.764   7.258  0.6005  0.7010 -0.3387
 7487SOL    HW123031   5.471   6.778   7.250  0.0547 -2.0893  0.0918
 7487SOL    HW223032   5.602   6.801   7.178 -0.7556  2.3421 -0.2539
 7488SOL     OW23033   1.192   4.346   2.608 -0.0452  0.1060 -0.4103
 7488SOL    HW123034   1.262   4.319   2.666 -1.0129 -0.4875  0.5122
 7488SOL    HW223035   1.144   4.413   2.657 -1.2907 -0.8995 -0.2003
 7489SOL     OW23036   3.292   2.819   5.441  0.3892 -0.1809  0.3209
 7489SOL    HW123037   3.324   2.809   5.351 -1.7024 -1.5386 -0.3226
 7489SOL    HW223038   3.280   2.730   5.472 -0.3152  0.2882  1.4379
 7490SOL     OW23039   6.521   1.994   4.854  0.8573  0.2023 -0.0612
 7490SOL    HW123040   6.476   1.929   4.799 -1.6508  1.7540  0.0026
 7490SOL    HW223041   6.570   1.941   4.917  0.2404 -1.6269 -1.0250
 7491SOL     OW23042   4.862   6.863   4.276 -0.1356 -0.0261 -0.0396
 7491SOL    HW123043   4.772   6.842   4.251 -0.4083  0.9339  0.0871
 7491SOL    HW223044   4.856   6.880   4.370  0.0881  0.4915 -0.1172
 7492SOL     OW23045   5.764   2.561   1.556  0.0239 -0.0153 -0.0868
 7492SOL    HW123046   5.673   2.565   1.528  0.2709  0.1330 -0.8745
 7492SOL    HW223047   5.760   2.521   1.643 -0.7842 -0.0614 -0.1365
 7493SOL     OW23048   2.886   1.640   4.629 -0.3839  0.1312 -0.5742
 7493SOL    HW123049   2.947   1.577   4.666 -0.2703  0.8773  0.5581
 7493SOL    HW223050   2.931   1.676   4.553  0.2742  0.1278 -0.1871
 7494SOL     OW23051   6.632   2.825   2.993  0.5052  0.4662 -0.2839
 7494SOL    HW123052   6.652   2.875   3.072  1.2425 -0.0724 -0.1165
 7494SOL    HW223053   6.717   2.811   2.952  0.2175  0.0401 -0.7458
 7495SOL     OW23054   3.675   7.250   1.154 -0.5101  0.0121  0.0700
 7495SOL    HW123055   3.648   7.166   1.191  0.9103 -2.4770 -3.9123
 7495SOL    HW223056   3.613   7.267   1.083  0.0734  1.6082 -0.1095
 7496SOL     OW23057   0.028   3.946   6.331 -0.6976  0.4249 -0.3353
 7496SOL    HW123058  -0.032   3.871   6.328 -1.2653  0.8897 -0.7999
 7496SOL    HW223059   0.027   3.981   6.242  1.7310 -0.6794 -0.8586
 7497SOL     OW23060   0.544   3.038   6.979 -0.2213  0.5880 -0.7443
 7497SOL    HW123061   0.552   3.048   7.074  1.1720  4.4842 -1.0974
 7497SOL    HW223062   0.453   3.011   6.965 -1.1167  2.0795  1.6491
 7498SOL     OW23063   6.566   7.320   6.563  0.1915  0.4551  0.0275
 7498SOL    HW123064   6.577   7.292   6.472 -0.4466  1.2784 -0.3163
 7498SOL    HW223065   6.628   7.393   6.572 -0.4270  0.9944 -0.0380
 7499SOL     OW23066   5.274   1.710   2.850 -0.7364 -0.0984 -0.1561
 7499SOL    HW123067   5.291   1.641   2.786  1.9865 -1.1053  1.4776
 7499SOL    HW223068   5.327   1.784   2.819 -0.6991 -0.0342  0.0603
 7500SOL     OW23069   7.152   6.109   6.680  0.0510  0.4259  0.1612
 7500SOL    HW123070   7.118   6.037   6.625 -0.2869  0.6229  0.1093
 7500SOL    HW223071   7.238   6.078   6.708 -0.9026 -0.9010  1.8212
 7501SOL     OW23072   7.308   3.164   0.333  0.0068 -0.2966  0.0003
 7501SOL    HW123073   7.403   3.172   0.323  0.0340 -1.5767 -1.0827
 7501SOL    HW223074   7.298   3.092   0.397 -0.2424  0.0930  0.4027
 7502SOL     OW23075   4.902   2.368   6.886  0.6862  0.0835 -0.4338
 7502SOL    HW123076   4.836   2.412   6.940 -0.9244 -1.9874 -0.5774
 7502SOL    HW223077   4.965   2.332   6.949  0.7424  0.6188 -0.1810
 7503SOL     OW23078   4.142   4.901   6.665 -0.4388  0.1356  0.5812
 7503SOL    HW123079   4.153   4.885   6.571 -1.9749  0.3266  0.3463
 7503SOL    HW223080   4.075   4.838   6.692 -0.7821  0.8027  1.3182
 7504SOL     OW23081   4.942   0.269   6.551  0.7581 -0.2130 -0.5341
 7504SOL    HW123082   4.895   0.312   6.622  1.8941  0.1079  0.0523
 7504SOL    HW223083   5.033   0.298   6.562  1.3621 -1.8956 -0.7789
 7505SOL     OW23084   2.294   0.157   0.698  0.2123  0.0196  0.0139
 7505SOL    HW123085   2.268   0.229   0.755 -3.3401 -0.0748 -1.2697
 7505SOL    HW223086   2.276   0.078   0.749  2.0431 -0.0766  0.5998
 7506SOL     OW23087   2.908   0.488   2.132  0.5068 -0.0673 -0.1067
 7506SOL    HW123088   2.877   0.435   2.205  0.5241  2.2361  1.7059
 7506SOL    HW223089   2.849   0.467   2.060 -1.0817 -0.6489  1.2888
 7507SOL     OW23090   4.770   0.766   6.291 -0.1863  0.9600 -0.5300
 7507SOL    HW123091   4.756   0.834   6.356  0.2035  2.0096 -1.4979
 7507SOL    HW223092   4.767   0.684   6.340  3.5610  1.7968  1.5112
 7508SOL     OW23093   4.896   6.354   2.465 -0.2088  0.1338  0.1210
 7508SOL    HW123094   4.898   6.398   2.381 -1.3982  0.6529  0.3461
 7508SOL    HW223095   4.845   6.275   2.450  1.3988 -0.8986 -0.1354
 7509SOL     OW23096   6.001   7.175   6.444  0.3508  0.2597  0.2910
 7509SOL    HW123097   6.072   7.115   6.422 -1.3684 -0.9795 -2.2341
 7509SOL    HW223098   6.000   7.238   6.372 -1.2936  0.0511  0.1027
 7510SOL     OW23099   4.048   2.522   5.997  0.1812  0.1192 -0.7758
 7510SOL    HW123100   4.018   2.566   5.918 -1.4899  0.7789  0.1665
 7510SOL    HW223101   4.109   2.585   6.038  0.4548  0.0967 -1.1430
 7511SOL     OW23102   3.043   0.750   3.333 -0.0370  0.2002 -0.3002
 7511SOL    HW123103   3.134   0.756   3.303  0.0240 -0.3932 -0.2345
 7511SOL    HW223104   2.992   0.746   3.252  0.2650 -3.8433 -0.4968
 7512SOL     OW23105   6.035   4.609   2.821 -0.0724 -0.6764 -0.2718
 7512SOL    HW123106   6.023   4.675   2.752 -1.3404 -1.2752 -0.6687
 7512SOL    HW223107   5.971   4.632   2.887  1.3868  0.1041  0.9290
 7513SOL     OW23108   2.743   3.713   2.915  0.6101 -0.1837 -0.0767
 7513SOL    HW123109   2.814   3.686   2.974 -0.2486 -1.2513  0.5050
 7513SOL    HW223110   2.711   3.795   2.953  1.0143 -0.1077  0.1075
 7514SOL     OW23111   0.379   3.942   7.238 -0.4412 -0.2275  0.5179
 7514SOL    HW123112   0.368   3.847   7.241 -1.3040 -0.2542 -1.7392
 7514SOL    HW223113   0.290   3.976   7.225  0.2185  0.5828 -2.6040
 7515SOL     OW23114   4.829   5.179   1.531  0.0139  0.0315  0.2123
 7515SOL    HW123115   4.809   5.219   1.447  0.4833 -0.1868 -0.0038
 7515SOL    HW223116   4.843   5.254   1.590 -0.0016  0.1807  0.0266
 7516SOL     OW23117   6.910   5.514   3.465  0.0321  0.0612 -0.3955
 7516SOL    HW123118   6.863   5.543   3.387 -0.5189  0.2466  0.0017
 7516SOL    HW223119   6.910   5.418   3.459 -1.1928  0.0096  0.0422
 7517SOL     OW23120   5.326   0.881   0.361  0.2253  0.1595 -0.1919
 7517SOL    HW123121   5.276   0.923   0.292  0.2124 -1.7818 -1.4364
 7517SOL    HW223122   5.408   0.930   0.364  0.1688  0.3672 -1.4770
 7518SOL     OW23123   3.029   1.906   1.192 -0.0009  0.0666 -0.2120
 7518SOL    HW123124   3.112   1.915   1.143  0.5128 -0.6773  0.5052
 7518SOL    HW223125   2.981   1.986   1.170  0.8804  0.4912 -0.6887
 7519SOL     OW23126   2.491   4.537   1.491  0.0517  0.5083 -0.2043
 7519SOL    HW123127   2.492   4.529   1.586 -0.1691 -0.6849 -0.2886
 7519SOL    HW223128   2.548   4.612   1.472  0.7891  0.2207  0.8174
 7520SOL     OW23129   4.934   4.307   3.832  0.0867  0.4660  0.0231
 7520SOL    HW123130   4.926   4.368   3.905 -3.2306 -0.8113  0.9276
 7520SOL    HW223131   5.004   4.247   3.857 -0.3929  0.6001  1.7888
 7521SOL     OW23132   0.853   0.074   0.089  0.0909  0.2894 -0.0657
 7521SOL    HW123133   0.763   0.041   0.087 -0.6694  1.5965  3.7121
 7521SOL    HW223134   0.897   0.020   0.154 -0.0053  3.5785  3.0790
 7522SOL     OW23135   3.783   4.299   5.389  0.2226  0.1790 -0.0403
 7522SOL    HW123136   3.772   4.207   5.415  1.3732  0.4231  1.4144
 7522SOL    HW223137   3.747   4.349   5.461  0.2462  0.8853 -0.5089
 7523SOL     OW23138   3.892   1.187   0.063 -0.2786  0.0484  0.1000
 7523SOL    HW123139   3.916   1.237   0.141 -0.3068  2.4569 -1.3415
 7523SOL    HW223140   3.797   1.179   0.069 -0.1983 -0.5132  0.7166
 7524SOL     OW23141   1.360   3.217   6.808  0.0282 -0.5769 -0.2798
 7524SOL    HW123142   1.355   3.275   6.885  3.1450  1.7598 -1.6201
 7524SOL    HW223143   1.304   3.143   6.830 -1.7544  1.4804  2.8811
 7525SOL     OW23144   3.925   2.835   3.909 -0.4205  0.4987  0.3685
 7525SOL    HW123145   3.983   2.911   3.913  0.0027  0.2253 -0.3693
 7525SOL    HW223146   3.940   2.788   3.991  2.3166 -0.9358 -0.8527
 7526SOL     OW23147   3.658   5.139   1.919  0.5396 -0.3068 -0.2400
 7526SOL    HW123148   3.652   5.232   1.896  0.5513 -0.4297 -0.7448
 7526SOL    HW223149   3.584   5.099   1.874 -0.3711 -0.3164  1.1781
 7527SOL     OW23150   6.611   3.938   6.646 -0.9261  0.3195  0.0482
 7527SOL    HW123151   6.705   3.931   6.666 -0.9879  0.3439  0.3479
 7527SOL    HW223152   6.568   3.903   6.723 -1.1678  0.3521 -0.0720
 7528SOL     OW23153   0.777   1.770   3.574 -0.1097  0.0951  0.4281
 7528SOL    HW123154   0.715   1.789   3.504  0.9508 -1.1776 -0.9295
 7528SOL    HW223155   0.863   1.785   3.534  0.5065  0.3670  1.7934
 7529SOL     OW23156   4.197   2.082   0.517  0.5755  0.2020  0.8132
 7529SOL    HW123157   4.226   2.162   0.473  0.6855  0.4994  1.4076
 7529SOL    HW223158   4.138   2.113   0.586  0.4069 -0.2482  0.8740
 7530SOL     OW23159   6.161   5.123   0.798 -0.4840  0.9856 -0.0397
 7530SOL    HW123160   6.148   5.206   0.752 -2.1375  1.0468  0.4652
 7530SOL    HW223161   6.228   5.142   0.864  0.4289  1.4292 -1.0557
 7531SOL     OW23162   3.848   6.469   6.926  0.3290  0.1678 -0.3858
 7531SOL    HW123163   3.894   6.494   7.006  0.2932  0.1368 -0.3553
 7531SOL    HW223164   3.836   6.551   6.879 -1.1877  0.4536  0.4444
 7532SOL     OW23165   3.929   6.789   0.570  0.5917 -0.0968 -0.1905
 7532SOL    HW123166   3.951   6.805   0.662  0.0405 -0.8717  0.0952
 7532SOL    HW223167   3.922   6.693   0.564 -0.0343 -0.0177 -0.8799
 7533SOL     OW23168   0.774   5.031   4.330  1.2256 -0.3876 -0.0467
 7533SOL    HW123169   0.720   5.103   4.298 -0.1871 -1.4276 -0.1008
 7533SOL    HW223170   0.857   5.072   4.356  0.4192  1.2577  0.0247
 7534SOL     OW23171   3.544   1.621   6.283  0.0115  0.3065 -0.4660
 7534SOL    HW123172   3.591   1.603   6.364 -0.2757 -0.2503 -0.4154
 7534SOL    HW223173   3.457   1.582   6.297 -0.4945  1.3907 -0.5236
 7535SOL     OW23174   1.450   2.151   1.414 -0.8268  0.6324  0.4542
 7535SOL    HW123175   1.444   2.234   1.460 -0.8020  0.5906  0.5324
 7535SOL    HW223176   1.424   2.085   1.478 -2.7759  0.7422 -0.1706
 7536SOL     OW23177   3.201   1.186   0.224 -0.1563 -0.2140  0.4816
 7536SOL    HW123178   3.107   1.179   0.241 -0.4742 -0.0263 -1.0183
 7536SOL    HW223179   3.226   1.270   0.261 -0.3879 -0.6507  1.6583
 7537SOL     OW23180   0.351   2.291   3.428 -0.5241  0.3865 -0.4501
 7537SOL    HW123181   0.328   2.384   3.421  1.4741  1.0714  1.0297
 7537SOL    HW223182   0.273   2.245   3.401 -1.7858  2.5099 -0.6681
 7538SOL     OW23183   6.699   4.394   5.696  0.0040  0.0778 -0.5551
 7538SOL    HW123184   6.751   4.467   5.730 -0.7440 -0.0132  0.8532
 7538SOL    HW223185   6.755   4.317   5.707  0.1872  0.2148 -0.5274
 7539SOL     OW23186   0.356   6.636   5.805  0.5970 -0.0205  0.4749
 7539SOL    HW123187   0.275   6.586   5.797  0.1915 -0.1544  3.8363
 7539SOL    HW223188   0.327   6.727   5.818  0.8789 -0.1462  2.2573
 7540SOL     OW23189   6.903   3.805   6.365 -0.0663 -0.4597 -0.3000
 7540SOL    HW123190   6.877   3.896   6.354  1.3867  0.0742  0.4547
 7540SOL    HW223191   6.974   3.808   6.429 -0.8669 -2.2595  0.7524
 7541SOL     OW23192   2.871   0.415   2.654 -0.1691 -0.0820  0.6003
 7541SOL    HW123193   2.937   0.453   2.597 -1.3708  0.5790 -0.4165
 7541SOL    HW223194   2.890   0.321   2.655 -0.1226 -0.1149 -0.9391
 7542SOL     OW23195   0.538   6.255   3.808 -0.2628  0.2399  0.0033
 7542SOL    HW123196   0.465   6.226   3.864 -1.0926  1.7501 -0.2312
 7542SOL    HW223197   0.495   6.304   3.737  1.0168  3.1709  1.0692
 7543SOL     OW23198   5.047   4.356   6.096 -0.1213  0.5871  0.5299
 7543SOL    HW123199   4.985   4.293   6.058 -0.2861  0.7926  0.4529
 7543SOL    HW223200   5.004   4.385   6.176  1.1434 -1.3906  1.9921
 7544SOL     OW23201   1.624   4.833   0.626  0.2156  0.4876  0.0081
 7544SOL    HW123202   1.619   4.871   0.714 -0.8139  1.1019 -0.3003
 7544SOL    HW223203   1.681   4.892   0.577  2.4241 -0.9093  0.7504
 7545SOL     OW23204   6.267   2.960   6.938  0.3998  0.4273  0.5196
 7545SOL    HW123205   6.258   3.032   6.875  0.7007  0.9232  1.0306
 7545SOL    HW223206   6.319   2.894   6.892 -0.9866 -0.0468 -0.4346
 7546SOL     OW23207   1.504   3.998   2.436 -0.5733 -0.0452  0.2476
 7546SOL    HW123208   1.500   3.935   2.364 -1.6722  0.3851 -0.0938
 7546SOL    HW223209   1.458   4.075   2.403 -2.4095 -0.3521  1.8782
 7547SOL     OW23210   6.312   2.432   2.292 -0.2101  0.0786  0.2150
 7547SOL    HW123211   6.260   2.363   2.332 -0.2575  0.3256  0.5871
 7547SOL    HW223212   6.343   2.395   2.209  0.6372 -0.7685  0.8917
 7548SOL     OW23213   2.136   3.856   1.465 -0.1281  0.0956  0.0953
 7548SOL    HW123214   2.136   3.771   1.422  0.9298 -0.0483  0.3469
 7548SOL    HW223215   2.226   3.867   1.497  0.1510  1.9401 -1.1868
 7549SOL     OW23216   5.677   2.928   6.566  0.3582  0.0476  0.3114
 7549SOL    HW123217   5.748   2.926   6.501  2.2403 -2.0866  2.2382
 7549SOL    HW223218   5.720   2.946   6.649 -1.7678  1.2268  1.2324
 7550SOL     OW23219   4.106   3.789   2.738  0.0755 -0.3606 -0.5362
 7550SOL    HW123220   4.029   3.845   2.736  0.8929  0.8979  1.1593
 7550SOL    HW223221   4.073   3.703   2.766 -0.7615  0.0333 -0.3078
 7551SOL     OW23222   3.452   4.662   1.896 -0.0890 -0.1742  0.5056
 7551SOL    HW123223   3.483   4.643   1.807 -0.4628  1.7570 -0.0653
 7551SOL    HW223224   3.366   4.620   1.901 -1.1670  1.7360 -0.9308
 7552SOL     OW23225   4.264   0.933   6.889  0.0992  0.0544 -1.0945
 7552SOL    HW123226   4.359   0.927   6.892  0.2395  0.9276 -2.6709
 7552SOL    HW223227   4.243   0.939   6.796 -1.2783  2.4899 -0.7199
 7553SOL     OW23228   2.601   4.165   0.966 -0.3362  0.9032 -0.0092
 7553SOL    HW123229   2.563   4.132   0.885  0.6446 -0.6797  0.1405
 7553SOL    HW223230   2.531   4.159   1.030 -0.2615 -0.7549 -0.0391
 7554SOL     OW23231   1.454   5.998   3.663  0.3832 -0.7121 -0.4338
 7554SOL    HW123232   1.483   6.022   3.752  0.7898  0.1785 -0.7920
 7554SOL    HW223233   1.360   6.013   3.664  0.5902  0.7437 -0.5725
 7555SOL     OW23234   5.112   5.119   3.064  0.1303  0.3573 -0.2360
 7555SOL    HW123235   5.098   5.057   2.992 -0.7033  0.7685 -0.4455
 7555SOL    HW223236   5.100   5.206   3.024  0.5785  0.6273  0.2018
 7556SOL     OW23237   4.209   0.321   7.263 -0.2819  0.5075 -0.7568
 7556SOL    HW123238   4.206   0.313   7.358 -1.3785 -2.7675 -0.9268
 7556SOL    HW223239   4.243   0.237   7.233  0.9993  1.8064 -3.2625
 7557SOL     OW23240   2.227   5.227   5.216 -0.4071 -0.5981 -0.7824
 7557SOL    HW123241   2.289   5.240   5.287  0.7056 -3.8283 -0.9972
 7557SOL    HW223242   2.141   5.238   5.258  0.1559  2.7461 -0.2240
 7558SOL     OW23243   2.665   3.555   5.821 -0.3528  0.4416 -0.2250
 7558SOL    HW123244   2.627   3.468   5.806 -1.5740  1.0463 -0.7801
 7558SOL    HW223245   2.729   3.566   5.750 -0.0103 -0.0919 -0.0060
 7559SOL     OW23246   6.824   0.835   5.599  0.1847  0.6856 -0.3414
 7559SOL    HW123247   6.833   0.919   5.554 -1.4058  0.8233 -0.4685
 7559SOL    HW223248   6.896   0.833   5.662  1.1329  1.4671 -1.3689
 7560SOL     OW23249   2.191   5.230   6.210 -0.0536  0.0346 -0.4310
 7560SOL    HW123250   2.172   5.318   6.242  0.9912  0.2642 -0.4155
 7560SOL    HW223251   2.274   5.239   6.164  0.3340 -1.0599  0.0386
 7561SOL     OW23252   1.758   1.061   3.572  0.0880  0.2023 -0.4255
 7561SOL    HW123253   1.680   1.115   3.586 -0.7065 -1.0934  0.4121
 7561SOL    HW223254   1.814   1.082   3.647  0.0350  0.2807 -0.4064
 7562SOL     OW23255   6.964   5.208   5.662  0.0202  0.3875  0.2896
 7562SOL    HW123256   7.058   5.194   5.647 -0.3154 -1.0471 -0.5837
 7562SOL    HW223257   6.928   5.121   5.673 -1.2517  0.9178  0.5305
 7563SOL     OW23258   1.207   4.373   5.348 -0.6215  0.2455 -0.4740
 7563SOL    HW123259   1.146   4.391   5.420 -1.0231 -1.7522 -0.2702
 7563SOL    HW223260   1.204   4.453   5.294  0.0374  1.9714  1.9105
 7564SOL     OW23261   3.061   5.072   7.270 -0.0298  0.4004  0.2162
 7564SOL    HW123262   2.969   5.061   7.244 -0.4243  1.0506  1.2507
 7564SOL    HW223263   3.060   5.056   7.365  1.4347 -2.5143 -0.1585
 7565SOL     OW23264   2.566   0.925   1.438  0.2987 -0.2718 -0.2368
 7565SOL    HW123265   2.618   0.921   1.358 -0.5745 -2.4679 -0.7553
 7565SOL    HW223266   2.630   0.911   1.508  1.2862  2.9581 -0.3430
 7566SOL     OW23267   5.389   7.009   0.398 -0.2559 -0.1983  0.2384
 7566SOL    HW123268   5.377   7.051   0.312 -2.0346  1.1491  1.0782
 7566SOL    HW223269   5.424   7.078   0.453  1.4885 -1.2360  0.4938
 7567SOL     OW23270   5.939   4.477   3.179 -0.1354  0.5202  0.1494
 7567SOL    HW123271   5.885   4.553   3.201 -1.5795 -0.5910  0.5996
 7567SOL    HW223272   5.932   4.419   3.255 -1.2224 -1.2193 -1.1740
 7568SOL     OW23273   0.640   6.053   2.649  0.7532  0.1263 -0.1441
 7568SOL    HW123274   0.671   6.111   2.580 -0.6750  0.2532 -0.7031
 7568SOL    HW223275   0.621   6.111   2.723 -1.1343  0.4926 -0.8600
 7569SOL     OW23276   5.034   5.071   6.106  0.5856  0.0292 -0.5319
 7569SOL    HW123277   5.029   5.065   6.201 -1.3468 -1.3983 -0.6513
 7569SOL    HW223278   5.077   4.991   6.079  2.1819  0.9547 -0.8512
 7570SOL     OW23279   4.629   4.989   1.616 -0.2068  0.5162 -0.4972
 7570SOL    HW123280   4.695   5.037   1.567  2.2866  2.2326  4.0296
 7570SOL    HW223281   4.660   4.898   1.615 -0.6078  0.3554 -2.4780
 7571SOL     OW23282   6.616   3.066   4.283 -0.0215  0.5167  0.1055
 7571SOL    HW123283   6.637   3.145   4.234 -0.2626 -0.0060 -0.8773
 7571SOL    HW223284   6.700   3.022   4.295  0.0593  0.7219  0.3162
 7572SOL     OW23285   0.435   0.401   0.847  0.0652 -0.2875  0.2188
 7572SOL    HW123286   0.447   0.374   0.938  0.3531 -0.4197  0.1453
 7572SOL    HW223287   0.420   0.319   0.800  2.3454 -0.5100 -0.2266
 7573SOL     OW23288   0.263   6.716   3.235 -0.1562 -0.1548 -0.1463
 7573SOL    HW123289   0.314   6.796   3.245 -1.4007  0.6557 -0.1284
 7573SOL    HW223290   0.192   6.739   3.175 -0.3369 -1.3430 -0.4194
 7574SOL     OW23291   3.383   5.834   7.241  0.5404  0.1891  0.4745
 7574SOL    HW123292   3.431   5.801   7.165  1.1754  1.9094  0.0931
 7574SOL    HW223293   3.319   5.894   7.205 -0.4148 -0.3672  1.1809
 7575SOL     OW23294   3.227   3.598   5.649 -1.0176  0.1396  0.2594
 7575SOL    HW123295   3.199   3.625   5.561 -2.0317  0.9788  0.8143
 7575SOL    HW223296   3.316   3.632   5.658  0.5942 -3.0062 -1.7365
 7576SOL     OW23297   2.785   1.081   1.781 -0.2277 -0.7682 -0.0346
 7576SOL    HW123298   2.812   1.164   1.741 -1.2575 -0.2707  0.2660
 7576SOL    HW223299   2.838   1.074   1.860  0.1656 -0.6041 -0.2824
 7577SOL     OW23300   6.738   0.321   1.579 -0.5220 -0.2584 -0.1109
 7577SOL    HW123301   6.764   0.273   1.658 -0.2326 -1.3624 -0.8563
 7577SOL    HW223302   6.675   0.386   1.610  2.5698  2.1452  1.7199
 7578SOL     OW23303   5.619   5.733   1.818  0.2335 -0.6837 -0.2526
 7578SOL    HW123304   5.603   5.813   1.868  1.6058 -0.3905 -0.2555
 7578SOL    HW223305   5.700   5.698   1.854 -0.5670 -2.3274  0.0369
 7579SOL     OW23306   6.732   5.957   0.615 -0.2692  0.6187  0.4834
 7579SOL    HW123307   6.794   5.937   0.545 -1.0369 -0.1016 -0.0076
 7579SOL    HW223308   6.667   6.013   0.573 -2.1071 -1.8031 -0.1081
 7580SOL     OW23309   0.910   2.793   5.837 -0.6719  0.0145 -0.6518
 7580SOL    HW123310   0.964   2.732   5.787 -2.1429 -1.2762 -0.7476
 7580SOL    HW223311   0.891   2.864   5.776 -2.2889 -1.4482 -1.9439
 7581SOL     OW23312   3.447   7.085   3.416  0.3992  0.1579 -0.8514
 7581SOL    HW123313   3.458   7.091   3.321  0.2477 -1.2885 -0.9844
 7581SOL    HW223314   3.507   7.014   3.442  1.6044  1.5447  0.3628
 7582SOL     OW23315   3.554   4.881   3.608  0.2914  0.6379  0.3422
 7582SOL    HW123316   3.530   4.815   3.674 -0.0198  0.3098 -0.0932
 7582SOL    HW223317   3.648   4.893   3.619  0.2960  0.3509  0.6357
 7583SOL     OW23318   4.552   2.904   0.305 -0.3358 -0.8899 -0.5660
 7583SOL    HW123319   4.635   2.891   0.261  0.3078 -1.2196  0.6963
 7583SOL    HW223320   4.513   2.816   0.309 -0.4096 -0.8560 -0.5305
 7584SOL     OW23321   7.391   0.526   3.059  0.5548 -0.1324 -0.4322
 7584SOL    HW123322   7.384   0.615   3.094  0.2563  0.3692 -1.7002
 7584SOL    HW223323   7.398   0.470   3.136 -1.0162  0.8345  0.4660
 7585SOL     OW23324   3.721   1.107   0.843 -0.3688 -0.2711  0.4109
 7585SOL    HW123325   3.697   1.198   0.858  1.4827  0.0870  1.5403
 7585SOL    HW223326   3.770   1.108   0.761 -0.8048 -0.3521  0.1458
 7586SOL     OW23327   7.090   4.127   1.263 -0.4541  0.5384  0.0735
 7586SOL    HW123328   7.073   4.161   1.351  0.1655  0.8352  0.0896
 7586SOL    HW223329   7.024   4.169   1.208 -0.8021  0.4042  0.3828
 7587SOL     OW23330   4.720   6.301   5.751 -0.1727 -0.1576 -0.0613
 7587SOL    HW123331   4.793   6.246   5.779 -0.3977 -0.2949  0.2562
 7587SOL    HW223332   4.664   6.243   5.699 -0.2088 -0.1283 -0.0552
 7588SOL     OW23333   6.216   1.416   4.240 -0.4866  0.1319 -0.6439
 7588SOL    HW123334   6.160   1.494   4.240  1.3380  1.6689  2.4216
 7588SOL    HW223335   6.295   1.443   4.193  0.7318  0.7830  1.5983
 7589SOL     OW23336   0.893   4.634   3.462  0.6327  0.5772  0.5150
 7589SOL    HW123337   0.800   4.615   3.449  1.1081 -1.5762 -0.1459
 7589SOL    HW223338   0.902   4.649   3.556 -0.5036  1.7805  0.4633
 7590SOL     OW23339   4.572   1.619   2.992  0.4271 -0.1337  0.3513
 7590SOL    HW123340   4.578   1.650   3.083  2.0396 -0.5652  0.4257
 7590SOL    HW223341   4.481   1.635   2.967 -0.1430 -0.3242  2.1541
 7591SOL     OW23342   0.823   5.197   0.685  0.1782 -0.2773 -0.4648
 7591SOL    HW123343   0.752   5.198   0.621 -1.4099 -2.0366  1.1862
 7591SOL    HW223344   0.823   5.286   0.721 -1.5470 -0.3797 -0.1279
 7592SOL     OW23345   4.530   0.099   1.696 -0.2469 -0.1744  0.2340
 7592SOL    HW123346   4.613   0.115   1.742 -0.1893 -2.2177  0.9097
 7592SOL    HW223347   4.463   0.136   1.753  0.0352 -0.3829  0.7043
 7593SOL     OW23348   5.895   4.635   2.439  0.0085  0.0157 -0.0368
 7593SOL    HW123349   5.906   4.692   2.515  1.3461 -2.2361  1.6064
 7593SOL    HW223350   5.832   4.569   2.467 -0.1917 -0.3187 -1.2200
 7594SOL     OW23351   2.259   4.616   6.215 -0.1560 -0.2312  0.1950
 7594SOL    HW123352   2.324   4.599   6.146  0.7432  0.2817  0.8945
 7594SOL    HW223353   2.218   4.531   6.231 -0.6679 -0.2788 -1.2439
 7595SOL     OW23354   2.176   0.708   1.438 -0.0867 -0.3220  0.4184
 7595SOL    HW123355   2.152   0.737   1.525 -1.5853  1.0868 -0.4100
 7595SOL    HW223356   2.243   0.770   1.408 -0.5128 -0.0108  0.0945
 7596SOL     OW23357   6.312   5.951   3.744  0.5991  0.0883 -0.1159
 7596SOL    HW123358   6.296   6.008   3.819  1.5334  0.3214 -0.0808
 7596SOL    HW223359   6.226   5.943   3.702  0.0974  0.1093  0.8572
 7597SOL     OW23360   5.376   4.212   5.670 -0.3069  0.6512  0.1382
 7597SOL    HW123361   5.410   4.153   5.603  0.1728  0.0691  0.8856
 7597SOL    HW223362   5.420   4.186   5.750 -0.7207  1.4782  0.6489
 7598SOL     OW23363   4.717   7.166   3.043 -0.4923  0.4838 -0.2240
 7598SOL    HW123364   4.812   7.157   3.043 -0.6342 -1.3330 -0.4206
 7598SOL    HW223365   4.696   7.193   2.953 -0.2112  0.1344 -0.3981
 7599SOL     OW23366   5.501   5.342   4.216 -0.4640 -0.1781 -0.5126
 7599SOL    HW123367   5.552   5.275   4.263 -0.9223 -0.4401 -0.3840
 7599SOL    HW223368   5.457   5.392   4.284 -0.6030 -0.1331 -0.6338
 7600SOL     OW23369   3.629   3.081   1.060 -0.1426 -0.4488 -0.0471
 7600SOL    HW123370   3.620   2.997   1.016  0.5657 -0.5154 -0.0648
 7600SOL    HW223371   3.603   3.146   0.995 -2.4200 -0.7342  0.4972
 7601SOL     OW23372   3.938   5.840   7.104  0.6206 -0.1960 -0.7533
 7601SOL    HW123373   3.961   5.754   7.139  0.2569 -0.1535 -0.4069
 7601SOL    HW223374   3.955   5.900   7.177  0.9760  0.0430 -1.0279
 7602SOL     OW23375   4.816   6.160   1.438 -0.4389  0.7005 -0.2816
 7602SOL    HW123376   4.849   6.077   1.404 -0.3707  1.1797 -1.4071
 7602SOL    HW223377   4.888   6.221   1.427  0.4075  0.4270  2.7564
 7603SOL     OW23378   5.193   6.686   0.836  0.2018 -0.0186  0.0317
 7603SOL    HW123379   5.211   6.713   0.745  0.8840  1.4645  0.5718
 7603SOL    HW223380   5.102   6.659   0.835  0.0593  0.4457 -0.9989
 7604SOL     OW23381   7.054   0.577   6.663 -0.2760 -0.3035 -0.1227
 7604SOL    HW123382   7.050   0.565   6.758 -0.5764  3.0014  0.3800
 7604SOL    HW223383   7.105   0.656   6.650  1.6902 -1.8428 -2.9218
 7605SOL     OW23384   2.142   4.142   7.161  0.6513 -0.2851  0.2581
 7605SOL    HW123385   2.192   4.080   7.108 -0.6931 -1.1841 -0.0033
 7605SOL    HW223386   2.155   4.226   7.117  1.7923 -0.5143  0.1200
 7606SOL     OW23387   5.536   2.053   0.749  0.1246  0.2222 -0.0871
 7606SOL    HW123388   5.527   2.144   0.775  0.0245  0.0330  0.5528
 7606SOL    HW223389   5.532   2.055   0.653 -0.6788  0.8027 -0.0539
 7607SOL     OW23390   5.337   1.465   6.083 -0.1522 -0.2365  0.2026
 7607SOL    HW123391   5.403   1.397   6.082  0.6791  0.5428 -1.1873
 7607SOL    HW223392   5.297   1.461   5.996  0.7424  1.7717 -0.3669
 7608SOL     OW23393   6.656   7.412   3.061  0.4918 -0.5748 -0.0691
 7608SOL    HW123394   6.582   7.374   3.015  0.9592 -0.8447 -0.6137
 7608SOL    HW223395   6.696   7.472   2.998  1.3295 -1.1896 -0.1526
 7609SOL     OW23396   4.175   5.680   1.715 -0.4251 -0.0956  0.2823
 7609SOL    HW123397   4.210   5.598   1.749  3.4720  0.9099 -0.7786
 7609SOL    HW223398   4.173   5.738   1.791 -0.2015 -0.3345  0.4733
 7610SOL     OW23399   5.138   1.590   2.071 -0.4589 -0.3333 -0.1882
 7610SOL    HW123400   5.145   1.684   2.050 -0.4999 -0.3041 -0.0709
 7610SOL    HW223401   5.074   1.586   2.142  0.9271 -0.2627  1.1273
 7611SOL     OW23402   2.236   4.392   4.429 -0.8709 -0.4369  0.2847
 7611SOL    HW123403   2.211   4.435   4.347  1.9431 -0.5894 -0.7524
 7611SOL    HW223404   2.218   4.299   4.413 -0.0184 -0.5103 -0.3298
 7612SOL     OW23405   6.775   4.709   0.107 -0.1916 -0.1521  0.2107
 7612SOL    HW123406   6.685   4.741   0.106  0.4065  1.8256  2.1773
 7612SOL    HW223407   6.828   4.786   0.090  1.2667 -0.1213  3.8823
 7613SOL     OW23408   6.851   1.116   2.207 -0.8666  0.1487  0.3171
 7613SOL    HW123409   6.920   1.164   2.161  0.3456 -0.8641  1.0241
 7613SOL    HW223410   6.837   1.166   2.288 -2.6468  1.6496 -0.8437
 7614SOL     OW23411   0.388   2.714   7.022  0.1859 -0.6682 -0.5626
 7614SOL    HW123412   0.293   2.728   7.024  0.1351 -0.6081 -2.0715
 7614SOL    HW223413   0.422   2.768   7.093 -0.7501  0.8289 -1.2084
 7615SOL     OW23414   2.581   0.868   7.241 -0.3429 -0.0460 -0.1178
 7615SOL    HW123415   2.491   0.892   7.218 -1.0237 -0.4980  1.8808
 7615SOL    HW223416   2.576   0.844   7.334  1.9054  0.2133  0.1157
 7616SOL     OW23417   2.255   3.963   0.873 -0.3261  0.2072 -0.0965
 7616SOL    HW123418   2.180   3.994   0.823 -0.0509  2.6369  0.8291
 7616SOL    HW223419   2.224   3.960   0.964  0.0524 -1.0563  0.0058
 7617SOL     OW23420   1.594   5.609   1.559 -0.6137 -0.7003 -0.6776
 7617SOL    HW123421   1.536   5.576   1.629 -0.4727  0.2105 -0.1138
 7617SOL    HW223422   1.641   5.531   1.529 -0.3526 -1.0502  0.5631
 7618SOL     OW23423   0.901   6.909   2.240  0.6005 -0.6866 -0.4284
 7618SOL    HW123424   0.968   6.975   2.224  0.1647  0.0736  0.7845
 7618SOL    HW223425   0.829   6.933   2.180 -0.1338  0.8357  0.9642
 7619SOL     OW23426   4.144   4.440   5.819 -0.0527  0.8707  0.0822
 7619SOL    HW123427   4.223   4.455   5.766 -0.6321  1.3088 -0.6832
 7619SOL    HW223428   4.149   4.347   5.843  0.4200  0.7570 -0.4264
 7620SOL     OW23429   3.080   2.401   5.882  0.1785 -0.1754  0.1841
 7620SOL    HW123430   3.124   2.333   5.831 -0.4574 -0.6069  0.2016
 7620SOL    HW223431   3.014   2.437   5.822  0.8720  0.8178 -0.0121
 7621SOL     OW23432   1.931   2.833   4.298  0.2262 -0.0148 -0.3398
 7621SOL    HW123433   1.836   2.843   4.306 -0.0396 -1.6036 -1.1224
 7621SOL    HW223434   1.943   2.746   4.260  2.0445 -0.4765  1.1224
 7622SOL     OW23435   2.690   5.181   4.696  0.0265  0.2385 -0.1319
 7622SOL    HW123436   2.693   5.264   4.743  0.6842  0.0971  0.0920
 7622SOL    HW223437   2.768   5.182   4.641 -1.5943  1.1486 -2.5477
 7623SOL     OW23438   6.413   0.575   0.702 -0.0796  0.6027  0.6305
 7623SOL    HW123439   6.397   0.611   0.615  0.4528  1.5344  0.9024
 7623SOL    HW223440   6.414   0.652   0.759  1.5409  0.2169  1.1652
 7624SOL     OW23441   5.692   0.362   4.792 -0.0243  0.7861  0.6306
 7624SOL    HW123442   5.641   0.326   4.720 -1.3377  2.3243  0.7415
 7624SOL    HW223443   5.750   0.426   4.750  3.0052 -1.8997  0.2876
 7625SOL     OW23444   1.316   3.691   1.983  0.0207  0.2291  0.0283
 7625SOL    HW123445   1.392   3.711   1.928  0.9863 -0.0631  1.2267
 7625SOL    HW223446   1.254   3.762   1.965  0.7111  0.6712 -0.6817
 7626SOL     OW23447   1.613   1.183   6.800 -0.4239  0.6074  0.3778
 7626SOL    HW123448   1.660   1.259   6.766  1.8971 -0.4650  1.0252
 7626SOL    HW223449   1.535   1.177   6.744  2.3464 -0.1339 -3.9131
 7627SOL     OW23450   3.477   6.803   2.556  0.2810  0.5963 -0.8377
 7627SOL    HW123451   3.555   6.858   2.556  0.8477 -0.1606 -2.0461
 7627SOL    HW223452   3.404   6.864   2.565  0.9338  1.4505 -1.2451
 7628SOL     OW23453   3.280   3.027   1.037  0.3058  0.5240 -0.6252
 7628SOL    HW123454   3.185   3.022   1.037  0.2798  0.9707 -0.4456
 7628SOL    HW223455   3.300   3.119   1.052  0.7731  0.2535  0.5824
 7629SOL     OW23456   0.437   1.513   1.575  0.1968 -0.5043 -0.5388
 7629SOL    HW123457   0.511   1.554   1.619  1.2406 -2.9946  0.2208
 7629SOL    HW223458   0.477   1.455   1.510 -1.1080 -1.5913 -0.4094
 7630SOL     OW23459   5.389   6.273   5.131 -0.8325 -0.1869 -0.0347
 7630SOL    HW123460   5.414   6.184   5.106  0.8846  0.5808 -1.3078
 7630SOL    HW223461   5.441   6.292   5.209  0.7856  0.5367 -1.2344
 7631SOL     OW23462   4.345   0.556   4.254 -0.5213 -0.1808  0.2855
 7631SOL    HW123463   4.363   0.486   4.317  1.2082 -0.1688 -0.1376
 7631SOL    HW223464   4.418   0.552   4.192 -0.3888  1.9595  0.2161
 7632SOL     OW23465   3.483   6.052   7.420 -1.0080 -0.3147  0.0907
 7632SOL    HW123466   3.440   5.997   7.354 -2.7036  0.1873  0.7299
 7632SOL    HW223467   3.521   6.124   7.369 -1.8591 -0.1974 -0.3952
 7633SOL     OW23468   4.592   1.640   1.047 -0.0851  0.5037  0.4427
 7633SOL    HW123469   4.588   1.707   0.979  1.1337  2.0422  1.8098
 7633SOL    HW223470   4.677   1.598   1.035 -0.5099 -0.2905  0.0954
 7634SOL     OW23471   6.346   4.473   2.951  0.3925 -0.2287  0.4588
 7634SOL    HW123472   6.440   4.491   2.958  0.4602 -0.7917  1.0847
 7634SOL    HW223473   6.331   4.397   3.008  0.0277 -1.8831 -1.6988
 7635SOL     OW23474   4.774   4.779   5.829 -0.1034 -1.0333 -0.0427
 7635SOL    HW123475   4.754   4.753   5.919 -0.2443 -0.1459  0.1914
 7635SOL    HW223476   4.698   4.831   5.802 -0.0219 -1.2175 -0.6424
 7636SOL     OW23477   1.744   0.131   6.522  0.8697 -0.2053 -0.1252
 7636SOL    HW123478   1.791   0.120   6.439  2.1681  1.9550  0.2385
 7636SOL    HW223479   1.657   0.094   6.506  0.6399  1.2320 -2.9044
 7637SOL     OW23480   2.133   6.863   6.324 -0.0239  0.4304  0.0639
 7637SOL    HW123481   2.110   6.956   6.332 -0.7034  0.2605  0.1439
 7637SOL    HW223482   2.220   6.857   6.363 -0.1366  0.9650  0.4142
 7638SOL     OW23483   2.751   1.456   1.122 -0.1845 -0.0985 -0.0093
 7638SOL    HW123484   2.693   1.498   1.186 -0.0572 -0.9134  0.6567
 7638SOL    HW223485   2.835   1.501   1.134 -0.0543 -0.5201  0.6825
 7639SOL     OW23486   1.334   4.314   6.071  0.3727  0.2817 -0.0470
 7639SOL    HW123487   1.391   4.294   6.144  0.6291  1.0551 -0.0316
 7639SOL    HW223488   1.262   4.365   6.109  0.0479 -0.0606 -0.1879
 7640SOL     OW23489   0.836   3.823   7.296  0.0793  0.1448 -0.4898
 7640SOL    HW123490   0.758   3.874   7.277 -0.4878 -0.9846 -1.3363
 7640SOL    HW223491   0.813   3.734   7.270  1.5877 -0.2379 -0.5993
 7641SOL     OW23492   6.972   1.935   7.303 -0.0320 -0.4256  0.1441
 7641SOL    HW123493   6.989   2.011   7.247 -1.0516  0.7203  1.3145
 7641SOL    HW223494   7.039   1.939   7.371 -0.2226 -0.4183  0.3350
 7642SOL     OW23495   2.204   4.466   3.350 -0.1306 -0.1689  0.1208
 7642SOL    HW123496   2.205   4.374   3.324 -0.8290  0.0649 -0.7767
 7642SOL    HW223497   2.242   4.513   3.276 -0.4979  0.3396  0.2488
 7643SOL     OW23498   1.378   4.696   3.626  0.2593  0.0314 -0.7508
 7643SOL    HW123499   1.451   4.684   3.565 -0.6755 -1.6054 -1.6386
 7643SOL    HW223500   1.375   4.614   3.675 -0.1151  0.6368  0.2593
 7644SOL     OW23501   5.169   2.754   3.571 -0.6579  0.6645 -0.0540
 7644SOL    HW123502   5.216   2.815   3.628  0.0984 -0.1052  0.1553
 7644SOL    HW223503   5.221   2.674   3.572 -1.5220  0.0749 -0.4985
 7645SOL     OW23504   3.627   0.176   6.909 -0.2248 -0.4290 -0.2213
 7645SOL    HW123505   3.718   0.193   6.933 -0.0635 -1.4798 -0.0230
 7645SOL    HW223506   3.600   0.253   6.859  0.1171  0.8199  1.4453
 7646SOL     OW23507   3.653   3.619   7.241 -0.1261 -0.2181  0.6010
 7646SOL    HW123508   3.692   3.660   7.165 -0.1502  0.9198  1.1874
 7646SOL    HW223509   3.727   3.603   7.300 -0.3730  0.9173  1.2436
 7647SOL     OW23510   6.501   5.002   0.580 -0.6997 -0.3734 -0.0473
 7647SOL    HW123511   6.559   4.963   0.516 -1.3011 -0.5679 -0.4860
 7647SOL    HW223512   6.414   4.997   0.540 -1.2431 -1.3799  1.1867
 7648SOL     OW23513   4.711   5.285   4.951  0.5162 -0.3929  0.5085
 7648SOL    HW123514   4.627   5.268   4.995 -1.2977  1.1136 -2.0967
 7648SOL    HW223515   4.770   5.219   4.987 -1.9288 -1.9580  1.9906
 7649SOL     OW23516   1.120   2.395   1.984  0.4304 -0.0116 -0.0770
 7649SOL    HW123517   1.028   2.370   2.000  0.1622  1.4910  0.9238
 7649SOL    HW223518   1.131   2.385   1.890 -0.8732  0.1186 -0.2693
 7650SOL     OW23519   7.340   3.617   7.142  0.4944 -0.4284 -0.6322
 7650SOL    HW123520   7.421   3.581   7.178  1.0565  2.7931  1.7801
 7650SOL    HW223521   7.275   3.602   7.210 -0.0687  0.0673 -1.0552
 7651SOL     OW23522   3.982   1.545   7.002  0.2933 -0.3445 -0.1932
 7651SOL    HW123523   4.034   1.625   7.013 -0.1097 -0.0687 -0.2720
 7651SOL    HW223524   3.905   1.559   7.057 -1.2906  0.6424 -2.5032
 7652SOL     OW23525   6.852   0.539   6.077  0.3013  0.1070 -0.3749
 7652SOL    HW123526   6.787   0.473   6.101 -0.8968  1.7103  1.0312
 7652SOL    HW223527   6.923   0.527   6.141  1.7456 -1.9964 -2.2401
 7653SOL     OW23528   0.570   0.820   4.101  0.0635 -0.3257  0.6311
 7653SOL    HW123529   0.536   0.761   4.034  0.6394 -1.3249  1.1997
 7653SOL    HW223530   0.504   0.889   4.107  0.1718  0.0004 -1.2081
 7654SOL     OW23531   0.787   3.967   5.346  0.3981 -0.1683  0.0254
 7654SOL    HW123532   0.859   3.959   5.408 -1.6348  0.8627  2.7430
 7654SOL    HW223533   0.739   4.045   5.375 -2.5278 -1.5079 -0.7988
 7655SOL     OW23534   0.046   3.656   0.820 -0.2733 -0.4702 -0.1247
 7655SOL    HW123535  -0.044   3.637   0.846 -0.3587 -0.1602 -0.1955
 7655SOL    HW223536   0.055   3.750   0.831 -1.0279  0.0959 -3.3501
 7656SOL     OW23537   7.198   5.877   6.940 -0.6769 -0.5558  0.2946
 7656SOL    HW123538   7.124   5.930   6.969  0.1072  1.2117 -0.7920
 7656SOL    HW223539   7.245   5.855   7.020 -3.0903 -2.9772  1.1953
 7657SOL     OW23540   7.170   1.968   5.402 -0.5465 -0.2421 -0.1904
 7657SOL    HW123541   7.146   2.007   5.487  0.2442  2.6073 -1.1762
 7657SOL    HW223542   7.247   2.017   5.374  1.1690 -3.2609 -1.1724
 7658SOL     OW23543   0.911   1.068   1.863 -0.8271 -0.2795 -0.1928
 7658SOL    HW123544   0.924   1.160   1.884  2.5158 -0.6659 -0.0691
 7658SOL    HW223545   0.869   1.031   1.941  1.5480  0.4168  1.5411
 7659SOL     OW23546   4.195   5.610   4.174  0.6588  0.2861  0.5196
 7659SOL    HW123547   4.146   5.652   4.244 -3.4818 -0.6876 -1.4785
 7659SOL    HW223548   4.196   5.517   4.198  1.2264  0.2530  0.3785
 7660SOL     OW23549   5.331   2.005   1.559  0.2052 -0.0926  0.2750
 7660SOL    HW123550   5.244   1.987   1.595  0.6814 -0.9291  1.0615
 7660SOL    HW223551   5.327   1.975   1.468 -0.2895 -0.2247  0.3418
 7661SOL     OW23552   5.168   0.472   5.108 -0.7613  0.3350 -0.8324
 7661SOL    HW123553   5.192   0.383   5.081  0.3143  0.2941  0.1961
 7661SOL    HW223554   5.207   0.482   5.195 -2.2794  1.2306 -0.2149
 7662SOL     OW23555   6.799   6.046   6.033 -0.0874 -0.0579  0.1854
 7662SOL    HW123556   6.733   6.057   5.964  0.4921  1.6583 -0.1548
 7662SOL    HW223557   6.762   6.091   6.109  0.3535  0.2585  0.2173
 7663SOL     OW23558   4.237   0.831   0.803  0.0621  0.2102  0.6087
 7663SOL    HW123559   4.153   0.809   0.843  0.0562  0.3810  0.6887
 7663SOL    HW223560   4.214   0.874   0.721  0.0637  0.9399  0.9854
 7664SOL     OW23561   7.361   1.016   4.554 -0.9531  0.1643 -0.3379
 7664SOL    HW123562   7.355   0.922   4.536 -1.9545  0.2135 -0.3148
 7664SOL    HW223563   7.350   1.056   4.468 -0.2181  0.2630 -0.3936
 7665SOL     OW23564   4.108   2.951   2.119 -0.3590 -0.7222  0.4303
 7665SOL    HW123565   4.202   2.947   2.099 -0.0290 -0.6308  1.8557
 7665SOL    HW223566   4.071   2.875   2.076 -0.0692  0.5146 -2.2178
 7666SOL     OW23567   0.386   2.271   1.562  0.8326  0.1348 -0.7714
 7666SOL    HW123568   0.454   2.248   1.625 -0.3535 -1.8084 -0.1056
 7666SOL    HW223569   0.426   2.255   1.477  0.7967 -2.4846 -0.3644
 7667SOL     OW23570   3.024   0.556   1.517  0.3507 -0.5894 -0.4495
 7667SOL    HW123571   3.071   0.474   1.501  2.7655  0.8455 -1.1250
 7667SOL    HW223572   3.015   0.595   1.431  0.2129  0.3684 -0.0068
 7668SOL     OW23573   2.804   5.614   0.245  0.6140  0.8502 -0.0809
 7668SOL    HW123574   2.894   5.641   0.263  0.8858  2.1653 -2.9811
 7668SOL    HW223575   2.806   5.518   0.253  1.4883  1.0132  2.7648
 7669SOL     OW23576   5.998   2.118   6.068  0.2657  0.7541  0.3064
 7669SOL    HW123577   5.994   2.024   6.052  0.7748  0.6403  0.8136
 7669SOL    HW223578   5.972   2.158   5.985  0.0478  0.1649  0.0906
 7670SOL     OW23579   2.682   0.970   0.588 -0.0978  0.6849 -0.0127
 7670SOL    HW123580   2.740   1.012   0.524  0.3139 -1.1156 -0.8873
 7670SOL    HW223581   2.617   1.037   0.609 -0.6014  1.2009 -2.7871
 7671SOL     OW23582   4.544   7.315   3.619 -0.0548  0.1437 -0.1094
 7671SOL    HW123583   4.597   7.304   3.698  0.2891 -0.7314 -0.4532
 7671SOL    HW223584   4.483   7.386   3.641 -0.3816 -0.4941  1.1716
 7672SOL     OW23585   3.892   6.420   6.134  0.8980  0.1540 -0.0791
 7672SOL    HW123586   3.908   6.496   6.189  0.1585 -0.1931  0.6322
 7672SOL    HW223587   3.799   6.426   6.112  1.0513 -0.0365 -0.8025
 7673SOL     OW23588   2.840   5.254   7.035  0.1037 -0.2477 -0.8132
 7673SOL    HW123589   2.818   5.207   6.955  0.5484  1.0557 -1.7302
 7673SOL    HW223590   2.781   5.217   7.101 -2.0333  0.3296 -2.2911
 7674SOL     OW23591   6.651   3.600   2.776  0.0893  0.2131 -0.5164
 7674SOL    HW123592   6.656   3.511   2.813  0.4529 -0.0668 -1.2095
 7674SOL    HW223593   6.564   3.631   2.799  0.0006 -0.2807 -0.1589
 7675SOL     OW23594   4.558   3.754   4.994 -0.3894 -0.2700  0.3217
 7675SOL    HW123595   4.569   3.670   4.951  0.2670 -1.1777  2.1281
 7675SOL    HW223596   4.465   3.759   5.013 -0.0789 -2.1364  2.9452
 7676SOL     OW23597   2.143   5.741   6.383 -0.3135 -0.4096 -0.1180
 7676SOL    HW123598   2.229   5.759   6.420 -0.0546 -0.5385 -0.6378
 7676SOL    HW223599   2.082   5.752   6.456  0.0449  0.5507  0.0487
 7677SOL     OW23600   2.615   7.328   2.903  0.7470  0.2650 -0.1716
 7677SOL    HW123601   2.633   7.263   2.971  2.8813  0.1829 -0.7329
 7677SOL    HW223602   2.524   7.312   2.877  0.4765 -0.9007  1.3661
 7678SOL     OW23603   6.600   3.953   1.947 -0.0690  0.0235  0.3705
 7678SOL    HW123604   6.628   4.032   1.993  0.0381 -0.6508  1.5032
 7678SOL    HW223605   6.623   3.968   1.856 -1.1288  1.7961  0.3541
 7679SOL     OW23606   4.523   3.507   6.223  0.2181 -0.3540 -0.0006
 7679SOL    HW123607   4.530   3.462   6.307  1.1502  0.5149  0.4004
 7679SOL    HW223608   4.447   3.564   6.233 -0.9655 -1.7615 -0.5068
 7680SOL     OW23609   3.330   4.707   5.050  0.2853 -0.0309 -0.1261
 7680SOL    HW123610   3.370   4.699   4.964  0.2106  0.5847 -0.2233
 7680SOL    HW223611   3.373   4.640   5.103  0.2150 -0.5205 -0.6809
 7681SOL     OW23612   4.117   6.651   4.306  0.0117  0.1927  0.2109
 7681SOL    HW123613   4.179   6.603   4.251 -1.3383  1.2317 -2.3385
 7681SOL    HW223614   4.076   6.583   4.360 -0.6137 -1.3392 -2.0763
 7682SOL     OW23615   1.794   4.230   5.632  0.2249 -0.3414 -0.4226
 7682SOL    HW123616   1.699   4.221   5.633  0.1048  0.7725  0.9288
 7682SOL    HW223617   1.810   4.312   5.586  0.6371 -1.1034 -1.7142
 7683SOL     OW23618   3.901   1.705   4.799 -0.0243 -0.3368 -0.3429
 7683SOL    HW123619   3.822   1.759   4.802  0.0039 -0.3306  1.7459
 7683SOL    HW223620   3.907   1.676   4.707 -1.6348  0.8208 -0.8603
 7684SOL     OW23621   6.294   1.590   5.851 -0.4135  0.3336 -0.0272
 7684SOL    HW123622   6.243   1.552   5.922  1.2332 -0.8140  0.6092
 7684SOL    HW223623   6.361   1.642   5.895  0.3190  0.0154 -0.7374
 7685SOL     OW23624   3.580   6.058   6.951 -0.1665 -0.0204  0.5466
 7685SOL    HW123625   3.521   6.007   6.896 -0.4809 -0.6465  1.4321
 7685SOL    HW223626   3.667   6.040   6.916 -0.5013  1.1633 -0.9681
 7686SOL     OW23627   5.317   0.762   2.871  0.7666 -0.3393 -0.0897
 7686SOL    HW123628   5.387   0.777   2.935  1.0286 -0.2191 -0.4055
 7686SOL    HW223629   5.244   0.815   2.903  1.4209  1.0122 -0.7568
 7687SOL     OW23630   2.274   5.789   5.369  0.2871 -0.4795 -0.6132
 7687SOL    HW123631   2.214   5.731   5.322 -0.1320 -0.0777 -0.5872
 7687SOL    HW223632   2.317   5.732   5.433 -1.4562 -0.4488  0.6909
 7688SOL     OW23633   4.783   4.643   0.082 -0.1528 -0.3932 -0.2757
 7688SOL    HW123634   4.877   4.653   0.071 -0.1702  1.2000  0.7493
 7688SOL    HW223635   4.771   4.550   0.103  1.3383 -0.3155  1.0838
 7689SOL     OW23636   2.831   3.233   3.366 -0.2417 -0.8478 -0.1394
 7689SOL    HW123637   2.822   3.173   3.292 -0.2984 -0.5878 -0.3477
 7689SOL    HW223638   2.869   3.180   3.436  0.4740 -0.9297 -0.5780
 7690SOL     OW23639   1.283   1.738   3.821 -0.5033 -0.5110 -0.4785
 7690SOL    HW123640   1.257   1.679   3.892  0.0621 -0.1868  0.0060
 7690SOL    HW223641   1.352   1.690   3.775  0.5446  0.0964  0.4219
 7691SOL     OW23642   0.876   4.257   6.795  0.0534 -0.0243  0.0910
 7691SOL    HW123643   0.885   4.204   6.716  0.1925  1.2112 -0.7529
 7691SOL    HW223644   0.782   4.264   6.809  0.0307 -0.3340  0.1021
 7692SOL     OW23645   2.669   0.658   4.377  0.0886 -0.3067  0.3850
 7692SOL    HW123646   2.756   0.620   4.395  0.0704  0.0898  1.4078
 7692SOL    HW223647   2.624   0.654   4.462 -0.6862  0.0111 -0.0071
 7693SOL     OW23648   4.117   0.592   6.644 -0.3655 -0.7803  0.2781
 7693SOL    HW123649   4.157   0.506   6.658  0.3831 -1.1763 -3.2644
 7693SOL    HW223650   4.191   0.651   6.634 -0.8517 -0.0154  1.1202
 7694SOL     OW23651   2.592   4.430   7.196 -0.1790 -0.3630  0.0646
 7694SOL    HW123652   2.501   4.453   7.211 -0.3913 -1.2989  0.2280
 7694SOL    HW223653   2.624   4.498   7.135 -0.2933  1.3734  1.8289
 7695SOL     OW23654   0.709   2.843   5.070  0.3791 -0.5543  0.1863
 7695SOL    HW123655   0.775   2.842   5.140  0.4995 -1.9832  0.0884
 7695SOL    HW223656   0.759   2.852   4.989  0.2907  0.3682  0.2226
 7696SOL     OW23657   5.581   2.963   7.254  0.0573 -0.2247  0.2853
 7696SOL    HW123658   5.668   2.999   7.267 -1.2637  2.6419  2.1843
 7696SOL    HW223659   5.587   2.913   7.173  2.8654  1.8559 -0.9310
 7697SOL     OW23660   3.676   5.941   5.070 -0.3207  0.1070 -0.0931
 7697SOL    HW123661   3.633   5.931   5.155 -0.8946  1.3905 -0.2076
 7697SOL    HW223662   3.608   5.917   5.007 -0.3193  0.4426 -0.2238
 7698SOL     OW23663   5.406   0.042   6.470  0.1609 -0.8021 -0.1317
 7698SOL    HW123664   5.484   0.068   6.520  0.5328 -0.5271 -0.8392
 7698SOL    HW223665   5.437   0.037   6.379 -0.7186 -0.3836 -0.4631
 7699SOL     OW23666   6.129   4.901   6.528 -0.5884  0.1677  0.4412
 7699SOL    HW123667   6.124   4.810   6.556  0.9665  0.7887  3.0912
 7699SOL    HW223668   6.072   4.906   6.451 -0.0782 -3.1784 -0.2820
 7700SOL     OW23669   6.319   0.942   2.328 -0.5178  0.7613 -0.0127
 7700SOL    HW123670   6.380   0.876   2.296 -0.6139 -1.1569  3.2822
 7700SOL    HW223671   6.233   0.909   2.304 -0.5017  0.2169  0.6265
 7701SOL     OW23672   4.800   3.598   4.717 -0.0054  0.1573 -0.2110
 7701SOL    HW123673   4.803   3.647   4.799 -1.1476 -0.2727  0.1005
 7701SOL    HW223674   4.814   3.507   4.743 -0.1630  0.0424 -0.5279
 7702SOL     OW23675   6.491   2.991   2.652 -0.1880 -0.0846  0.0519
 7702SOL    HW123676   6.464   3.031   2.569  2.5970 -0.5536 -1.2009
 7702SOL    HW223677   6.414   2.942   2.681 -1.7011  1.2312 -1.4994
 7703SOL     OW23678   1.476   4.645   7.231 -0.6511 -0.1459  0.0596
 7703SOL    HW123679   1.495   4.678   7.319 -0.1698 -1.4350  0.4569
 7703SOL    HW223680   1.381   4.651   7.223 -0.5013  3.8311 -0.9214
 7704SOL     OW23681   3.752   0.737   2.132  0.1459  0.4149  0.1406
 7704SOL    HW123682   3.762   0.730   2.227  0.5292  0.1917  0.0872
 7704SOL    HW223683   3.760   0.830   2.113 -1.4729  0.6547  0.4893
 7705SOL     OW23684   7.165   6.457   5.805  0.5401 -0.2367  0.2485
 7705SOL    HW123685   7.123   6.511   5.739  1.3575  1.2715  0.9123
 7705SOL    HW223686   7.092   6.423   5.858  0.0708  1.5113  0.7723
 7706SOL     OW23687   5.789   2.266   3.135 -0.2658  0.3757  0.0959
 7706SOL    HW123688   5.730   2.341   3.147  1.1438  1.2617  2.1876
 7706SOL    HW223689   5.845   2.292   3.062 -1.5631  0.0927 -1.0387
 7707SOL     OW23690   0.891   0.990   7.082 -0.1790 -0.2171 -0.1012
 7707SOL    HW123691   0.816   0.933   7.097  0.4290 -1.1350 -0.4462
 7707SOL    HW223692   0.967   0.935   7.098  0.4631 -0.1478 -2.5103
 7708SOL     OW23693   0.125   5.317   0.361 -0.0421 -0.6046 -0.0562
 7708SOL    HW123694   0.093   5.379   0.296  0.7644 -0.0028  0.1067
 7708SOL    HW223695   0.097   5.354   0.445  2.1396  0.6354  0.1880
 7709SOL     OW23696   6.816   3.762   0.331  0.0295  0.5392  0.7296
 7709SOL    HW123697   6.803   3.823   0.258 -0.2516  1.9319  1.8880
 7709SOL    HW223698   6.888   3.800   0.381  0.9735 -0.9935  0.6114
 7710SOL     OW23699   4.605   2.629   6.405 -0.3561 -0.1919  0.2258
 7710SOL    HW123700   4.686   2.579   6.417  0.9227  1.8389  0.4696
 7710SOL    HW223701   4.560   2.621   6.489  1.0299  1.0438  1.1359
 7711SOL     OW23702   2.926   1.254   0.457 -0.0205 -0.3770  0.3184
 7711SOL    HW123703   2.887   1.190   0.398 -0.7624  0.4635 -0.1387
 7711SOL    HW223704   2.865   1.259   0.531 -1.3150  1.5257 -0.7664
 7712SOL     OW23705   1.033   3.696   3.268 -0.2250 -0.1168 -0.3165
 7712SOL    HW123706   1.017   3.785   3.297  0.4850 -0.3703  0.9288
 7712SOL    HW223707   1.003   3.641   3.340  2.4797 -0.7275  0.4936
 7713SOL     OW23708   1.205   4.160   3.994  0.0017 -0.3045  0.3236
 7713SOL    HW123709   1.127   4.199   3.953 -0.0904 -0.1236  0.6604
 7713SOL    HW223710   1.201   4.190   4.085  1.3871  1.1203 -0.0402
 7714SOL     OW23711   2.040   6.739   5.283  0.7941  0.6059 -0.5459
 7714SOL    HW123712   1.976   6.669   5.297  0.9535  0.4982 -0.3271
 7714SOL    HW223713   2.063   6.768   5.372  3.8008 -1.8940 -0.3328
 7715SOL     OW23714   4.995   3.809   3.064 -0.0932  0.3166  0.1559
 7715SOL    HW123715   5.038   3.759   2.995  0.8991  1.4399 -0.0499
 7715SOL    HW223716   5.066   3.845   3.116 -0.8159 -0.3343  1.6717
 7716SOL     OW23717   2.169   2.142   5.836  0.3262 -0.7118  0.2507
 7716SOL    HW123718   2.208   2.129   5.749  1.0355  1.0022  0.2675
 7716SOL    HW223719   2.081   2.105   5.828  1.0615 -2.4159 -0.5540
 7717SOL     OW23720   6.584   2.787   4.217  0.2218 -0.0643 -0.6880
 7717SOL    HW123721   6.532   2.723   4.265 -0.3174  0.4920 -0.5186
 7717SOL    HW223722   6.545   2.872   4.240  1.5731  0.4189 -0.0798
 7718SOL     OW23723   1.687   4.879   5.763  0.3495  0.3513 -0.4221
 7718SOL    HW123724   1.662   4.792   5.795 -0.4601  0.0041 -1.9119
 7718SOL    HW223725   1.740   4.916   5.834  0.7765 -1.3728  0.2144
 7719SOL     OW23726   5.600   5.465   7.078 -0.1991 -0.1156  0.1068
 7719SOL    HW123727   5.586   5.501   6.990  0.0586  1.1543  0.5698
 7719SOL    HW223728   5.690   5.489   7.099  0.0600 -1.2492  0.3513
 7720SOL     OW23729   6.314   3.085   2.434 -0.1143  0.2901 -0.2263
 7720SOL    HW123730   6.311   3.072   2.339  1.2371  0.4886 -0.3156
 7720SOL    HW223731   6.222   3.089   2.461 -0.5123 -0.0891 -1.4766
 7721SOL     OW23732   3.252   5.432   2.309 -0.2097  0.4187 -0.4440
 7721SOL    HW123733   3.336   5.446   2.353 -0.1214  0.8552 -0.7479
 7721SOL    HW223734   3.196   5.395   2.377  1.5869 -4.8104 -1.3668
 7722SOL     OW23735   0.435   4.123   6.198  0.2395 -0.2582 -0.3136
 7722SOL    HW123736   0.466   4.033   6.188  0.4850  0.1065 -4.0653
 7722SOL    HW223737   0.365   4.117   6.263  2.0655 -2.6101  1.6340
 7723SOL     OW23738   6.238   4.421   2.354  0.5958  0.5464  0.4462
 7723SOL    HW123739   6.190   4.339   2.370  0.6435  0.3516 -0.3423
 7723SOL    HW223740   6.174   4.477   2.308  0.2888  1.2810  1.7277
 7724SOL     OW23741   2.283   7.002   4.965 -0.1394  0.3870  0.8822
 7724SOL    HW123742   2.209   6.991   5.024  0.0420 -0.1758  1.0142
 7724SOL    HW223743   2.282   7.094   4.940 -0.6991  0.4451  1.1259
 7725SOL     OW23744   2.098   2.487   3.775  0.2816  0.2645 -0.4210
 7725SOL    HW123745   2.030   2.500   3.842 -1.1662 -0.8929 -1.6103
 7725SOL    HW223746   2.069   2.410   3.726  2.2519 -0.0002 -1.2502
 7726SOL     OW23747   3.665   0.872   0.116 -0.1483  0.5462 -0.0464
 7726SOL    HW123748   3.622   0.820   0.048 -2.3026 -0.9284  2.2610
 7726SOL    HW223749   3.618   0.955   0.116 -1.0710  0.0368  0.5060
 7727SOL     OW23750   3.385   0.205   2.151  0.2021  0.0232 -0.4608
 7727SOL    HW123751   3.361   0.122   2.191 -2.3734 -0.2341 -2.3452
 7727SOL    HW223752   3.366   0.270   2.219  0.1137 -0.7281  0.2513
 7728SOL     OW23753   2.590   4.033   6.818 -0.1098  0.3062 -0.0323
 7728SOL    HW123754   2.539   3.965   6.774  0.0233  1.2222 -1.7087
 7728SOL    HW223755   2.524   4.096   6.848 -0.0983  0.6137 -0.6310
 7729SOL     OW23756   5.831   6.797   6.621 -0.3352 -0.3106  0.3788
 7729SOL    HW123757   5.765   6.735   6.651  0.8334 -1.4003  0.8103
 7729SOL    HW223758   5.906   6.743   6.596  0.0354  0.8202 -1.0845
 7730SOL     OW23759   2.237   4.399   2.501  0.4050  0.4904 -0.2701
 7730SOL    HW123760   2.269   4.311   2.483  1.3496  0.5374  1.0357
 7730SOL    HW223761   2.309   4.457   2.477  0.7905  0.7052  1.2721
 7731SOL     OW23762   6.457   4.543   0.789  0.0693 -0.0518 -0.4932
 7731SOL    HW123763   6.442   4.459   0.747 -0.6258  0.5184 -1.4074
 7731SOL    HW223764   6.370   4.580   0.802  0.2289 -0.3202  1.7270
 7732SOL     OW23765   4.068   4.391   0.253 -0.0664  0.5046 -0.2051
 7732SOL    HW123766   4.027   4.306   0.262 -0.7409  0.9189  0.7448
 7732SOL    HW223767   4.049   4.417   0.163 -0.9185  0.1913 -0.1215
 7733SOL     OW23768   5.417   3.042   6.554  0.3006  0.0193 -0.3005
 7733SOL    HW123769   5.498   3.004   6.519  1.6134  1.2828  1.1917
 7733SOL    HW223770   5.404   3.121   6.501 -0.5751 -0.7288 -1.2303
 7734SOL     OW23771   1.840   6.991   2.781  0.0926  0.1412 -0.2580
 7734SOL    HW123772   1.829   6.896   2.789 -0.9730  0.1080 -1.7869
 7734SOL    HW223773   1.867   7.005   2.690 -0.0210  1.3361 -0.1249
 7735SOL     OW23774   5.902   5.804   5.164 -0.1163  0.1560  0.2205
 7735SOL    HW123775   5.851   5.796   5.245 -0.7336 -1.4423 -0.3067
 7735SOL    HW223776   5.836   5.816   5.096  0.3886  1.0764 -0.1249
 7736SOL     OW23777   0.380   2.233   0.473 -0.1017 -0.9664 -0.5961
 7736SOL    HW123778   0.286   2.251   0.472  0.2617  1.2221 -2.3903
 7736SOL    HW223779   0.400   2.205   0.384  1.0730 -0.6767 -0.4415
 7737SOL     OW23780   0.930   5.487   3.942 -0.0113  0.0805  0.4451
 7737SOL    HW123781   0.984   5.428   3.994  0.6189 -0.3050 -0.6003
 7737SOL    HW223782   0.840   5.466   3.967  0.1810 -1.5267 -0.0713
 7738SOL     OW23783   4.967   2.154   0.190 -0.4814  0.2485  0.3654
 7738SOL    HW123784   4.881   2.119   0.215  0.2530  0.1301  3.0644
 7738SOL    HW223785   4.999   2.197   0.270  2.3146 -0.4269 -0.3013
 7739SOL     OW23786   0.820   0.993   3.788 -0.1608 -0.3745  0.7533
 7739SOL    HW123787   0.748   0.954   3.738 -1.1535  0.7302  1.2723
 7739SOL    HW223788   0.890   0.928   3.784 -0.0555 -0.2090 -2.3352
 7740SOL     OW23789   3.622   4.823   1.247 -0.4355  0.2483  0.4094
 7740SOL    HW123790   3.706   4.812   1.202 -0.1961 -0.2157  0.9547
 7740SOL    HW223791   3.569   4.875   1.187 -0.1218 -0.3611 -0.4164
 7741SOL     OW23792   5.647   2.640   4.264  0.9488  0.0282 -0.3597
 7741SOL    HW123793   5.738   2.630   4.291  0.5883  0.8752  1.3456
 7741SOL    HW223794   5.637   2.734   4.248  0.6193 -0.1950 -1.5316
 7742SOL     OW23795   3.173   3.278   2.611  0.3092 -0.6435  0.2446
 7742SOL    HW123796   3.088   3.266   2.568  1.0468  0.0725 -1.5138
 7742SOL    HW223797   3.190   3.372   2.605 -0.1786 -0.2068  3.4958
 7743SOL     OW23798   2.611   5.085   4.426  0.2396  0.0834  0.0746
 7743SOL    HW123799   2.594   4.998   4.462  2.5538 -0.2703  0.4624
 7743SOL    HW223800   2.608   5.144   4.501  0.5739  0.0332  0.1299
 7744SOL     OW23801   3.878   0.617   5.188  0.0140  0.1039 -0.2392
 7744SOL    HW123802   3.923   0.700   5.201 -1.8943  1.2555 -0.6409
 7744SOL    HW223803   3.900   0.592   5.098  0.6035  0.1476 -0.1127
 7745SOL     OW23804   1.792   1.903   6.397  0.0036 -0.0309  0.2556
 7745SOL    HW123805   1.712   1.890   6.345  0.4630 -2.0169 -0.0584
 7745SOL    HW223806   1.853   1.945   6.337  0.2227 -1.4631 -0.5674
 7746SOL     OW23807   3.401   3.028   2.068  0.3219  0.5692  0.4836
 7746SOL    HW123808   3.322   3.042   2.121  0.9366  1.5857  1.1577
 7746SOL    HW223809   3.463   2.986   2.128 -0.0608 -1.2932 -0.3608
 7747SOL     OW23810   5.631   1.180   1.428  0.1537 -0.7995 -0.3040
 7747SOL    HW123811   5.652   1.092   1.396  0.1706 -0.2460 -1.9271
 7747SOL    HW223812   5.551   1.203   1.381  2.7760  1.9842 -3.9758
 7748SOL     OW23813   2.413   1.173   4.719  0.1194 -0.1214 -0.2823
 7748SOL    HW123814   2.394   1.190   4.626 -0.2272 -0.4185 -0.2659
 7748SOL    HW223815   2.488   1.229   4.738  0.5389 -0.4584 -0.8932
 7749SOL     OW23816   6.376   1.040   4.552 -0.2146  0.1491 -0.5913
 7749SOL    HW123817   6.373   1.025   4.457  1.8381  0.4083 -0.7564
 7749SOL    HW223818   6.427   0.967   4.586 -2.1697 -0.7508  0.5665
 7750SOL     OW23819   2.489   3.007   0.529  0.7104  0.8387  0.0776
 7750SOL    HW123820   2.412   3.060   0.546  2.1109  2.9492  0.2282
 7750SOL    HW223821   2.506   3.020   0.435  1.7292  1.6572  0.3570
 7751SOL     OW23822   1.745   3.522   5.402  0.7981 -0.0943 -0.3368
 7751SOL    HW123823   1.655   3.551   5.386 -0.0610 -2.1350  0.4236
 7751SOL    HW223824   1.779   3.503   5.316  0.6148  0.9512 -0.6582
 7752SOL     OW23825   6.940   6.867   5.804  0.5008 -0.1468  0.0706
 7752SOL    HW123826   6.886   6.849   5.881 -0.1056 -0.5642 -0.4340
 7752SOL    HW223827   6.963   6.960   5.811 -1.6006  0.4769 -0.4777
 7753SOL     OW23828   0.229   4.157   3.035 -0.0885 -0.3810  0.6563
 7753SOL    HW123829   0.145   4.202   3.045  0.6043  0.9776  0.5887
 7753SOL    HW223830   0.288   4.203   3.096  0.8289 -0.7326  0.0510
 7754SOL     OW23831   1.000   5.653   1.951  0.0748  0.0634  0.6240
 7754SOL    HW123832   0.959   5.576   1.911 -0.0085 -0.4940  1.7421
 7754SOL    HW223833   0.939   5.680   2.020 -0.0580  1.3497  0.0416
 7755SOL     OW23834   0.976   7.357   4.157 -0.0980  0.0906  0.0157
 7755SOL    HW123835   1.007   7.269   4.137 -0.6844 -0.4217  1.3022
 7755SOL    HW223836   0.882   7.347   4.173 -0.3191  1.0838 -0.5690
 7756SOL     OW23837   3.489   6.026   3.607  0.0277  0.2250  0.3025
 7756SOL    HW123838   3.522   6.078   3.533 -2.3666  0.4760 -0.6849
 7756SOL    HW223839   3.546   5.950   3.609  0.4628  0.4365 -1.5359
 7757SOL     OW23840   3.820   2.345   4.159  0.2699  0.3102  0.3232
 7757SOL    HW123841   3.844   2.278   4.095 -0.8714 -0.4747  0.6870
 7757SOL    HW223842   3.903   2.373   4.197  0.7223 -1.3708  0.6271
 7758SOL     OW23843   5.117   5.749   6.376 -0.5688  0.0484  0.1836
 7758SOL    HW123844   5.126   5.753   6.471 -1.2322  2.7365  0.1972
 7758SOL    HW223845   5.162   5.827   6.344 -1.2878 -0.2278 -1.6256
 7759SOL     OW23846   4.448   2.670   0.731  0.6138  0.3900  0.0705
 7759SOL    HW123847   4.447   2.745   0.671 -0.1990  1.3011  1.1762
 7759SOL    HW223848   4.540   2.659   0.754  0.6241  1.8697  0.8602
 7760SOL     OW23849   1.030   4.688   4.266  0.0334  0.1916  0.0252
 7760SOL    HW123850   1.121   4.689   4.237 -0.5507 -0.5196 -1.9734
 7760SOL    HW223851   1.020   4.604   4.310  0.0665 -0.2363 -0.7692
 7761SOL     OW23852   5.055   1.361   3.829 -0.1856  0.6211  0.5760
 7761SOL    HW123853   5.033   1.333   3.918  0.0959  1.7362  1.0181
 7761SOL    HW223854   5.149   1.341   3.820 -0.3516 -0.0496  0.3041
 7762SOL     OW23855   4.224   6.124   2.829  0.1769 -0.0102  0.3307
 7762SOL    HW123856   4.156   6.188   2.808 -0.5846 -1.0556 -0.5882
 7762SOL    HW223857   4.221   6.115   2.924 -2.0088 -1.0707  0.2152
 7763SOL     OW23858   7.338   1.244   7.273  0.5951 -0.1352  0.6869
 7763SOL    HW123859   7.346   1.251   7.178 -2.8958 -0.3410  0.2477
 7763SOL    HW223860   7.361   1.153   7.292 -0.2708 -0.5606 -0.2242
 7764SOL     OW23861   0.887   1.944   1.406 -0.8054  0.1178  0.5324
 7764SOL    HW123862   0.969   1.985   1.436 -0.6574  0.8828 -0.8236
 7764SOL    HW223863   0.908   1.851   1.401  0.1576  0.3534 -0.2453
 7765SOL     OW23864   4.274   4.144   1.968 -0.1746 -0.1375  0.0455
 7765SOL    HW123865   4.212   4.114   2.035 -1.2820  1.7429 -0.0489
 7765SOL    HW223866   4.255   4.090   1.892 -1.7865  0.4251  0.0099
 7766SOL     OW23867   5.074   2.265   0.634  0.5383 -0.2578 -0.1461
 7766SOL    HW123868   5.149   2.249   0.577  0.3668 -0.8994 -0.1930
 7766SOL    HW223869   5.002   2.214   0.595 -0.4298  1.7069 -1.1313
 7767SOL     OW23870   0.116   1.973   7.288  0.3504  0.4836 -0.1982
 7767SOL    HW123871   0.143   1.954   7.378  0.2809  1.0897 -0.0479
 7767SOL    HW223872   0.180   1.928   7.233 -1.0638 -2.1228  0.1110
 7768SOL     OW23873   1.603   0.359   5.671  0.0936  0.0803 -0.1338
 7768SOL    HW123874   1.599   0.388   5.580  0.4877  1.0324  0.1452
 7768SOL    HW223875   1.514   0.371   5.704 -0.1137 -0.5104 -0.4539
 7769SOL     OW23876   4.875   6.102   6.029 -0.3741 -0.3408 -0.2075
 7769SOL    HW123877   4.878   6.013   6.066 -0.9029 -0.7129 -1.0375
 7769SOL    HW223878   4.784   6.129   6.038  0.0568  0.7374  1.4017
 7770SOL     OW23879   6.792   7.026   2.342 -0.2126 -0.0657  0.1190
 7770SOL    HW123880   6.861   6.964   2.366 -0.1566 -0.4786 -1.0469
 7770SOL    HW223881   6.776   7.010   2.249 -1.8599  0.0544  0.3485
 7771SOL     OW23882   3.358   6.155   6.410  0.3819 -0.0797 -0.1025
 7771SOL    HW123883   3.438   6.102   6.416 -2.1110 -4.4997 -1.7547
 7771SOL    HW223884   3.309   6.132   6.489  1.2931  4.1453  1.9693
 7772SOL     OW23885   3.299   6.937   7.024 -0.4996 -0.2875 -0.3197
 7772SOL    HW123886   3.344   6.865   7.068 -0.5260  0.1978  0.5243
 7772SOL    HW223887   3.262   6.990   7.095 -0.9697  0.2480 -0.9412
 7773SOL     OW23888   7.274   5.543   5.866 -0.6669 -0.4204  0.1353
 7773SOL    HW123889   7.310   5.604   5.802 -1.6894  0.7250  0.6239
 7773SOL    HW223890   7.329   5.555   5.943 -1.8578  1.1217  0.7860
 7774SOL     OW23891   1.534   2.302   3.438  0.2637 -0.2797 -0.2047
 7774SOL    HW123892   1.504   2.289   3.528 -0.9862 -3.1520 -0.9219
 7774SOL    HW223893   1.558   2.214   3.408 -2.2943  0.0015 -3.6493
 7775SOL     OW23894   0.857   0.058   1.908  0.4275  0.2723 -0.2985
 7775SOL    HW123895   0.875   0.142   1.866  3.1235 -0.2122 -0.2913
 7775SOL    HW223896   0.938   0.008   1.896 -0.4759 -1.6686  1.2340
 7776SOL     OW23897   2.146   3.214   6.393 -0.5079  0.3148 -0.7611
 7776SOL    HW123898   2.138   3.143   6.456  0.3068  0.1628 -0.8205
 7776SOL    HW223899   2.068   3.208   6.339 -0.6910 -0.2128 -0.4399
 7777SOL     OW23900   6.875   5.128   2.932  0.2103 -0.0741  0.2033
 7777SOL    HW123901   6.967   5.109   2.949  0.1458 -1.4387 -0.8384
 7777SOL    HW223902   6.875   5.177   2.850 -0.0101 -0.1668  0.1469
 7778SOL     OW23903   4.792   3.410   7.307 -0.2547 -0.5088 -0.2246
 7778SOL    HW123904   4.748   3.480   7.260  2.0965  2.2384  1.3291
 7778SOL    HW223905   4.764   3.420   7.398  0.8261 -0.9611  0.1783
 7779SOL     OW23906   3.500   5.295   3.373 -0.0042 -0.5554 -0.4035
 7779SOL    HW123907   3.438   5.228   3.401 -0.5412  0.2271  0.3454
 7779SOL    HW223908   3.550   5.254   3.303 -2.8304 -0.5582 -2.6270
 7780SOL     OW23909   6.525   4.555   6.164  0.0794  0.5163  0.4717
 7780SOL    HW123910   6.538   4.649   6.148 -1.2249  0.8726  1.3467
 7780SOL    HW223911   6.544   4.513   6.080  3.6383  1.2132  0.7900
 7781SOL     OW23912   1.767   5.841   3.495 -0.2331  0.6215  0.1733
 7781SOL    HW123913   1.772   5.881   3.408 -0.3861 -1.8802 -1.0896
 7781SOL    HW223914   1.675   5.814   3.503 -0.1160  0.4255  0.9005
 7782SOL     OW23915   2.282   4.297   1.903  0.0134  0.1484 -0.0488
 7782SOL    HW123916   2.287   4.373   1.961 -0.4683  0.5891 -0.5737
 7782SOL    HW223917   2.228   4.326   1.830 -0.0109 -0.6409 -0.3539
 7783SOL     OW23918   6.265   6.547   2.209 -0.7700 -0.0682  0.3389
 7783SOL    HW123919   6.205   6.621   2.208  1.7522  2.1252  0.9115
 7783SOL    HW223920   6.317   6.559   2.289  0.2558 -2.0191  0.0384
 7784SOL     OW23921   6.620   5.091   5.564  0.0674  0.0412  0.5193
 7784SOL    HW123922   6.691   5.151   5.542  1.1134 -0.2527  2.7571
 7784SOL    HW223923   6.662   5.005   5.568 -0.6951 -0.3386  0.5378
 7785SOL     OW23924   5.545   1.712   3.501 -0.2945 -0.2615  0.2020
 7785SOL    HW123925   5.504   1.770   3.565 -0.5183 -0.9778  0.7110
 7785SOL    HW223926   5.472   1.662   3.464 -0.2343  0.4585 -0.9568
 7786SOL     OW23927   5.382   7.390   3.411  0.5677 -0.0740  0.1874
 7786SOL    HW123928   5.314   7.323   3.418  2.1219 -1.8818 -1.0973
 7786SOL    HW223929   5.341   7.459   3.359 -0.5201 -0.7821  0.0644
 7787SOL     OW23930   5.074   4.622   2.163  0.4059 -0.2048 -0.1338
 7787SOL    HW123931   5.131   4.574   2.224  0.9189  0.2144 -0.2771
 7787SOL    HW223932   5.129   4.693   2.130 -0.5693  0.9145  0.6058
 7788SOL     OW23933   4.561   4.631   0.428  0.1641  0.6578 -0.3540
 7788SOL    HW123934   4.567   4.705   0.489 -0.9683  0.4941 -0.0175
 7788SOL    HW223935   4.584   4.555   0.481 -1.1314  0.4739 -0.0032
 7789SOL     OW23936   5.455   7.109   7.065 -0.1251 -0.1621 -0.4469
 7789SOL    HW123937   5.362   7.087   7.071  0.2019 -1.2730  0.8387
 7789SOL    HW223938   5.487   7.056   6.992 -0.4400  0.0539 -0.7490
 7790SOL     OW23939   1.446   5.289   5.684 -0.0565 -0.2268  0.6795
 7790SOL    HW123940   1.394   5.337   5.620 -1.4782 -0.5101  1.5943
 7790SOL    HW223941   1.537   5.310   5.661 -0.5661  0.5587 -0.7240
 7791SOL     OW23942   3.851   1.409   3.394 -0.7560 -0.2668  0.2196
 7791SOL    HW123943   3.810   1.325   3.413 -1.2411  0.2507  1.6131
 7791SOL    HW223944   3.793   1.452   3.332 -1.3799 -0.2837  0.7883
 7792SOL     OW23945   3.113   1.784   3.990  0.4280  0.1591  0.0653
 7792SOL    HW123946   3.197   1.755   4.026 -0.0565 -0.5270  0.6613
 7792SOL    HW223947   3.129   1.873   3.960  1.5776 -0.2281 -0.5241
 7793SOL     OW23948   0.690   0.449   0.733 -0.2898  0.1447  0.1904
 7793SOL    HW123949   0.606   0.442   0.779 -0.5512 -1.4349 -0.4675
 7793SOL    HW223950   0.725   0.360   0.732  0.4848  0.4274 -1.2145
 7794SOL     OW23951   7.231   3.435   3.450  0.7029  0.2418 -0.5659
 7794SOL    HW123952   7.294   3.495   3.409  0.2941  0.0116 -1.5653
 7794SOL    HW223953   7.255   3.349   3.416  0.0998  0.1035 -0.6461
 7795SOL     OW23954   6.801   4.424   0.074 -0.0555 -0.0480 -0.1393
 7795SOL    HW123955   6.810   4.517   0.096 -0.0885  0.1632 -0.9803
 7795SOL    HW223956   6.870   4.381   0.125 -0.4664  0.3365  0.7747
 7796SOL     OW23957   3.675   3.071   2.506 -0.0275  0.8766 -0.4655
 7796SOL    HW123958   3.586   3.041   2.486 -0.5491  2.5701 -0.8581
 7796SOL    HW223959   3.671   3.166   2.497  1.4063  1.1490  1.2093
 7797SOL     OW23960   6.912   1.308   4.507  0.0734 -0.6108  0.0871
 7797SOL    HW123961   6.991   1.299   4.453 -0.8335 -1.0612 -1.2064
 7797SOL    HW223962   6.852   1.240   4.474 -1.3070  0.4994  0.2306
 7798SOL     OW23963   5.822   0.812   1.985  0.1196 -0.2942 -0.3527
 7798SOL    HW123964   5.819   0.731   2.036 -0.6148  0.6195  1.1116
 7798SOL    HW223965   5.730   0.836   1.973  0.2781 -0.3421 -1.9415
 7799SOL     OW23966   0.328   3.390   0.650  0.1393  0.2473 -0.3347
 7799SOL    HW123967   0.385   3.314   0.644  1.4685  1.2263 -0.6364
 7799SOL    HW223968   0.273   3.385   0.571  0.3815 -0.2649 -0.4735
 7800SOL     OW23969   2.160   4.450   4.177 -0.3428  0.2606  0.0157
 7800SOL    HW123970   2.071   4.416   4.181 -0.0329 -0.5071  0.4027
 7800SOL    HW223971   2.206   4.393   4.115  0.1740 -0.0323  0.6560
 7801SOL     OW23972   5.939   2.118   0.902 -0.3526  0.0461 -0.1420
 7801SOL    HW123973   6.018   2.157   0.865 -0.2615  0.6204  0.6323
 7801SOL    HW223974   5.920   2.043   0.846  0.1293  0.5339 -0.9696
 7802SOL     OW23975   7.128   5.802   4.101  0.2787  0.1261  0.0126
 7802SOL    HW123976   7.066   5.738   4.136  1.1487 -1.2914 -0.9013
 7802SOL    HW223977   7.090   5.830   4.018  0.0108  0.6327  0.3024
 7803SOL     OW23978   4.536   3.984   1.129 -0.4400  0.1376 -0.1866
 7803SOL    HW123979   4.598   4.048   1.163 -0.1275 -1.1806  1.9273
 7803SOL    HW223980   4.455   4.033   1.117  0.6285  1.6365 -1.9120
 7804SOL     OW23981   4.157   1.700   3.615  0.2033  0.1946 -0.7837
 7804SOL    HW123982   4.231   1.648   3.648  0.4721  1.4422  0.7353
 7804SOL    HW223983   4.099   1.708   3.690 -1.2429 -0.3009 -1.8180
 7805SOL     OW23984   0.741   5.475   2.468  0.2261  0.5683 -0.0420
 7805SOL    HW123985   0.738   5.469   2.372 -1.3675 -1.4631  0.0742
 7805SOL    HW223986   0.650   5.476   2.495  0.6041 -1.3182  1.5245
 7806SOL     OW23987   6.729   4.439   6.333 -0.0693  0.0753 -0.2847
 7806SOL    HW123988   6.647   4.470   6.293 -1.0941  0.5863  2.0551
 7806SOL    HW223989   6.728   4.476   6.421  1.9641 -1.1935  0.3328
 7807SOL     OW23990   2.349   5.971   6.215  0.2802 -0.2113  0.0557
 7807SOL    HW123991   2.402   6.011   6.283  0.8153  0.1577 -0.5648
 7807SOL    HW223992   2.268   6.021   6.214  0.4455  0.0570  0.1237
 7808SOL     OW23993   3.399   5.667   2.112 -0.1941 -0.4474 -0.5786
 7808SOL    HW123994   3.485   5.670   2.069  0.0153  0.3358 -0.1194
 7808SOL    HW223995   3.340   5.636   2.043  0.0944  1.0266 -1.5277
 7809SOL     OW23996   3.915   1.495   5.671 -0.0191 -0.2261 -0.0186
 7809SOL    HW123997   3.890   1.479   5.580 -2.6634 -1.2927  0.7823
 7809SOL    HW223998   3.915   1.408   5.712  1.0070  0.2447  1.0506
 7810SOL     OW23999   6.454   5.881   7.374 -0.4264  0.0588  0.4161
 7810SOL    HW124000   6.461   5.786   7.387 -0.9906  0.0526  0.6826
 7810SOL    HW224001   6.538   5.906   7.336  0.1786 -0.3554  1.4514
 7811SOL     OW24002   6.278   0.966   6.453 -0.0172 -0.5540  0.4493
 7811SOL    HW124003   6.292   0.899   6.385 -0.4492  1.5379 -1.8472
 7811SOL    HW224004   6.358   0.965   6.505 -0.0679 -2.8977  0.5800
 7812SOL     OW24005   0.849   4.932   3.032 -0.7608  0.4877  0.3620
 7812SOL    HW124006   0.784   4.867   3.005 -0.6905  0.7697 -0.5174
 7812SOL    HW224007   0.889   4.894   3.110  0.6472 -1.5033 -1.2136
 7813SOL     OW24008   6.151   5.685   1.939 -0.3280 -0.6182  0.4550
 7813SOL    HW124009   6.164   5.694   2.033  3.4975  4.0699 -0.1311
 7813SOL    HW224010   6.219   5.623   1.911  2.5693  2.3168  0.4322
 7814SOL     OW24011   2.871   5.597   2.595 -0.1382 -0.2487 -0.2270
 7814SOL    HW124012   2.928   5.542   2.647  0.0773  1.2814  1.2596
 7814SOL    HW224013   2.799   5.621   2.655 -1.3477 -0.6097 -1.4720
 7815SOL     OW24014   3.734   3.603   5.309  0.0828 -0.4955  0.5792
 7815SOL    HW124015   3.684   3.610   5.391  0.7519 -2.1454  1.1631
 7815SOL    HW224016   3.740   3.693   5.277 -1.6261 -0.0233  1.4707
 7816SOL     OW24017   2.122   6.859   2.955 -0.7080 -0.0705  0.0657
 7816SOL    HW124018   2.046   6.824   2.907 -0.8230  0.4491 -0.1340
 7816SOL    HW224019   2.137   6.945   2.916  2.3029 -1.5626 -2.4684
 7817SOL     OW24020   4.889   5.280   0.388  0.5311 -0.3739  0.0098
 7817SOL    HW124021   4.866   5.373   0.391 -0.6868 -0.6680  0.8096
 7817SOL    HW224022   4.977   5.277   0.352 -0.4887  0.9046 -2.8941
 7818SOL     OW24023   2.797   2.174   4.113  0.5572 -0.4060  0.3198
 7818SOL    HW124024   2.886   2.147   4.137  0.6298  1.0849  1.9490
 7818SOL    HW224025   2.810   2.245   4.050  0.5422  0.0377  0.8118
 7819SOL     OW24026   6.026   2.873   3.935  0.1603 -0.0862 -0.4516
 7819SOL    HW124027   6.079   2.896   3.858  0.1035  0.1682 -0.4158
 7819SOL    HW224028   6.090   2.847   4.001  0.1402 -2.1467 -1.1685
 7820SOL     OW24029   5.504   3.414   1.229 -0.3474 -0.1092 -0.1228
 7820SOL    HW124030   5.486   3.322   1.247 -3.2910  0.5096  0.6008
 7820SOL    HW224031   5.552   3.445   1.306 -0.2037 -0.7815  0.0626
 7821SOL     OW24032   4.932   3.498   5.199 -0.1829 -0.3018  0.2828
 7821SOL    HW124033   4.882   3.491   5.280  1.4772 -1.4828  1.2647
 7821SOL    HW224034   4.872   3.542   5.138 -1.5479  0.4619  2.0608
 7822SOL     OW24035   1.876   6.631   4.568 -0.4405 -0.0656  0.6352
 7822SOL    HW124036   1.881   6.637   4.473 -1.2166  0.8027  0.6385
 7822SOL    HW224037   1.879   6.537   4.586  0.7222 -0.2073 -0.1686
 7823SOL     OW24038   1.603   6.428   5.285 -0.4517 -0.5176 -0.3139
 7823SOL    HW124039   1.607   6.333   5.281 -0.9900 -0.6009  0.7036
 7823SOL    HW224040   1.510   6.448   5.272 -0.7485 -0.2990  1.8441
 7824SOL     OW24041   1.770   6.982   1.632 -0.1046 -0.2910 -0.3381
 7824SOL    HW124042   1.756   6.907   1.573 -0.4874 -0.2595 -0.2891
 7824SOL    HW224043   1.847   6.958   1.684 -1.4097 -1.5414  1.0854
 7825SOL     OW24044   0.828   0.676   3.839 -0.0186 -0.0667  0.4046
 7825SOL    HW124045   0.736   0.656   3.822 -0.0158 -0.6203  0.9871
 7825SOL    HW224046   0.877   0.608   3.793  0.0879  0.0430  0.3542
 7826SOL     OW24047   1.394   4.386   4.766  0.0216  0.1669  0.1294
 7826SOL    HW124048   1.350   4.471   4.763  1.0742  0.7277 -0.0229
 7826SOL    HW224049   1.463   4.393   4.700  0.4259 -0.6281  0.4583
 7827SOL     OW24050   3.836   2.446   7.209 -0.3904  0.4263 -0.0407
 7827SOL    HW124051   3.783   2.515   7.170  0.8123  0.9976 -0.7184
 7827SOL    HW224052   3.914   2.441   7.154  0.2842 -0.3566  0.9388
 7828SOL     OW24053   5.425   7.229   4.604  0.1016  0.4735 -0.1388
 7828SOL    HW124054   5.418   7.225   4.699  0.4627 -0.5054 -0.1471
 7828SOL    HW224055   5.452   7.141   4.578 -0.0420  0.7179 -1.1520
 7829SOL     OW24056   2.014   0.456   3.510  0.5272  0.6008  0.1206
 7829SOL    HW124057   2.083   0.421   3.566  1.3120  0.6616 -0.7694
 7829SOL    HW224058   1.964   0.514   3.567 -0.6630 -1.7145  1.5692
 7830SOL     OW24059   2.161   5.901   5.625 -0.0493 -0.4260  0.0466
 7830SOL    HW124060   2.105   5.971   5.591 -0.7666 -0.3073  1.4379
 7830SOL    HW224061   2.248   5.922   5.590 -0.0649  1.6667  1.0873
 7831SOL     OW24062   4.804   5.700   0.461  0.1192 -0.2586 -0.2935
 7831SOL    HW124063   4.737   5.649   0.507  0.2346  0.3161  0.5247
 7831SOL    HW224064   4.871   5.717   0.527  0.8978 -0.4963 -1.0088
 7832SOL     OW24065   5.563   2.903   3.490  0.5430 -0.1868 -0.0004
 7832SOL    HW124066   5.620   2.957   3.434  1.7531 -0.6972  0.6995
 7832SOL    HW224067   5.511   2.966   3.539 -0.8031  0.2828 -1.9000
 7833SOL     OW24068   5.998   2.409   6.273 -0.3018  0.1499  0.2619
 7833SOL    HW124069   5.955   2.483   6.314 -0.7289  0.6228 -0.9807
 7833SOL    HW224070   6.078   2.396   6.324 -0.2567  1.4172  0.5488
 7834SOL     OW24071   3.948   5.428   6.343  0.1828 -0.2544 -0.0147
 7834SOL    HW124072   3.980   5.338   6.350  2.6473  0.6257  1.0120
 7834SOL    HW224073   3.863   5.427   6.386  0.5838 -1.9111  0.8070
 7835SOL     OW24074   5.611   0.977   2.042 -0.0680  0.3872 -0.1160
 7835SOL    HW124075   5.578   1.066   2.029 -1.7513  0.0047  1.2713
 7835SOL    HW224076   5.546   0.921   2.000 -0.5963 -0.3167  1.5496
 7836SOL     OW24077   1.686   5.329   5.624 -0.5429  0.0533 -0.5293
 7836SOL    HW124078   1.729   5.403   5.666 -0.7424  0.7076 -1.4404
 7836SOL    HW224079   1.738   5.253   5.650  0.5394  0.6971 -0.7571
 7837SOL     OW24080   7.269   6.450   0.191 -0.5015 -0.2750 -0.0302
 7837SOL    HW124081   7.182   6.459   0.154 -0.9067 -3.0525 -0.0037
 7837SOL    HW224082   7.260   6.381   0.257  1.4200  0.4549  1.0980
 7838SOL     OW24083   6.750   0.148   5.321 -0.0801  0.3714 -0.1624
 7838SOL    HW124084   6.805   0.201   5.263 -1.1068  0.3598 -1.1752
 7838SOL    HW224085   6.677   0.206   5.344 -1.0081 -0.4457 -0.9645
 7839SOL     OW24086   4.978   4.861   6.583 -0.0036 -0.3000 -0.3437
 7839SOL    HW124087   4.934   4.902   6.657 -0.9890 -0.9252 -0.5510
 7839SOL    HW224088   4.940   4.773   6.579  0.3822 -0.4362 -1.2979
 7840SOL     OW24089   3.612   1.144   0.003  0.2250 -0.4110 -0.2414
 7840SOL    HW124090   3.522   1.126  -0.024  1.0829 -2.2974 -2.1736
 7840SOL    HW224091   3.612   1.236   0.029 -2.5435 -0.7455  1.2752
 7841SOL     OW24092   3.567   5.384   5.636  0.2568  0.3483 -0.6510
 7841SOL    HW124093   3.655   5.357   5.661  0.4628  1.0353 -0.6125
 7841SOL    HW224094   3.518   5.302   5.628  0.5189  0.0222  0.7527
 7842SOL     OW24095   1.323   1.208   0.074 -0.2380 -0.1459 -0.1946
 7842SOL    HW124096   1.351   1.295   0.045 -0.7399 -0.5472 -2.0420
 7842SOL    HW224097   1.228   1.207   0.059 -0.3102 -0.8381  0.2755
 7843SOL     OW24098   6.392   7.092   4.538  0.0128 -0.0375  0.2585
 7843SOL    HW124099   6.351   7.016   4.496  0.1566  0.1833 -0.2919
 7843SOL    HW224100   6.467   7.055   4.586 -1.0497 -0.5030  1.6429
 7844SOL     OW24101   0.652   4.289   6.233  0.2012  0.0505  0.6213
 7844SOL    HW124102   0.646   4.371   6.185 -0.3970  0.2367  1.0076
 7844SOL    HW224103   0.567   4.247   6.220  1.2336 -1.6220 -1.5013
 7845SOL     OW24104   4.606   5.711   4.027 -0.1269  0.0802  0.3097
 7845SOL    HW124105   4.603   5.685   4.119 -0.3543 -0.3880  0.1727
 7845SOL    HW224106   4.698   5.708   4.004 -0.1293 -0.4167  0.3526
 7846SOL     OW24107   1.089   5.701   3.398 -0.0698  0.0118  0.1390
 7846SOL    HW124108   1.076   5.731   3.488  4.9003  0.4615  1.0002
 7846SOL    HW224109   1.116   5.779   3.350  1.7143 -0.9535 -0.5283
 7847SOL     OW24110   3.660   0.260   2.089 -0.2569  0.4501 -0.9762
 7847SOL    HW124111   3.573   0.221   2.097  0.1288 -0.2032  0.4885
 7847SOL    HW224112   3.650   0.328   2.023 -1.7903  0.1433 -1.1083
 7848SOL     OW24113   6.339   1.889   3.715 -0.6732  0.2128  0.7927
 7848SOL    HW124114   6.389   1.867   3.637  0.2550  0.7653  1.2064
 7848SOL    HW224115   6.280   1.815   3.728  0.6940 -0.9160  0.8003
 7849SOL     OW24116   2.079   5.788   7.197 -0.2034  0.7602  0.0607
 7849SOL    HW124117   1.991   5.752   7.198  0.1808 -0.3089 -1.0951
 7849SOL    HW224118   2.126   5.739   7.266  0.1842 -0.6935 -1.1720
 7850SOL     OW24119   2.757   6.914   2.964 -0.1613 -0.6657 -0.2007
 7850SOL    HW124120   2.788   6.869   2.885 -0.1232 -0.5830 -0.2334
 7850SOL    HW224121   2.671   6.877   2.980 -0.0964 -0.8078 -0.1813
 7851SOL     OW24122   2.158   6.639   5.975  0.1267  0.1340 -0.0230
 7851SOL    HW124123   2.214   6.674   5.907 -0.4180 -0.2393 -0.6794
 7851SOL    HW224124   2.194   6.553   5.995  0.0011  0.0426 -0.1889
 7852SOL     OW24125   7.147   3.735   0.914  0.4667 -0.5559 -0.4602
 7852SOL    HW124126   7.179   3.801   0.975 -1.7106  0.5093 -0.3616
 7852SOL    HW224127   7.152   3.777   0.828  0.1610 -0.6812 -0.5427
 7853SOL     OW24128   3.995   2.167   2.637 -0.1565 -0.0644 -0.0199
 7853SOL    HW124129   3.969   2.120   2.557 -0.8645 -1.8865  1.2228
 7853SOL    HW224130   4.067   2.115   2.673 -0.5086  0.1658  1.0548
 7854SOL     OW24131   7.081   4.220   2.602 -0.3179 -0.0292 -0.9537
 7854SOL    HW124132   7.144   4.197   2.670  0.5172  0.5338 -1.5113
 7854SOL    HW224133   7.132   4.214   2.520 -0.9692  0.5085 -1.4093
 7855SOL     OW24134   0.031   1.412   3.891 -0.4805 -0.0337 -0.2665
 7855SOL    HW124135   0.074   1.469   3.828  0.9951  0.1998  0.8778
 7855SOL    HW224136   0.057   1.448   3.976  1.1687 -2.8230  0.5339
 7856SOL     OW24137   0.884   1.076   6.760  0.5929 -0.1490  0.0559
 7856SOL    HW124138   0.807   1.042   6.805  0.7094 -0.1993  0.2172
 7856SOL    HW224139   0.920   1.141   6.821 -0.7921  1.7888 -1.0719
 7857SOL     OW24140   2.154   0.304   0.468 -0.2350  0.3656 -0.2065
 7857SOL    HW124141   2.157   0.253   0.549  0.9122  0.7351  0.0000
 7857SOL    HW224142   2.159   0.239   0.399 -1.3526  0.0372  0.0098
 7858SOL     OW24143   6.451   6.112   4.373 -0.4003  0.5033 -0.0778
 7858SOL    HW124144   6.466   6.118   4.467  2.5554 -1.9517 -0.2469
 7858SOL    HW224145   6.507   6.181   4.336 -1.6548  1.5496 -0.1040
 7859SOL     OW24146   3.135   4.857   2.587 -0.2560  0.1483 -0.1252
 7859SOL    HW124147   3.089   4.789   2.636 -1.0420  1.5539  1.1856
 7859SOL    HW224148   3.073   4.887   2.521  0.3925 -0.9449 -1.2750
 7860SOL     OW24149   7.044   2.790   1.373  1.2366 -0.3115  0.0431
 7860SOL    HW124150   7.070   2.847   1.301  3.1315 -0.6767  0.3977
 7860SOL    HW224151   7.070   2.702   1.345  1.1702 -0.5758  0.7865
 7861SOL     OW24152   0.412   1.645   0.626  0.6023 -0.1561 -0.0973
 7861SOL    HW124153   0.318   1.634   0.609  0.9382 -2.2759 -0.8565
 7861SOL    HW224154   0.455   1.615   0.546  1.9492  2.1935 -0.3449
 7862SOL     OW24155   1.791   5.991   6.406 -0.6719  0.0480  0.3520
 7862SOL    HW124156   1.797   5.897   6.388 -1.2697 -0.1632  1.1829
 7862SOL    HW224157   1.882   6.021   6.410 -0.4619  0.0275 -2.3698
 7863SOL     OW24158   3.984   0.147   5.426 -0.2412  0.3875  0.2583
 7863SOL    HW124159   4.022   0.068   5.463  0.6543  0.3234 -0.7592
 7863SOL    HW224160   3.984   0.132   5.332 -0.3225  1.4821  0.0695
 7864SOL     OW24161   5.179   3.068   2.143 -0.7753  0.0711  0.1938
 7864SOL    HW124162   5.092   3.035   2.125 -0.6944 -0.8758  1.3581
 7864SOL    HW224163   5.209   3.017   2.219  1.2595 -0.4975 -0.9014
 7865SOL     OW24164   4.482   3.319   6.044 -0.1259 -0.6609  0.3879
 7865SOL    HW124165   4.546   3.249   6.032 -0.6131 -1.0421 -0.0474
 7865SOL    HW224166   4.524   3.379   6.105  1.8169  0.5140 -1.9127
 7866SOL     OW24167   7.059   6.676   5.619  0.0640 -0.1390 -0.6307
 7866SOL    HW124168   7.019   6.733   5.685 -0.1108  0.4704 -1.2469
 7866SOL    HW224169   7.033   6.715   5.535  0.9911 -0.4049 -1.0497
 7867SOL     OW24170   6.725   2.464   3.352  0.1171  0.2783  0.1661
 7867SOL    HW124171   6.749   2.545   3.307  2.7159 -0.3906  0.1889
 7867SOL    HW224172   6.636   2.446   3.323  0.0374  2.2923 -1.0544
 7868SOL     OW24173   3.974   7.219   4.721 -0.3923  0.1342  0.6313
 7868SOL    HW124174   3.891   7.237   4.764 -0.4339 -1.5723  1.3223
 7868SOL    HW224175   3.950   7.168   4.643  0.0749 -1.8444  1.7222
 7869SOL     OW24176   4.487   1.115   5.004 -0.1751 -0.1987 -0.5236
 7869SOL    HW124177   4.520   1.093   4.916  1.2313  0.6718 -0.2391
 7869SOL    HW224178   4.564   1.146   5.051 -0.3018 -3.1492  1.9114
 7870SOL     OW24179   3.397   3.813   0.565  0.2112  0.3812  0.3519
 7870SOL    HW124180   3.372   3.783   0.477  2.2955 -0.6164  0.0329
 7870SOL    HW224181   3.404   3.908   0.556  0.8536  0.2555 -0.7104
 7871SOL     OW24182   6.474   1.361   6.613  0.1823 -0.1748 -0.2225
 7871SOL    HW124183   6.440   1.365   6.702 -0.1379  1.4118 -0.3848
 7871SOL    HW224184   6.400   1.330   6.560 -0.1647  0.5638 -0.1756
 7872SOL     OW24185   1.876   7.239   4.215 -0.4175 -0.1566  0.3767
 7872SOL    HW124186   1.870   7.326   4.176 -0.4571 -0.9669 -1.4988
 7872SOL    HW224187   1.878   7.179   4.141  0.1266 -1.7445  1.6216
 7873SOL     OW24188   3.938   2.474   1.162  0.6044 -0.4273  0.4749
 7873SOL    HW124189   3.996   2.550   1.150  0.5188 -0.6312 -1.6443
 7873SOL    HW224190   3.984   2.420   1.226  2.6758 -0.4231 -0.8833
 7874SOL     OW24191   4.100   3.557   0.374  0.1434 -0.8048 -0.7207
 7874SOL    HW124192   4.125   3.468   0.395  0.8052 -0.2222  1.1567
 7874SOL    HW224193   4.164   3.612   0.420 -0.5429  0.6390 -1.4164
 7875SOL     OW24194   6.929   5.632   4.210  0.7639 -0.3849  0.0737
 7875SOL    HW124195   6.847   5.616   4.163 -0.0188  0.2217  1.1951
 7875SOL    HW224196   6.991   5.569   4.171  0.2203  0.1953 -1.8643
 7876SOL     OW24197   1.713   5.426   5.073 -0.1153  0.1978  0.1459
 7876SOL    HW124198   1.733   5.414   5.166  1.4196  0.2868 -0.1470
 7876SOL    HW224199   1.622   5.398   5.065 -0.1848 -0.1080  1.6154
 7877SOL     OW24200   2.121   6.619   5.039  0.2135  0.0030 -0.4341
 7877SOL    HW124201   2.080   6.657   5.117  1.1189  1.1173 -0.4590
 7877SOL    HW224202   2.068   6.543   5.018 -1.5813  1.1456 -0.2459
 7878SOL     OW24203   0.555   4.067   4.863  0.2897 -0.1929 -0.3553
 7878SOL    HW124204   0.619   4.115   4.916 -1.3345  1.2566  0.3763
 7878SOL    HW224205   0.593   3.979   4.855  1.5067  0.0848  1.5821
 7879SOL     OW24206   0.209   5.561   1.213 -0.1313 -0.4279 -0.2713
 7879SOL    HW124207   0.292   5.607   1.214  0.1556 -0.8779 -1.4248
 7879SOL    HW224208   0.231   5.472   1.185 -0.7018 -1.2386  1.6731
 7880SOL     OW24209   6.042   1.699   1.410  0.2094 -0.3961  0.4795
 7880SOL    HW124210   6.045   1.794   1.394 -0.2120 -0.4323  0.1801
 7880SOL    HW224211   5.990   1.690   1.490 -1.7846 -0.5086 -0.7636
 7881SOL     OW24212   3.589   6.938   3.643  0.2932  0.0492 -0.1706
 7881SOL    HW124213   3.676   6.934   3.682  0.2362 -0.4577 -0.0794
 7881SOL    HW224214   3.549   7.016   3.681  0.6686  0.2295 -0.1370
 7882SOL     OW24215   2.348   0.017   0.365 -0.2060 -0.1270  0.3902
 7882SOL    HW124216   2.310  -0.058   0.410  0.8806 -0.1593  1.2978
 7882SOL    HW224217   2.273   0.059   0.322 -0.6478 -2.4879 -1.3331
 7883SOL     OW24218   2.717   3.235   6.121 -0.4752 -0.3732 -0.1555
 7883SOL    HW124219   2.755   3.305   6.172 -0.6954 -0.0484 -0.4346
 7883SOL    HW224220   2.787   3.208   6.061 -0.1876 -0.8166  0.3719
 7884SOL     OW24221   0.702   3.166   1.234  0.2986  0.4509 -0.1268
 7884SOL    HW124222   0.703   3.114   1.153  1.2591 -0.3740  0.3883
 7884SOL    HW224223   0.716   3.102   1.303  0.0049  1.2187  0.6553
 7885SOL     OW24224   1.567   4.253   0.307 -0.3164 -0.2473 -0.4482
 7885SOL    HW124225   1.564   4.158   0.316  0.4057 -0.4184 -1.7065
 7885SOL    HW224226   1.562   4.268   0.212  1.6148  0.8514 -0.4356
 7886SOL     OW24227   4.178   3.884   4.515 -0.1549 -0.0929  0.3894
 7886SOL    HW124228   4.101   3.827   4.526  0.2240 -0.4415  1.3672
 7886SOL    HW224229   4.202   3.875   4.423 -0.7493 -0.6820  0.2827
 7887SOL     OW24230   6.151   1.346   3.076  0.2836  0.4346 -0.2612
 7887SOL    HW124231   6.208   1.270   3.063 -0.5604 -0.4667  1.0950
 7887SOL    HW224232   6.065   1.309   3.095 -0.5033  1.7668 -1.0655
 7888SOL     OW24233   4.233   4.542   0.397 -0.0619 -0.4198  0.9783
 7888SOL    HW124234   4.155   4.496   0.364  0.8966 -1.6044  0.2968
 7888SOL    HW224235   4.291   4.549   0.321  0.6283  0.2112  1.5438
 7889SOL     OW24236   3.334   5.320   7.132 -0.4970  0.0447  0.2365
 7889SOL    HW124237   3.356   5.250   7.070  0.3189  0.8569 -0.4086
 7889SOL    HW224238   3.406   5.320   7.195 -0.2054  0.6732 -0.0945
 7890SOL     OW24239   3.830   3.942   1.223  0.2466 -0.1368  0.8635
 7890SOL    HW124240   3.780   3.874   1.178  0.8942 -0.0182 -0.0592
 7890SOL    HW224241   3.864   3.898   1.301 -1.5125 -0.1373  1.6932
 7891SOL     OW24242   3.609   3.510   3.873 -0.3890  0.2994  0.1391
 7891SOL    HW124243   3.566   3.586   3.913 -2.6092 -0.4774 -0.6286
 7891SOL    HW224244   3.584   3.514   3.780  1.4206 -0.0975 -0.4060
 7892SOL     OW24245   6.086   5.882   5.812  0.0940 -0.4772  0.8726
 7892SOL    HW124246   6.054   5.853   5.898  1.1736  0.3946  1.5940
 7892SOL    HW224247   6.169   5.925   5.831  0.0931  0.1965 -0.5660
 7893SOL     OW24248   3.990   5.857   0.687  0.4920 -0.0518 -0.4218
 7893SOL    HW124249   4.076   5.839   0.725  1.3988  0.7942 -1.9661
 7893SOL    HW224250   3.972   5.948   0.712  0.2868 -0.0648 -0.5226
 7894SOL     OW24251   6.031   0.139   0.587 -0.0973 -0.2528 -0.0027
 7894SOL    HW124252   5.970   0.203   0.624  0.8445  0.8791 -0.3453
 7894SOL    HW224253   6.100   0.130   0.653  0.4014  0.0227 -0.4799
 7895SOL     OW24254   6.036   5.555   1.132 -0.3406 -0.0588  0.1363
 7895SOL    HW124255   5.975   5.528   1.063  0.9128  0.4368 -1.2119
 7895SOL    HW224256   6.086   5.476   1.152 -1.7320 -0.6195  1.6519
 7896SOL     OW24257   1.834   7.174   1.934 -1.2234  0.8091 -0.5670
 7896SOL    HW124258   1.824   7.163   1.840 -1.1107 -0.1679 -0.4668
 7896SOL    HW224259   1.757   7.132   1.972 -1.5881  1.7385 -0.2401
 7897SOL     OW24260   3.316   6.565   2.434 -0.2326  0.2414  0.5445
 7897SOL    HW124261   3.232   6.571   2.480  0.2275  0.8347  1.3444
 7897SOL    HW224262   3.370   6.633   2.474  0.6437 -0.1538  0.0712
 7898SOL     OW24263   4.150   0.019   4.715 -0.2424  0.0290  0.0214
 7898SOL    HW124264   4.092  -0.049   4.681  2.2139 -2.1207 -0.1041
 7898SOL    HW224265   4.166   0.076   4.640 -0.7650 -0.3823 -0.4103
 7899SOL     OW24266   5.669   3.499   1.023  0.2395  0.1971 -0.4406
 7899SOL    HW124267   5.592   3.477   1.076  1.7217 -1.3156  1.2295
 7899SOL    HW224268   5.701   3.414   0.992  1.0519  0.8315 -1.3820
 7900SOL     OW24269   4.031   7.166   7.135  0.1331  0.4281  0.0672
 7900SOL    HW124270   4.009   7.145   7.226  2.5750  0.7460  0.7956
 7900SOL    HW224271   4.125   7.183   7.137  0.2208  0.5189 -2.5259
 7901SOL     OW24272   4.849   2.646   1.090 -0.3836  0.5447 -0.1527
 7901SOL    HW124273   4.897   2.643   1.172 -1.6820 -0.5167  0.6226
 7901SOL    HW224274   4.762   2.678   1.114 -1.0042 -0.4636 -0.9648
 7902SOL     OW24275   5.211   1.135   7.302 -0.4131 -0.5959  0.8463
 7902SOL    HW124276   5.250   1.120   7.388  1.2227 -0.7388  0.1126
 7902SOL    HW224277   5.239   1.223   7.277  0.9959 -1.3437 -0.4376
 7903SOL     OW24278   6.113   5.217   1.283  0.3543 -0.0912  0.1504
 7903SOL    HW124279   6.135   5.149   1.219  1.5619  0.2526  0.1785
 7903SOL    HW224280   6.018   5.207   1.296  0.2091 -0.6558 -1.1131
 7904SOL     OW24281   0.666   6.284   2.503 -0.4378 -0.1666  0.3712
 7904SOL    HW124282   0.741   6.335   2.534 -0.5393 -1.6524  3.4001
 7904SOL    HW224283   0.593   6.346   2.502  0.0159  0.3942  1.2879
 7905SOL     OW24284   1.510   1.914   0.946 -0.0456 -0.1582 -0.8296
 7905SOL    HW124285   1.424   1.916   0.905 -0.0452 -1.4879 -0.9400
 7905SOL    HW224286   1.493   1.910   1.040 -0.0857  0.4565 -0.8092
 7906SOL     OW24287   4.970   2.046   2.167 -0.0788 -0.7113 -0.8043
 7906SOL    HW124288   5.023   2.043   2.246  0.2111 -3.3137 -1.0043
 7906SOL    HW224289   4.881   2.026   2.197 -0.8059  2.3643 -0.6470
 7907SOL     OW24290   4.859   0.262   1.537  0.8929 -0.1245  0.0891
 7907SOL    HW124291   4.890   0.334   1.483 -0.4119  0.3528 -0.0506
 7907SOL    HW224292   4.803   0.211   1.479 -0.1063  0.1049  0.8308
 7908SOL     OW24293   4.123   0.872   1.935 -0.5799 -0.0586  0.6492
 7908SOL    HW124294   4.034   0.894   1.906 -0.2499 -1.6498 -1.7472
 7908SOL    HW224295   4.174   0.951   1.915 -0.9540 -0.0647 -0.3924
 7909SOL     OW24296   6.072   6.701   0.642 -0.1129 -0.1949 -0.0856
 7909SOL    HW124297   5.984   6.697   0.605  0.6706 -1.8235 -1.9617
 7909SOL    HW224298   6.129   6.711   0.566  1.3792  0.2296  1.0425
 7910SOL     OW24299   5.271   5.412   5.494  0.3610 -0.2989 -0.4400
 7910SOL    HW124300   5.323   5.477   5.541  1.4605 -0.8818 -0.8217
 7910SOL    HW224301   5.296   5.328   5.533 -1.4037 -0.4927  0.3803
 7911SOL     OW24302   1.666   6.899   5.702 -0.0236  0.0962 -0.1226
 7911SOL    HW124303   1.615   6.917   5.781 -1.7186  0.2361 -1.1940
 7911SOL    HW224304   1.648   6.807   5.683  0.8763 -0.1096 -0.0124
 7912SOL     OW24305   5.566   3.871   0.659  0.2320  0.1433  0.0491
 7912SOL    HW124306   5.557   3.911   0.746  0.6255 -3.3776  1.8655
 7912SOL    HW224307   5.661   3.867   0.644  0.1878  0.1224 -0.2342
 7913SOL     OW24308   7.117   0.315   1.804 -0.1266 -0.8348  0.2140
 7913SOL    HW124309   7.095   0.320   1.711  0.3184 -1.0144  0.0965
 7913SOL    HW224310   7.053   0.371   1.847  0.3143  0.0972 -0.3110
 7914SOL     OW24311   4.234   7.423   0.072  0.1608  0.4855  0.2694
 7914SOL    HW124312   4.220   7.518   0.067 -1.3446  0.2217 -1.3904
 7914SOL    HW224313   4.149   7.385   0.053  1.2904 -1.2005 -1.7852
 7915SOL     OW24314   6.256   4.966   5.454  0.1661 -0.7489 -0.1353
 7915SOL    HW124315   6.303   4.971   5.537  1.1877  1.1827 -0.7789
 7915SOL    HW224316   6.311   5.013   5.392 -2.5607  1.6267 -0.9668
 7916SOL     OW24317   6.155   4.326   1.992  0.0549  0.0069  0.4735
 7916SOL    HW124318   6.187   4.250   2.041 -1.7892 -2.1364 -1.3907
 7916SOL    HW224319   6.129   4.388   2.060  2.1924 -0.7077  2.0767
 7917SOL     OW24320   3.768   2.630   6.576 -0.4491 -0.4636 -0.0440
 7917SOL    HW124321   3.679   2.623   6.610 -0.6689  3.6227  0.7756
 7917SOL    HW224322   3.820   2.657   6.652  1.0451 -0.6156 -0.9825
 7918SOL     OW24323   3.285   6.366   2.061  0.6664  0.1232  0.1676
 7918SOL    HW124324   3.256   6.381   1.971  2.4863 -0.9176 -0.6621
 7918SOL    HW224325   3.367   6.317   2.051  0.4986 -0.7139  2.4190
 7919SOL     OW24326   7.137   5.452   7.037  0.0449 -0.6924  0.1700
 7919SOL    HW124327   7.073   5.522   7.053  1.2313  0.8188 -1.3617
 7919SOL    HW224328   7.085   5.379   7.004 -1.2506 -0.6610  1.9806
 7920SOL     OW24329   5.895   3.868   4.600  0.1379 -0.6017 -0.1033
 7920SOL    HW124330   5.983   3.903   4.614 -0.0504  0.5601 -1.5573
 7920SOL    HW224331   5.893   3.845   4.507 -1.0120 -0.8325 -0.0353
 7921SOL     OW24332   1.088   5.228   3.259 -0.1101 -0.2719 -0.0293
 7921SOL    HW124333   1.014   5.279   3.226  0.4630  0.6504  0.0827
 7921SOL    HW224334   1.051   5.176   3.331 -0.4004  1.1192  0.8675
 7922SOL     OW24335   4.267   6.787   3.183 -0.1729  0.0168  0.0995
 7922SOL    HW124336   4.305   6.702   3.162 -2.3447 -0.8853 -0.4549
 7922SOL    HW224337   4.186   6.767   3.230 -1.1134  1.7209 -0.6494
 7923SOL     OW24338   2.467   1.538   5.441 -0.0578 -0.1682  0.1827
 7923SOL    HW124339   2.498   1.586   5.364  1.3442 -1.6316 -0.2406
 7923SOL    HW224340   2.547   1.523   5.492 -0.8750  0.1990  1.5943
 7924SOL     OW24341   3.918   6.850   7.344  0.1092  0.1778  0.2535
 7924SOL    HW124342   3.925   6.784   7.413  2.0453 -0.7408 -0.7416
 7924SOL    HW224343   4.002   6.896   7.346 -0.4864  1.3411 -0.3412
 7925SOL     OW24344   4.628   3.334   2.247 -0.3183  0.1967 -0.4071
 7925SOL    HW124345   4.597   3.353   2.335 -0.6608  0.3589 -0.5578
 7925SOL    HW224346   4.657   3.243   2.250 -1.3596 -0.1460 -0.4085
 7926SOL     OW24347   3.146   6.364   1.450  0.4340 -0.0079  0.2322
 7926SOL    HW124348   3.231   6.406   1.464  0.2145  0.4643  0.1885
 7926SOL    HW224349   3.089   6.406   1.515 -0.0637  0.5891 -0.5761
 7927SOL     OW24350   3.257   3.248   5.950  0.2386  0.6057  0.3779
 7927SOL    HW124351   3.351   3.247   5.966  0.4092  0.9587 -0.5363
 7927SOL    HW224352   3.249   3.247   5.855 -0.7152 -1.1420  0.4396
 7928SOL     OW24353   5.835   1.671   5.090 -0.5344  0.1664  0.3713
 7928SOL    HW124354   5.754   1.664   5.141 -0.5418  0.2665  0.3739
 7928SOL    HW224355   5.895   1.608   5.131 -0.7887 -0.2950  0.0271
 7929SOL     OW24356   3.159   6.085   1.473 -0.2658  0.0901  0.7006
 7929SOL    HW124357   3.154   6.173   1.434 -0.6669 -1.0932 -2.1442
 7929SOL    HW224358   3.068   6.060   1.488 -0.3217 -0.6593 -0.6659
 7930SOL     OW24359   6.499   1.994   1.977  0.1460 -0.2961 -0.2221
 7930SOL    HW124360   6.409   1.991   1.944  0.0148 -0.8886  0.1683
 7930SOL    HW224361   6.541   2.064   1.927 -1.1440  1.5091  1.0844
 7931SOL     OW24362   0.049   1.919   5.905  0.1444 -0.0250  0.3219
 7931SOL    HW124363   0.104   1.988   5.870  0.2961 -0.9917 -1.4667
 7931SOL    HW224364   0.074   1.912   5.997  0.3220  2.0627  0.4765
 7932SOL     OW24365   0.501   3.238   0.981 -0.4899  0.2775  0.3491
 7932SOL    HW124366   0.458   3.173   0.925  1.0379  0.4126 -1.0620
 7932SOL    HW224367   0.571   3.190   1.024 -0.0227  0.7515  0.1243
 7933SOL     OW24368   5.530   4.084   7.192 -0.4730  0.0182 -0.7178
 7933SOL    HW124369   5.496   4.059   7.106 -0.3406  0.9390 -1.0545
 7933SOL    HW224370   5.476   4.159   7.217  0.8010  1.0521 -0.9388
 7934SOL     OW24371   4.209   5.576   2.478 -0.0686  0.5234 -0.0459
 7934SOL    HW124372   4.121   5.598   2.510  1.0264  1.6206  2.5090
 7934SOL    HW224373   4.230   5.494   2.522  0.7702  1.0873  0.6304
 7935SOL     OW24374   5.893   1.087   4.144  0.3116 -0.2122  0.2662
 7935SOL    HW124375   5.876   1.041   4.062 -1.1517 -0.9994  0.9825
 7935SOL    HW224376   5.961   1.034   4.186  0.3108 -0.4033  0.0347
 7936SOL     OW24377   1.688   6.596   0.207  0.2285 -0.0100  0.1198
 7936SOL    HW124378   1.611   6.634   0.249 -0.1621 -0.3059 -0.3119
 7936SOL    HW224379   1.686   6.630   0.118 -0.4546 -1.4605 -0.4538
 7937SOL     OW24380   2.611   4.054   1.494 -0.1653 -0.2201  0.3819
 7937SOL    HW124381   2.693   4.040   1.446 -0.3854  0.7219 -0.2831
 7937SOL    HW224382   2.627   4.132   1.546 -1.4827  1.5785 -1.7562
 7938SOL     OW24383   0.082   4.061   2.091 -0.2008  0.6739 -0.1607
 7938SOL    HW124384   0.071   3.971   2.119  0.8160  0.5316 -0.1622
 7938SOL    HW224385   0.025   4.070   2.015  0.6954 -0.3789 -0.9886
 7939SOL     OW24386   3.266   5.616   5.287 -0.5829  0.1668 -0.9810
 7939SOL    HW124387   3.302   5.703   5.267  1.0334 -0.4975 -1.0685
 7939SOL    HW224388   3.320   5.583   5.358 -1.3550 -0.6652 -0.7649
 7940SOL     OW24389   2.771   1.308   1.657 -0.4377 -0.0361  0.1248
 7940SOL    HW124390   2.807   1.395   1.640 -0.3713 -0.1813 -0.5051
 7940SOL    HW224391   2.693   1.303   1.602 -0.2761 -0.4864 -0.0685
 7941SOL     OW24392   2.065   7.022   1.734 -0.4877 -0.1019 -0.6732
 7941SOL    HW124393   2.066   6.993   1.825  0.6500  2.7709  0.3203
 7941SOL    HW224394   2.108   7.107   1.735 -1.2849  0.4554 -3.7767
 7942SOL     OW24395   2.580   1.482   4.299 -0.1387 -0.5233  0.0540
 7942SOL    HW124396   2.632   1.419   4.248  0.4977 -0.3292  0.4450
 7942SOL    HW224397   2.595   1.566   4.256  4.0852  0.5780  2.9657
 7943SOL     OW24398   5.265   5.062   1.624  0.0571  0.3551  0.1886
 7943SOL    HW124399   5.316   4.989   1.660 -0.7493 -0.5747 -0.4893
 7943SOL    HW224400   5.174   5.035   1.635 -0.2893  1.7540  0.9039
 7944SOL     OW24401   5.473   5.596   6.532 -0.4400 -0.1885  0.2158
 7944SOL    HW124402   5.528   5.592   6.610 -1.1273  3.0226  0.9775
 7944SOL    HW224403   5.511   5.666   6.479 -0.9499 -1.2212 -1.6116
 7945SOL     OW24404   0.160   1.311   7.403  0.3311  0.1634  0.2082
 7945SOL    HW124405   0.162   1.380   7.337 -0.8606 -0.7331 -0.7998
 7945SOL    HW224406   0.078   1.264   7.387  0.6219 -0.8620  1.5223
 7946SOL     OW24407   3.291   6.538   0.110 -0.1642 -0.7316  0.0361
 7946SOL    HW124408   3.302   6.472   0.041  1.0719  0.5909 -1.1009
 7946SOL    HW224409   3.357   6.515   0.175  1.0927  0.0190 -0.9235
 7947SOL     OW24410   6.894   6.858   5.212  0.1445  0.6899  0.2449
 7947SOL    HW124411   6.846   6.827   5.135 -0.3792  2.0565  0.0033
 7947SOL    HW224412   6.835   6.841   5.286  1.3493 -2.3062  0.6756
 7948SOL     OW24413   5.216   2.731   6.424  0.0809 -0.0294 -0.2155
 7948SOL    HW124414   5.121   2.730   6.428  0.1062 -1.8204  1.0543
 7948SOL    HW224415   5.237   2.811   6.376 -2.0634  0.0855 -1.0783
 7949SOL     OW24416   0.408   3.835   4.429  0.2798 -0.0791 -0.0434
 7949SOL    HW124417   0.317   3.839   4.398  0.0696 -2.8809 -0.0557
 7949SOL    HW224418   0.416   3.910   4.488 -2.3119 -0.1939  0.5883
 7950SOL     OW24419   0.129   1.332   4.287 -0.2888  0.4014 -0.4003
 7950SOL    HW124420   0.193   1.301   4.223 -0.5964  0.6794 -0.8501
 7950SOL    HW224421   0.150   1.425   4.300  0.1698  0.1911  0.3839
 7951SOL     OW24422   1.199   5.799   6.609 -0.1790 -0.1055  0.0324
 7951SOL    HW124423   1.184   5.894   6.606  1.9960  0.3720  1.5554
 7951SOL    HW224424   1.200   5.778   6.702  0.8206 -1.3441 -0.2289
 7952SOL     OW24425   3.356   7.110   5.433 -0.1366  0.0425 -0.1770
 7952SOL    HW124426   3.438   7.086   5.390  0.1089  1.0881 -0.3161
 7952SOL    HW224427   3.371   7.091   5.525 -0.1033 -0.7124 -0.3308
 7953SOL     OW24428   1.509   1.149   7.219 -0.0305 -0.3165  0.6908
 7953SOL    HW124429   1.457   1.224   7.245 -0.1861 -0.5845  1.1730
 7953SOL    HW224430   1.600   1.177   7.229 -0.0884 -0.4712  1.7107
 7954SOL     OW24431   6.555   3.100   3.560 -0.1027  0.1334  0.1976
 7954SOL    HW124432   6.510   3.034   3.612  0.0063 -0.0453  0.0653
 7954SOL    HW224433   6.614   3.051   3.504  1.3694  0.4361  1.4047
 7955SOL     OW24434   5.159   4.544   4.496 -0.3891 -0.4399  0.0329
 7955SOL    HW124435   5.252   4.534   4.518  0.3521 -0.0404 -2.4704
 7955SOL    HW224436   5.123   4.596   4.568  0.6850 -2.6686  2.3251
 7956SOL     OW24437   4.648   4.829   6.817  0.1278  0.9476  0.0239
 7956SOL    HW124438   4.584   4.894   6.788  0.6697  0.8283 -1.5040
 7956SOL    HW224439   4.731   4.876   6.818  0.8509 -0.0802 -2.8542
 7957SOL     OW24440   0.642   5.983   7.258  0.2418  0.6576 -0.3072
 7957SOL    HW124441   0.625   5.898   7.218  0.1729  1.2378 -1.5844
 7957SOL    HW224442   0.572   5.995   7.321 -0.2732  0.1655 -0.7741
 7958SOL     OW24443   4.638   4.088   5.435 -0.3250  0.3759  0.4817
 7958SOL    HW124444   4.706   4.066   5.499 -0.0218 -0.0387  0.0270
 7958SOL    HW224445   4.606   4.003   5.405 -2.2798  0.5147  1.9508
 7959SOL     OW24446   1.149   5.526   5.685  0.7007 -0.5411  0.6131
 7959SOL    HW124447   1.158   5.617   5.713 -0.5548 -1.1499  3.4132
 7959SOL    HW224448   1.072   5.525   5.628  0.8542  0.1724  0.3901
 7960SOL     OW24449   2.235   0.877   4.148 -0.2952 -0.3176  0.4664
 7960SOL    HW124450   2.222   0.963   4.106  2.4302  0.8213  1.7124
 7960SOL    HW224451   2.184   0.882   4.229 -0.2489  0.0682  0.4732
 7961SOL     OW24452   3.173   0.988   3.552  0.7212  0.2028  0.0501
 7961SOL    HW124453   3.197   1.072   3.590 -0.2660  0.5421 -0.0560
 7961SOL    HW224454   3.203   0.994   3.461  1.4649  0.0754  0.2737
 7962SOL     OW24455   1.408   1.578   3.328 -0.1604 -0.2237  0.2578
 7962SOL    HW124456   1.317   1.568   3.303 -0.2004 -0.0667  0.3404
 7962SOL    HW224457   1.412   1.662   3.374  0.3579  0.5903 -1.2312
 7963SOL     OW24458   3.015   3.183   4.159  0.5665 -0.0748  0.2201
 7963SOL    HW124459   3.062   3.263   4.134  0.4070 -0.1061 -0.1884
 7963SOL    HW224460   3.080   3.114   4.151  0.4209 -0.1378 -0.4805
 7964SOL     OW24461   2.673   6.371   1.741  0.0671 -0.3417  0.1540
 7964SOL    HW124462   2.711   6.284   1.749 -0.9992 -0.7660  0.8798
 7964SOL    HW224463   2.579   6.356   1.736 -0.1871  0.7826  0.9279
 7965SOL     OW24464   1.539   1.771   0.113  0.4094 -0.0095 -0.0517
 7965SOL    HW124465   1.620   1.813   0.140 -0.4230  0.6727  1.5151
 7965SOL    HW224466   1.530   1.696   0.171 -0.5982  0.5368  0.5257
 7966SOL     OW24467   5.926   2.026   2.797 -0.6542 -0.9540  0.2260
 7966SOL    HW124468   6.019   2.006   2.793 -0.6278 -1.0809  1.1737
 7966SOL    HW224469   5.922   2.117   2.826 -0.8244 -1.2678  1.2284
 7967SOL     OW24470   4.485   3.819   1.902 -0.0489  0.3376  0.7085
 7967SOL    HW124471   4.570   3.855   1.876 -0.1413  1.3471  1.7222
 7967SOL    HW224472   4.429   3.832   1.825  0.5505  0.1992  0.2391
 7968SOL     OW24473   3.814   5.268   5.521  0.1159  0.3715 -0.2031
 7968SOL    HW124474   3.722   5.281   5.495 -0.0939  1.2106  0.8870
 7968SOL    HW224475   3.821   5.174   5.539 -0.1827  0.0747 -1.4980
 7969SOL     OW24476   5.009   0.747   2.817 -0.1632  0.2484 -0.3768
 7969SOL    HW124477   5.046   0.722   2.732 -1.2493  0.3797 -0.9053
 7969SOL    HW224478   5.016   0.842   2.820  0.5655  0.1927  0.0256
 7970SOL     OW24479   4.996   6.837   6.986  0.0271  0.7550  0.4148
 7970SOL    HW124480   4.903   6.813   6.982  0.1717  0.2960 -0.3557
 7970SOL    HW224481   5.040   6.757   7.015  0.3911  0.3744 -1.1093
 7971SOL     OW24482   6.137   3.558   5.898  0.0085 -0.4885  0.0332
 7971SOL    HW124483   6.153   3.468   5.871  0.0281 -0.3894 -0.2944
 7971SOL    HW224484   6.214   3.582   5.950  0.3167 -0.4443 -0.4343
 7972SOL     OW24485   0.645   3.244   3.249 -0.0226  0.2710  1.0535
 7972SOL    HW124486   0.554   3.262   3.274 -0.9555 -0.1166 -1.7410
 7972SOL    HW224487   0.674   3.323   3.204 -0.2302 -0.8235 -1.1398
 7973SOL     OW24488   0.957   1.169   0.537 -0.2632 -0.7176 -0.2727
 7973SOL    HW124489   0.911   1.218   0.604 -1.9689 -0.4725 -1.5498
 7973SOL    HW224490   1.001   1.098   0.584 -0.8324 -0.1454  1.1535
 7974SOL     OW24491   0.382   6.921   1.715  0.5919 -0.3775 -0.6158
 7974SOL    HW124492   0.472   6.934   1.687  0.1711 -0.8490 -2.3491
 7974SOL    HW224493   0.374   6.827   1.727  0.6292 -0.2271  0.7309
 7975SOL     OW24494   5.924   5.145   6.147  0.1114  0.0681  0.4298
 7975SOL    HW124495   5.859   5.214   6.152 -1.1164 -0.9240 -0.9037
 7975SOL    HW224496   5.991   5.180   6.088 -0.5268  0.1197 -0.2823
 7976SOL     OW24497   0.937   7.320   6.584 -0.2178  0.2994  0.0131
 7976SOL    HW124498   0.913   7.327   6.677 -0.8003 -0.5941 -0.0556
 7976SOL    HW224499   1.027   7.288   6.585 -0.5777 -0.7236  0.2757
 7977SOL     OW24500   6.438   3.947   4.612 -0.1113 -0.7752 -0.3113
 7977SOL    HW124501   6.420   4.041   4.619 -1.2258 -0.9871 -0.1123
 7977SOL    HW224502   6.484   3.925   4.694 -1.5503 -0.7530  0.5298
 7978SOL     OW24503   7.159   5.271   6.355  0.3086  0.2366 -0.1531
 7978SOL    HW124504   7.181   5.292   6.446 -0.2243 -0.0392  0.0385
 7978SOL    HW224505   7.210   5.334   6.303 -0.4579  1.3353  0.3810
 7979SOL     OW24506   5.895   1.776   6.906 -0.0331 -0.1672  0.1356
 7979SOL    HW124507   5.935   1.859   6.930  0.5909 -0.0376 -1.2943
 7979SOL    HW224508   5.961   1.710   6.929  0.3665 -0.0819 -0.7445
 7980SOL     OW24509   4.353   7.388   3.185 -0.3139 -0.1412  0.4779
 7980SOL    HW124510   4.326   7.384   3.276 -0.7075 -2.4563  0.3179
 7980SOL    HW224511   4.447   7.370   3.186 -0.0018  1.3698  0.5141
 7981SOL     OW24512   2.088   0.670   4.337 -0.6085  0.0629 -0.1659
 7981SOL    HW124513   2.043   0.754   4.341 -1.2514 -0.2609 -0.4092
 7981SOL    HW224514   2.018   0.605   4.343 -0.1610 -0.4546 -0.4319
 7982SOL     OW24515   1.174   5.276   2.058 -0.7711 -0.2058  0.0513
 7982SOL    HW124516   1.189   5.285   1.964 -0.8417 -0.7710 -0.0151
 7982SOL    HW224517   1.236   5.208   2.086  0.9292  1.5795  0.8397
 7983SOL     OW24518   6.476   1.764   1.353  0.2545 -0.0462 -0.6928
 7983SOL    HW124519   6.467   1.835   1.289  1.8705  1.1548  0.3373
 7983SOL    HW224520   6.514   1.692   1.303  2.6862  1.2768 -0.9503
 7984SOL     OW24521   1.245   4.296   4.235 -0.2270 -0.3973 -0.5575
 7984SOL    HW124522   1.272   4.253   4.316 -3.0219 -2.0921 -0.4051
 7984SOL    HW224523   1.194   4.372   4.263 -0.4938 -0.5061 -0.7476
 7985SOL     OW24524   7.135   4.256   5.352 -0.2704  0.5547 -0.1802
 7985SOL    HW124525   7.099   4.232   5.267 -0.9406  1.0895 -0.0614
 7985SOL    HW224526   7.225   4.225   5.350 -1.1053 -2.1880  0.0499
 7986SOL     OW24527   2.870   6.002   5.733 -0.0119  0.0001 -0.0312
 7986SOL    HW124528   2.931   5.969   5.667  0.2067  1.2209 -0.4677
 7986SOL    HW224529   2.820   6.070   5.687 -0.3781  0.3460  0.8557
 7987SOL     OW24530   7.162   2.534   5.658  0.4108 -0.3292 -0.2654
 7987SOL    HW124531   7.214   2.507   5.733  1.4600 -1.8586 -1.4821
 7987SOL    HW224532   7.081   2.483   5.666  0.3544 -0.1968  0.0220
 7988SOL     OW24533   4.111   3.782   1.087  0.3003  0.3395 -0.3584
 7988SOL    HW124534   4.137   3.803   1.176  0.2238  1.0895 -0.5055
 7988SOL    HW224535   4.077   3.865   1.052 -0.7768 -0.2162 -0.6925
 7989SOL     OW24536   2.906   2.034   2.110 -0.3120  0.2111 -0.3825
 7989SOL    HW124537   2.961   2.094   2.060  1.0053  0.9306  1.7640
 7989SOL    HW224538   2.817   2.064   2.096 -0.0364  0.1458 -2.5120
 7990SOL     OW24539   1.101   7.095   2.267  0.2309 -0.5317  0.2306
 7990SOL    HW124540   1.053   7.136   2.338 -0.9738  0.1464 -0.9322
 7990SOL    HW224541   1.144   7.168   2.221  2.0179 -1.0694  0.9438
 7991SOL     OW24542   6.061   0.445   3.421 -0.0896  0.0644  0.1831
 7991SOL    HW124543   6.019   0.370   3.464  0.4880  0.0650  0.7628
 7991SOL    HW224544   6.060   0.514   3.487 -0.7169  0.6154 -0.3835
 7992SOL     OW24545   3.877   4.329   4.974 -0.6572 -0.6074 -0.4189
 7992SOL    HW124546   3.910   4.349   4.886  1.3568  0.0662  0.4180
 7992SOL    HW224547   3.784   4.352   4.971 -0.5181 -0.1353 -2.2253
 7993SOL     OW24548   2.189   1.097   4.502 -0.4258  0.0801  0.3451
 7993SOL    HW124549   2.142   1.073   4.422 -0.9806  1.8524  0.0924
 7993SOL    HW224550   2.234   1.179   4.479  1.0975 -0.4549  1.2327
 7994SOL     OW24551   2.683   6.046   0.233  0.8060 -0.0878 -0.2950
 7994SOL    HW124552   2.715   5.977   0.292 -1.4735  0.8309  2.1865
 7994SOL    HW224553   2.709   6.128   0.275 -1.2429  0.6038 -0.2802
 7995SOL     OW24554   5.687   2.871   5.606  0.0399 -0.6153 -0.1862
 7995SOL    HW124555   5.728   2.853   5.522  0.6984 -1.5352  0.3101
 7995SOL    HW224556   5.696   2.966   5.617  1.2811 -0.6779 -0.4902
 7996SOL     OW24557   0.130   3.222   2.384 -0.1111 -0.8061 -0.2566
 7996SOL    HW124558   0.048   3.177   2.362  0.2852 -0.9524 -1.5126
 7996SOL    HW224559   0.180   3.157   2.434  0.0410 -1.4239 -1.1927
 7997SOL     OW24560   0.307   1.724   2.504 -0.5693  0.0381  0.0293
 7997SOL    HW124561   0.269   1.667   2.438 -0.3750 -0.5418  0.4090
 7997SOL    HW224562   0.392   1.750   2.468 -0.0628 -1.0087  0.4266
 7998SOL     OW24563   4.279   5.649   5.549  0.4203  0.0810 -0.0754
 7998SOL    HW124564   4.370   5.666   5.572  0.5105  0.1564 -0.4881
 7998SOL    HW224565   4.238   5.624   5.632  0.7870  0.1646  0.1338
 7999SOL     OW24566   6.832   7.078   3.595 -0.1200  0.7087  0.7810
 7999SOL    HW124567   6.782   7.154   3.563 -0.5458  0.4395  0.7926
 7999SOL    HW224568   6.779   7.044   3.667  0.3243  0.7012  1.1040
 8000SOL     OW24569   4.121   6.905   2.279  0.3745  0.5495 -0.2685
 8000SOL    HW124570   4.169   6.982   2.249  0.2783  0.8497  0.3394
 8000SOL    HW224571   4.060   6.938   2.345 -0.4125  0.1090 -0.7664
 8001SOL     OW24572   5.645   0.989   3.045  1.0050  0.4829 -0.3102
 8001SOL    HW124573   5.604   0.902   3.047 -0.3292  1.0726  2.0160
 8001SOL    HW224574   5.739   0.972   3.055  0.7076 -0.7047  0.7503
 8002SOL     OW24575   7.313   2.221   6.716 -0.5948  0.0148  0.4511
 8002SOL    HW124576   7.248   2.246   6.650 -1.6761 -0.1708  1.4225
 8002SOL    HW224577   7.265   2.220   6.798  1.2186  2.6550  1.7053
 8003SOL     OW24578   0.855   6.674   6.961  0.2343  0.6868  0.0522
 8003SOL    HW124579   0.922   6.691   6.895 -0.9454 -0.4755 -1.5279
 8003SOL    HW224580   0.904   6.660   7.042  2.0975 -1.5834 -1.3294
 8004SOL     OW24581   4.007   0.381   3.516 -0.4600  0.4068  0.1332
 8004SOL    HW124582   4.084   0.437   3.509  0.2505 -0.4350  1.0229
 8004SOL    HW224583   4.005   0.353   3.608 -2.5529  1.4109  0.4723
 8005SOL     OW24584   5.725   3.777   6.794 -0.5777 -0.3457 -0.2391
 8005SOL    HW124585   5.701   3.698   6.744  0.1247  0.1924 -1.4794
 8005SOL    HW224586   5.813   3.798   6.764 -1.2747  1.7265 -1.0470
 8006SOL     OW24587   5.127   0.518   3.444  0.2031  0.4753 -0.3502
 8006SOL    HW124588   5.147   0.608   3.418  0.9625  0.1646 -0.8536
 8006SOL    HW224589   5.206   0.468   3.422 -0.1416 -0.2789  0.1013
 8007SOL     OW24590   5.075   0.525   0.289  0.3599 -0.2128  0.0078
 8007SOL    HW124591   5.162   0.545   0.255 -0.4459  0.4422 -1.7522
 8007SOL    HW224592   5.091   0.498   0.379  2.1890  1.7494  0.3517
 8008SOL     OW24593   4.099   3.193   3.331 -0.0082  0.1240  0.1485
 8008SOL    HW124594   4.043   3.150   3.395 -0.0152  0.1283  0.1450
 8008SOL    HW224595   4.174   3.225   3.382 -0.5020  1.0292  0.3254
 8009SOL     OW24596   0.701   4.372   1.071  0.0597  0.6327  0.0533
 8009SOL    HW124597   0.708   4.403   1.162  0.1847 -0.3011  0.3683
 8009SOL    HW224598   0.693   4.452   1.019 -2.5878  1.1552  1.1065
 8010SOL     OW24599   6.798   0.639   6.516  0.1286 -0.5021 -0.1926
 8010SOL    HW124600   6.790   0.734   6.526  0.7685 -0.3820 -0.7480
 8010SOL    HW224601   6.884   0.618   6.551 -0.6234 -1.1180  1.3983
 8011SOL     OW24602   6.513   2.100   1.643 -0.6690 -0.3061  0.1691
 8011SOL    HW124603   6.473   2.141   1.719  0.1611 -1.1131  1.0712
 8011SOL    HW224604   6.473   2.013   1.637 -0.1130 -0.5733  0.2165
 8012SOL     OW24605   0.471   2.689   2.536 -0.5923  0.2552 -0.2635
 8012SOL    HW124606   0.517   2.721   2.613 -2.5588 -0.2556  1.1851
 8012SOL    HW224607   0.414   2.761   2.510 -0.8646 -0.0243 -0.4544
 8013SOL     OW24608   2.136   1.388   7.203  0.1591  0.1385 -0.6211
 8013SOL    HW124609   2.061   1.396   7.144  0.4362 -1.0429 -1.1748
 8013SOL    HW224610   2.171   1.300   7.186  0.4904 -0.0893  1.0282
 8014SOL     OW24611   6.183   0.383   0.779  0.4611 -0.5297  0.4557
 8014SOL    HW124612   6.253   0.449   0.779 -0.4798  0.4924 -0.4621
 8014SOL    HW224613   6.222   0.307   0.736  1.5948 -0.6581  1.6229
 8015SOL     OW24614   1.923   3.038   0.801 -0.0240  0.5058 -0.2065
 8015SOL    HW124615   1.953   3.107   0.860 -1.1226  1.0231 -0.2269
 8015SOL    HW224616   1.939   3.073   0.713  0.3081  0.3258 -0.2191
 8016SOL     OW24617   7.018   3.369   1.945 -0.2074  0.0712  0.3318
 8016SOL    HW124618   7.063   3.316   2.011 -1.4897 -0.3758  0.8628
 8016SOL    HW224619   7.078   3.442   1.929  0.5177 -0.2855  1.3320
 8017SOL     OW24620   1.282   5.524   0.864 -0.3647 -0.1773  0.3963
 8017SOL    HW124621   1.211   5.518   0.801  2.4164 -2.9301 -2.8553
 8017SOL    HW224622   1.305   5.617   0.865 -0.6816  0.0176 -2.5960
 8018SOL     OW24623   7.184   5.023   2.634 -0.5769  0.3205  0.2614
 8018SOL    HW124624   7.246   5.094   2.650  0.1151 -0.4739  1.1798
 8018SOL    HW224625   7.198   4.998   2.542  1.7376 -1.0260  0.9181
 8019SOL     OW24626   4.145   3.021   1.793 -0.1234  0.2902  0.2414
 8019SOL    HW124627   4.090   2.943   1.797 -0.9667  0.7729 -1.1592
 8019SOL    HW224628   4.234   2.988   1.810 -0.7294 -0.6040  1.8750
 8020SOL     OW24629   1.140   0.324   4.131  0.0335  0.3111  0.0524
 8020SOL    HW124630   1.106   0.259   4.070  1.9320 -0.8741  0.1604
 8020SOL    HW224631   1.167   0.397   4.076 -1.7575  0.8818 -0.1122
 8021SOL     OW24632   7.058   2.588   4.401  0.4300 -0.2106 -0.2935
 8021SOL    HW124633   7.026   2.649   4.334  1.0167 -0.6588 -0.9954
 8021SOL    HW224634   7.085   2.510   4.352 -1.2330 -1.4491  0.6819
 8022SOL     OW24635   0.297   5.018   1.495  1.1781 -0.1799  0.3729
 8022SOL    HW124636   0.392   5.034   1.491  1.0234  0.5772 -2.0711
 8022SOL    HW224637   0.262   5.064   1.419 -0.9480 -1.9100  0.2106
 8023SOL     OW24638   3.862   4.948   1.874  0.4076 -0.1946 -0.0305
 8023SOL    HW124639   3.832   5.039   1.866  1.7472  0.3331  0.6835
 8023SOL    HW224640   3.831   4.905   1.794 -0.8484  0.7050 -0.0550
 8024SOL     OW24641   7.081   6.650   0.976 -0.2329  0.0916 -0.0153
 8024SOL    HW124642   7.031   6.619   1.051  0.1417  0.2096  0.2908
 8024SOL    HW224643   7.168   6.670   1.012 -0.1895  0.5952 -0.3858
 8025SOL     OW24644   0.040   2.438   1.865  0.9047 -0.6152  0.2399
 8025SOL    HW124645   0.086   2.519   1.887  1.0654 -1.5268  3.9338
 8025SOL    HW224646  -0.046   2.448   1.905  0.6358 -1.9648  0.0520
 8026SOL     OW24647   2.984   5.094   4.843 -0.0129 -0.0638 -0.2176
 8026SOL    HW124648   3.010   5.185   4.859 -0.1066 -0.3117  1.4991
 8026SOL    HW224649   2.964   5.092   4.749  1.0109  1.4171 -0.5146
 8027SOL     OW24650   2.051   6.727   1.981  0.3001  0.0487  0.4241
 8027SOL    HW124651   2.016   6.692   1.899  1.1682 -0.1714  0.1369
 8027SOL    HW224652   1.974   6.760   2.028 -0.2772 -0.3582 -0.2159
 8028SOL     OW24653   4.043   2.915   5.957  0.8322  0.0266  0.1135
 8028SOL    HW124654   4.114   2.910   5.893  0.7443  3.1115 -0.3769
 8028SOL    HW224655   4.084   2.953   6.035  0.0842  0.0933  0.4807
 8029SOL     OW24656   4.936   2.890   6.509 -0.2462  0.4321  0.3108
 8029SOL    HW124657   5.006   2.955   6.511 -0.9831  1.2970 -0.6400
 8029SOL    HW224658   4.870   2.923   6.569 -0.3480  0.2272  0.3145
 8030SOL     OW24659   1.482   1.917   1.883 -0.4742  0.4521 -0.3164
 8030SOL    HW124660   1.453   2.001   1.921  0.1831 -0.2881  1.9799
 8030SOL    HW224661   1.422   1.853   1.920  0.9299 -0.4544  0.4809
 8031SOL     OW24662   1.990   5.587   3.111  0.1780 -0.1405 -0.1091
 8031SOL    HW124663   1.994   5.553   3.022 -0.8829  2.5011 -1.2391
 8031SOL    HW224664   1.919   5.650   3.110 -0.1364 -0.3172  2.7532
 8032SOL     OW24665   6.213   6.602   3.496 -0.0884  0.0197  0.5857
 8032SOL    HW124666   6.288   6.591   3.554 -1.2350 -2.2081  1.7907
 8032SOL    HW224667   6.150   6.653   3.546 -0.1243  0.2539  0.3074
 8033SOL     OW24668   4.909   2.766   3.687  0.9946 -0.0374  0.1977
 8033SOL    HW124669   4.927   2.690   3.742 -1.9647 -2.0973 -1.4139
 8033SOL    HW224670   4.988   2.777   3.634  1.5601 -1.8357  0.6118
 8034SOL     OW24671   7.001   3.486   5.216 -0.9210  0.4554 -0.0286
 8034SOL    HW124672   7.041   3.572   5.230 -0.1485  0.1285 -0.1223
 8034SOL    HW224673   6.927   3.503   5.158 -0.3347  0.9666 -0.6542
 8035SOL     OW24674   6.207   4.898   1.723  0.2068 -0.1655  0.1135
 8035SOL    HW124675   6.175   4.980   1.686  2.4532  1.6470  1.8778
 8035SOL    HW224676   6.189   4.832   1.655 -2.0219  1.6521 -1.2017
 8036SOL     OW24677   2.742   0.562   1.552  0.6491 -0.4298  0.1983
 8036SOL    HW124678   2.831   0.545   1.523 -0.0395 -0.3826 -2.2071
 8036SOL    HW224679   2.747   0.646   1.597  1.5666  0.5550 -1.5990
 8037SOL     OW24680   1.099   3.558   7.083 -0.1563 -0.3840  0.7032
 8037SOL    HW124681   1.028   3.549   7.020  0.2201  0.5341  0.1272
 8037SOL    HW224682   1.100   3.475   7.130 -2.4792  0.0167  1.6559
 8038SOL     OW24683   4.511   4.240   2.381  0.2459 -0.3584 -0.4711
 8038SOL    HW124684   4.582   4.183   2.409  1.0734  2.1502  3.2271
 8038SOL    HW224685   4.554   4.322   2.357 -1.2398  0.7302  0.4030
 8039SOL     OW24686   0.132   2.157   6.732  0.1551  0.0538 -0.4368
 8039SOL    HW124687   0.045   2.189   6.711  1.0309  2.8407 -0.1780
 8039SOL    HW224688   0.121   2.109   6.814 -0.7893  2.6876  1.0994
 8040SOL     OW24689   4.542   2.206   6.777 -0.1728 -0.4208  0.7757
 8040SOL    HW124690   4.600   2.149   6.828 -0.8352 -0.6567  1.2831
 8040SOL    HW224691   4.527   2.282   6.833  2.3406  1.3263 -0.6743
 8041SOL     OW24692   1.964   4.315   0.097 -0.2610 -0.2144 -0.3630
 8041SOL    HW124693   1.965   4.221   0.117 -0.9167  0.0074  0.7526
 8041SOL    HW224694   1.883   4.347   0.135  0.9777  1.2235  1.2241
 8042SOL     OW24695   2.702   3.770   6.930 -0.2049 -0.2562  0.1039
 8042SOL    HW124696   2.670   3.748   6.842  1.0735  3.4851 -1.5213
 8042SOL    HW224697   2.623   3.792   6.979 -0.8004 -0.5568 -0.6970
 8043SOL     OW24698   5.824   4.819   6.744  0.2922 -0.0116  0.3783
 8043SOL    HW124699   5.828   4.906   6.704 -0.1779  0.0302  0.4121
 8043SOL    HW224700   5.757   4.827   6.812  0.3838 -0.3477  0.5084
 8044SOL     OW24701   6.668   3.950   5.338 -0.0737  0.1527 -0.0299
 8044SOL    HW124702   6.740   4.006   5.367 -0.8582  1.2068 -0.0839
 8044SOL    HW224703   6.709   3.889   5.276  1.3346 -1.1694  2.0636
 8045SOL     OW24704   5.864   4.550   6.739 -0.8632 -0.4048 -0.0311
 8045SOL    HW124705   5.887   4.643   6.737  0.0644 -0.5619  1.6869
 8045SOL    HW224706   5.842   4.530   6.648 -1.0954  1.4786 -0.4458
 8046SOL     OW24707   4.714   2.040   2.858  0.0014 -0.3498 -0.0103
 8046SOL    HW124708   4.701   2.122   2.810 -2.6806 -1.0779 -0.6914
 8046SOL    HW224709   4.707   1.971   2.791 -0.7646 -1.2473  0.9501
 8047SOL     OW24710   1.452   5.107   0.433 -0.1066 -0.2761  0.0933
 8047SOL    HW124711   1.405   5.062   0.362 -0.2552 -0.7915  0.5165
 8047SOL    HW224712   1.527   5.052   0.452  0.1395  0.0532  0.0895
 8048SOL     OW24713   0.766   2.041   0.880 -0.2100 -0.4107 -0.2134
 8048SOL    HW124714   0.786   1.952   0.851  0.1525 -0.2636 -0.4237
 8048SOL    HW224715   0.807   2.098   0.815 -1.9381 -0.0862 -1.0678
 8049SOL     OW24716   0.195   6.246   2.877  0.0777 -0.3792  0.2436
 8049SOL    HW124717   0.156   6.180   2.933 -1.8331  0.1459 -0.3821
 8049SOL    HW224718   0.170   6.220   2.788  1.2307 -0.0427 -0.2008
 8050SOL     OW24719   3.222   4.256   1.607  0.4770  0.0076  0.5278
 8050SOL    HW124720   3.239   4.294   1.521 -1.2578 -1.5504 -0.5925
 8050SOL    HW224721   3.292   4.191   1.618  1.0943  0.6783  0.6084
 8051SOL     OW24722   1.699   5.344   6.068  0.1724  0.5677 -0.0085
 8051SOL    HW124723   1.612   5.369   6.038 -0.9527 -1.4380  1.2852
 8051SOL    HW224724   1.730   5.281   6.003 -0.3606 -0.4229  0.6636
 8052SOL     OW24725   7.398   3.949   4.188 -0.5314 -0.4661  0.5363
 8052SOL    HW124726   7.369   3.960   4.097  0.2240  1.8591  0.5137
 8052SOL    HW224727   7.318   3.951   4.240 -0.9094 -1.0609 -0.0081
 8053SOL     OW24728   5.174   0.716   3.173 -0.3482 -0.3010 -0.3020
 8053SOL    HW124729   5.189   0.781   3.105  0.9738 -1.9853 -1.6995
 8053SOL    HW224730   5.180   0.766   3.255  3.6758  0.9524 -1.1420
 8054SOL     OW24731   0.031   3.263   1.696  0.2046 -0.1095  0.2119
 8054SOL    HW124732   0.010   3.313   1.775 -0.5949 -0.5660  0.2932
 8054SOL    HW224733  -0.053   3.247   1.654  0.2900 -2.4908  0.8498
 8055SOL     OW24734   5.308   7.147   5.532 -0.6708 -0.1408  0.2462
 8055SOL    HW124735   5.281   7.164   5.441 -1.4349 -0.4271  0.4119
 8055SOL    HW224736   5.398   7.178   5.536 -0.0233 -1.7075 -1.0888
 8056SOL     OW24737   3.980   7.223   4.281  0.5530  0.7157  0.0792
 8056SOL    HW124738   4.056   7.224   4.338 -1.2157 -1.5952  2.7006
 8056SOL    HW224739   3.973   7.133   4.251  0.1017  1.3919 -2.0080
 8057SOL     OW24740   0.719   3.081   2.764  0.0670  0.7271 -0.4588
 8057SOL    HW124741   0.685   3.101   2.852 -0.4424  0.1623 -0.5165
 8057SOL    HW224742   0.803   3.039   2.780  0.5134  1.6543 -0.2909
 8058SOL     OW24743   4.946   7.389   1.712 -0.6501  0.3973 -0.0259
 8058SOL    HW124744   5.027   7.344   1.690 -0.2572  0.3281  1.4628
 8058SOL    HW224745   4.949   7.399   1.807 -2.1052  0.9392 -0.0120
 8059SOL     OW24746   2.865   3.947   0.870 -0.7239 -0.1591 -0.2338
 8059SOL    HW124747   2.808   3.890   0.921 -1.3458 -0.8458 -1.6435
 8059SOL    HW224748   2.806   4.005   0.823 -0.2881 -0.8731 -1.7122
 8060SOL     OW24749   1.211   6.562   4.193  0.0252 -0.1702 -0.5636
 8060SOL    HW124750   1.158   6.511   4.133  1.0574  1.1001 -2.6609
 8060SOL    HW224751   1.295   6.516   4.195 -0.0571 -0.2977  0.0488
 8061SOL     OW24752   0.458   3.990   1.595  0.3602  0.6373  0.0314
 8061SOL    HW124753   0.400   4.026   1.661 -0.6224  1.0800 -1.0278
 8061SOL    HW224754   0.527   3.946   1.644 -1.2578 -0.5489  1.3592
 8062SOL     OW24755   5.543   1.548   1.942 -0.4686 -0.2720 -0.3385
 8062SOL    HW124756   5.458   1.579   1.971 -0.6439 -1.1502  0.1203
 8062SOL    HW224757   5.534   1.537   1.847 -0.8658 -0.3611 -0.2916
 8063SOL     OW24758   2.762   1.947   4.402 -0.1249  0.0272  0.3146
 8063SOL    HW124759   2.750   1.936   4.496 -2.1191 -4.0214 -0.2102
 8063SOL    HW224760   2.675   1.966   4.368  0.7182  2.4168 -0.7410
 8064SOL     OW24761   6.423   3.861   3.415 -0.2022  0.1252  0.4692
 8064SOL    HW124762   6.495   3.826   3.362  0.9047  2.1210  0.5836
 8064SOL    HW224763   6.397   3.787   3.470 -0.5509 -1.6515 -1.9023
 8065SOL     OW24764   3.043   3.801   6.271 -0.1960  0.2740 -0.1035
 8065SOL    HW124765   3.131   3.763   6.277 -0.2882  0.1228  0.3270
 8065SOL    HW224766   3.058   3.895   6.276  0.1129  0.3723 -2.0626
 8066SOL     OW24767   6.169   5.329   5.138 -0.1217 -0.0691 -0.1335
 8066SOL    HW124768   6.100   5.299   5.197 -0.2127 -0.1996 -0.3057
 8066SOL    HW224769   6.172   5.424   5.151  0.6995 -0.2248  0.9993
 8067SOL     OW24770   6.747   6.393   6.949 -0.3306 -0.2886  0.3062
 8067SOL    HW124771   6.786   6.477   6.973  1.0328 -0.7499 -0.2250
 8067SOL    HW224772   6.781   6.374   6.862 -0.0620 -1.7182  0.6956
 8068SOL     OW24773   2.769   3.132   4.075  0.7220  0.0903 -0.3099
 8068SOL    HW124774   2.713   3.175   4.139  1.3784  3.4850 -1.8175
 8068SOL    HW224775   2.858   3.155   4.103  1.2302 -1.8195 -0.2285
 8069SOL     OW24776   5.628   5.200   0.572 -0.4614  0.0424  0.1530
 8069SOL    HW124777   5.660   5.141   0.641  0.5487  1.8086  1.2567
 8069SOL    HW224778   5.549   5.239   0.609 -0.2268  0.5898  0.0751
 8070SOL     OW24779   3.530   6.067   0.718  0.7230  0.0891 -0.1567
 8070SOL    HW124780   3.561   5.984   0.681  1.2271  0.3631 -0.3651
 8070SOL    HW224781   3.567   6.133   0.660  1.3120  0.5184  0.6885
 8071SOL     OW24782   1.076   0.783   2.049  0.2036  0.4151 -0.2500
 8071SOL    HW124783   0.992   0.753   2.013  0.3348 -0.3220  0.0335
 8071SOL    HW224784   1.142   0.738   1.997  0.4088  0.1736  0.2171
 8072SOL     OW24785   0.068   0.910   2.415  0.3330 -0.2181  0.1817
 8072SOL    HW124786   0.031   0.844   2.357 -0.5145 -1.0478  1.5940
 8072SOL    HW224787   0.014   0.988   2.400 -0.3459 -0.6451  0.3732
 8073SOL     OW24788   3.612   3.157   6.413  0.3870  0.1465  0.2454
 8073SOL    HW124789   3.616   3.063   6.429 -0.0267  0.1913  0.6177
 8073SOL    HW224790   3.630   3.166   6.319 -1.4427 -0.4554 -0.2077
 8074SOL     OW24791   3.330   3.440   3.250  0.2210  0.4399  0.2007
 8074SOL    HW124792   3.237   3.421   3.262  0.8743 -1.4673  3.7527
 8074SOL    HW224793   3.353   3.398   3.167 -1.5872 -1.4119  0.5496
 8075SOL     OW24794   0.555   2.274   1.827  0.7044 -0.5531 -0.1941
 8075SOL    HW124795   0.636   2.223   1.835  0.1339 -1.2970  1.1298
 8075SOL    HW224796   0.548   2.320   1.910 -0.9615 -1.6244  0.3014
 8076SOL     OW24797   6.171   5.644   7.270  0.6119  0.5036  0.5227
 8076SOL    HW124798   6.085   5.680   7.291 -0.3856 -2.2671  1.6634
 8076SOL    HW224799   6.158   5.601   7.185  0.5488 -0.7015  1.1170
 8077SOL     OW24800   1.463   2.480   2.771  0.0733 -0.0375 -0.3249
 8077SOL    HW124801   1.457   2.503   2.678 -1.2350  0.1625 -0.2085
 8077SOL    HW224802   1.490   2.560   2.814 -1.9521  0.6646 -0.2368
 8078SOL     OW24803   3.384   1.877   0.509  0.2211  0.2187 -0.2466
 8078SOL    HW124804   3.393   1.840   0.597 -2.4127  1.4279  0.6190
 8078SOL    HW224805   3.368   1.970   0.524 -0.1141  0.4714 -2.0178
 8079SOL     OW24806   4.070   4.825   7.415 -0.2167  0.1138  0.1479
 8079SOL    HW124807   4.146   4.862   7.459  0.5538  0.3381 -1.3212
 8079SOL    HW224808   3.996   4.848   7.472  0.6941  0.6366  1.1580
 8080SOL     OW24809   2.841   0.052   4.447 -0.2693 -0.5979 -0.0779
 8080SOL    HW124810   2.877   0.130   4.488 -0.8974 -0.9026  1.0943
 8080SOL    HW224811   2.793   0.084   4.370 -0.4613  0.1618  0.3530
 8081SOL     OW24812   5.475   3.179   1.388  0.2889  0.3582 -0.0664
 8081SOL    HW124813   5.538   3.148   1.453  0.7173  0.4296 -0.4371
 8081SOL    HW224814   5.461   3.102   1.332 -1.3100 -0.1946  1.0331
 8082SOL     OW24815   2.829   3.441   1.470 -0.0327 -0.0465  0.1902
 8082SOL    HW124816   2.838   3.504   1.398 -2.7638  1.7284  1.2175
 8082SOL    HW224817   2.872   3.484   1.544  1.0565 -0.9778  0.1150
 8083SOL     OW24818   1.965   1.957   1.921  0.4288  0.4738  0.3247
 8083SOL    HW124819   1.944   2.002   2.003 -0.2792  0.3261  0.2261
 8083SOL    HW224820   2.060   1.947   1.923  0.6622  2.3116  0.1879
 8084SOL     OW24821   3.125   0.451   3.652  0.2803 -0.2326  0.3778
 8084SOL    HW124822   3.135   0.400   3.733 -0.4662  0.1340  0.7077
 8084SOL    HW224823   3.080   0.531   3.679 -0.2254 -0.2274 -0.4453
 8085SOL     OW24824   3.217   6.725   5.688 -0.1685  0.0186  0.0058
 8085SOL    HW124825   3.176   6.778   5.757 -2.3910  1.0349 -1.9937
 8085SOL    HW224826   3.154   6.655   5.671  0.6657 -0.6095 -0.5585
 8086SOL     OW24827   5.690   5.781   3.953  0.4488 -0.9974 -0.7550
 8086SOL    HW124828   5.623   5.821   3.897  0.3384 -0.3060 -0.1517
 8086SOL    HW224829   5.768   5.777   3.898  0.7356  0.9774 -0.5564
 8087SOL     OW24830   1.413   6.380   0.295  0.5777 -0.0049  0.1174
 8087SOL    HW124831   1.401   6.335   0.379 -0.7433  1.4442  0.7454
 8087SOL    HW224832   1.327   6.416   0.274  1.5096  2.0919 -0.3994
 8088SOL     OW24833   3.906   3.096   0.450  0.2760  0.0900  0.0636
 8088SOL    HW124834   3.971   3.120   0.516  0.8070 -1.4696  0.1379
 8088SOL    HW224835   3.928   3.149   0.374  0.4209  1.0006  0.7217
 8089SOL     OW24836   6.600   3.604   0.765 -0.4656  0.5299 -0.5251
 8089SOL    HW124837   6.539   3.679   0.764 -0.8689  0.2081 -0.5377
 8089SOL    HW224838   6.664   3.624   0.697  0.2967  1.5603  0.4522
 8090SOL     OW24839   2.529   3.365   0.750  0.3059  0.4054 -0.3483
 8090SOL    HW124840   2.459   3.423   0.723 -0.5433 -0.3613  0.1572
 8090SOL    HW224841   2.583   3.354   0.671 -1.1635 -0.4296 -1.2800
 8091SOL     OW24842   0.150   5.346   1.029 -0.3233 -0.0557 -1.0892
 8091SOL    HW124843   0.167   5.301   0.947  0.8442 -0.9088 -0.4083
 8091SOL    HW224844   0.057   5.368   1.026 -0.2233  0.2129 -2.7598
 8092SOL     OW24845   2.689   2.399   4.272  0.8824 -0.6716 -0.5067
 8092SOL    HW124846   2.700   2.347   4.193  1.2039 -0.6212 -0.4963
 8092SOL    HW224847   2.778   2.424   4.297  0.8570 -1.3454  0.3048
 8093SOL     OW24848   6.645   3.697   4.124  0.1908 -0.1212  0.5406
 8093SOL    HW124849   6.697   3.766   4.165 -0.9761  1.1356 -0.0288
 8093SOL    HW224850   6.709   3.631   4.097  1.8060  2.2589 -1.9565
 8094SOL     OW24851   1.467   4.677   1.953 -0.6163 -0.4680  0.1739
 8094SOL    HW124852   1.481   4.772   1.953  0.0329 -0.5546  0.5724
 8094SOL    HW224853   1.495   4.650   1.865  0.2684 -0.4205  0.4233
 8095SOL     OW24854   2.591   2.501   2.636 -0.3489 -0.2843  0.2500
 8095SOL    HW124855   2.667   2.459   2.596 -0.5944 -2.6276  2.0476
 8095SOL    HW224856   2.543   2.430   2.678 -3.4704  1.1462 -0.6228
 8096SOL     OW24857   1.429   4.444   6.758 -0.1895 -0.0911  0.2404
 8096SOL    HW124858   1.460   4.535   6.766 -0.4121  0.0925 -0.8647
 8096SOL    HW224859   1.356   4.449   6.696  0.0400 -1.0890 -0.1232
 8097SOL     OW24860   1.038   0.960   3.558 -0.4076 -0.2945  0.1100
 8097SOL    HW124861   1.069   0.871   3.542  1.0801  0.0324  1.0861
 8097SOL    HW224862   0.943   0.949   3.570 -0.2216 -1.7944  0.5170
 8098SOL     OW24863   0.502   2.014   0.900  0.2917  0.5541 -0.0333
 8098SOL    HW124864   0.596   2.015   0.915  0.4231  1.2436 -0.8637
 8098SOL    HW224865   0.464   2.032   0.986  0.9508  1.6568  0.0459
 8099SOL     OW24866   3.399   3.718   3.346  0.2131  0.6297 -0.2500
 8099SOL    HW124867   3.350   3.757   3.273 -2.5540 -0.4006  0.9206
 8099SOL    HW224868   3.383   3.624   3.337  1.7164  0.2727  0.4560
 8100SOL     OW24869   6.254   1.030   3.961  0.0925 -0.1965 -0.2882
 8100SOL    HW124870   6.287   0.946   3.927  0.8821 -0.2081  0.4623
 8100SOL    HW224871   6.332   1.073   3.996 -0.3937  0.6368 -0.2211
 8101SOL     OW24872   5.703   6.185   3.846 -0.4012  0.1060 -0.4733
 8101SOL    HW124873   5.720   6.104   3.798  2.3887  0.5760 -0.4512
 8101SOL    HW224874   5.656   6.158   3.925 -1.8473 -1.1087 -1.6811
 8102SOL     OW24875   1.700   5.285   4.396  0.0545 -0.3760  0.5499
 8102SOL    HW124876   1.716   5.341   4.472 -0.5717 -1.5876  1.6166
 8102SOL    HW224877   1.625   5.232   4.421 -1.0341  0.1135 -1.4631
 8103SOL     OW24878   5.725   2.437   6.982  0.2364 -0.0261  0.2179
 8103SOL    HW124879   5.674   2.502   6.934 -0.0924 -0.7360 -0.4109
 8103SOL    HW224880   5.678   2.427   7.065  0.6988  1.0609  0.6279
 8104SOL     OW24881   3.144   6.112   4.363 -0.1764 -0.0513 -0.4690
 8104SOL    HW124882   3.173   6.122   4.454  0.8836  0.9326 -0.8963
 8104SOL    HW224883   3.048   6.111   4.369 -0.1320  0.2077  0.6360
 8105SOL     OW24884   0.150   4.546   0.640  0.0132  0.2014  0.0338
 8105SOL    HW124885   0.165   4.615   0.576 -0.8417  0.6379  0.2795
 8105SOL    HW224886   0.209   4.567   0.712  1.1724 -0.4443 -0.7103
 8106SOL     OW24887   6.089   5.729   4.449 -0.2174  0.0207  0.5543
 8106SOL    HW124888   6.169   5.773   4.418  0.0011 -0.5310  0.3213
 8106SOL    HW224889   6.117   5.639   4.468 -1.2376 -0.8342 -1.6634
 8107SOL     OW24890   2.551   5.802   0.068 -0.7189  0.2282  0.2087
 8107SOL    HW124891   2.592   5.771   0.149  0.2269  1.6895  0.3218
 8107SOL    HW224892   2.540   5.896   0.080  2.1234  1.0597 -2.3883
 8108SOL     OW24893   4.830   5.354   6.316  0.9343  0.2857  0.0221
 8108SOL    HW124894   4.760   5.397   6.266  0.3334 -1.5823 -0.8130
 8108SOL    HW224895   4.910   5.396   6.285  0.4373  0.2750 -1.3573
 8109SOL     OW24896   6.050   2.438   3.475 -0.9900 -0.1859 -0.5944
 8109SOL    HW124897   6.050   2.362   3.533 -1.0607  0.3271  0.0913
 8109SOL    HW224898   6.139   2.442   3.440 -0.4370  0.5063  0.8326
 8110SOL     OW24899   6.307   7.356   6.368  0.1391  0.2850 -0.2122
 8110SOL    HW124900   6.227   7.400   6.338 -0.2336 -0.2665 -0.0485
 8110SOL    HW224901   6.378   7.416   6.345 -0.2188  0.2920 -1.3743
 8111SOL     OW24902   3.876   6.056   0.137 -0.3379 -0.4587  0.0044
 8111SOL    HW124903   3.808   5.998   0.169  0.9544 -2.8220 -1.2325
 8111SOL    HW224904   3.919   6.090   0.216 -1.5097 -0.6938  0.7581
 8112SOL     OW24905   6.895   1.420   4.771  0.5236 -0.1765 -0.0458
 8112SOL    HW124906   6.803   1.443   4.784  0.4100  0.1271 -1.2087
 8112SOL    HW224907   6.901   1.397   4.678  1.5952 -0.3410  0.0454
 8113SOL     OW24908   1.741   3.507   6.994 -0.5489  0.2385  0.5190
 8113SOL    HW124909   1.814   3.556   6.956 -2.4195  2.9923  0.1349
 8113SOL    HW224910   1.778   3.463   7.070  2.1535 -1.1907 -1.4465
 8114SOL     OW24911   3.948   1.572   6.354  0.2039 -0.3497 -0.7384
 8114SOL    HW124912   3.903   1.513   6.415 -0.5738  0.7266 -0.2512
 8114SOL    HW224913   4.025   1.601   6.402 -0.4452  0.5524 -0.2090
 8115SOL     OW24914   0.275   7.283   2.102  0.0122 -0.5474 -0.4814
 8115SOL    HW124915   0.270   7.189   2.115 -2.0494 -0.5540 -0.9452
 8115SOL    HW224916   0.355   7.296   2.051  1.2688 -1.8234  1.0774
 8116SOL     OW24917   5.188   3.576   3.356 -0.6723 -0.7500 -0.0487
 8116SOL    HW124918   5.195   3.482   3.375 -0.4180 -0.7091  0.0652
 8116SOL    HW224919   5.096   3.589   3.333 -0.3183 -1.3875 -2.0434
 8117SOL     OW24920   0.931   1.016   1.503 -0.1541  0.4696 -0.4931
 8117SOL    HW124921   0.923   1.099   1.456 -0.1607  1.1769  0.7339
 8117SOL    HW224922   1.018   1.018   1.542 -0.1420 -0.1215 -0.4785
 8118SOL     OW24923   5.174   4.197   3.553  0.0271 -0.2780 -0.0085
 8118SOL    HW124924   5.120   4.269   3.521  1.8965  0.9903 -0.4507
 8118SOL    HW224925   5.121   4.119   3.537 -2.3477  0.9954  1.1057
 8119SOL     OW24926   0.346   1.232   5.640 -0.0812  0.9404 -0.2776
 8119SOL    HW124927   0.371   1.323   5.623 -2.1637  1.5308 -0.4641
 8119SOL    HW224928   0.280   1.213   5.574 -0.3809 -0.4031  0.3764
 8120SOL     OW24929   6.584   2.036   2.232 -0.1912 -0.0433  0.0723
 8120SOL    HW124930   6.562   2.006   2.144 -2.0895  1.4974 -0.0289
 8120SOL    HW224931   6.500   2.049   2.276  0.6853  0.1406  1.8124
 8121SOL     OW24932   1.747   3.436   6.346  0.4751 -0.0434 -0.1756
 8121SOL    HW124933   1.814   3.437   6.415  1.8105 -1.1118 -1.3921
 8121SOL    HW224934   1.755   3.349   6.306 -2.8498 -0.9100  0.7255
 8122SOL     OW24935   5.949   6.270   3.929  0.0052  0.2369 -0.4381
 8122SOL    HW124936   5.860   6.246   3.904 -0.6016  1.0289  0.8303
 8122SOL    HW224937   5.946   6.365   3.942  1.3783  0.4969 -1.6131
 8123SOL     OW24938   7.392   2.910   0.497  0.2453 -0.3081 -0.4939
 8123SOL    HW124939   7.376   2.832   0.444 -2.9827  1.2875 -2.1053
 8123SOL    HW224940   7.343   2.895   0.578 -0.7955  0.2006 -1.0130
 8124SOL     OW24941   4.307   1.242   4.727 -0.1091 -0.0058 -0.0017
 8124SOL    HW124942   4.363   1.200   4.663 -1.5385 -2.2919  0.1347
 8124SOL    HW224943   4.366   1.270   4.797  1.1514  0.2275 -1.1313
 8125SOL     OW24944   6.421   6.242   3.560  0.4935 -0.5903 -0.2913
 8125SOL    HW124945   6.379   6.162   3.591  0.8885 -0.6755  0.0242
 8125SOL    HW224946   6.349   6.304   3.548  0.1497 -1.0876 -0.8357
 8126SOL     OW24947   5.689   0.416   6.857  0.4146 -0.3595  0.1933
 8126SOL    HW124948   5.671   0.481   6.789  0.3777 -0.3546  0.2075
 8126SOL    HW224949   5.772   0.444   6.896  1.6990 -1.7156 -1.4446
 8127SOL     OW24950   6.860   0.047   0.894  0.4738 -0.4468  0.2166
 8127SOL    HW124951   6.908  -0.019   0.844  3.0388 -0.0670  1.9616
 8127SOL    HW224952   6.915   0.124   0.891 -0.1553  0.1370  2.0854
 8128SOL     OW24953   5.904   7.224   0.593 -0.4921  0.3002  0.3283
 8128SOL    HW124954   5.998   7.245   0.598 -0.7010  1.0676  1.3047
 8128SOL    HW224955   5.902   7.128   0.595  0.2730  0.2693  0.2572
 8129SOL     OW24956   4.618   6.373   2.878 -0.0569 -0.3082  0.6175
 8129SOL    HW124957   4.579   6.458   2.899 -0.2403  0.3941 -2.1689
 8129SOL    HW224958   4.700   6.395   2.834 -0.1607 -1.5806 -0.2489
 8130SOL     OW24959   2.167   5.361   5.838  0.0967  0.2808  0.5524
 8130SOL    HW124960   2.225   5.383   5.765  1.7393 -2.2322  0.9532
 8130SOL    HW224961   2.182   5.267   5.852 -0.8377  0.4854  3.5269
 8131SOL     OW24962   4.178   1.537   5.518  0.5218  0.3616  0.1306
 8131SOL    HW124963   4.232   1.613   5.539  0.1196  0.7630 -0.2703
 8131SOL    HW224964   4.115   1.569   5.453 -0.9808  0.2300  1.4530
 8132SOL     OW24965   2.559   3.972   5.196 -0.0100  0.9869 -0.7523
 8132SOL    HW124966   2.486   3.997   5.140 -1.6155 -1.6853 -0.0367
 8132SOL    HW224967   2.522   3.969   5.284  1.2805  0.7892 -0.1930
 8133SOL     OW24968   4.247   1.099   4.357 -0.4428 -0.3264  0.1024
 8133SOL    HW124969   4.203   1.184   4.356 -0.6291 -0.2394  3.4465
 8133SOL    HW224970   4.341   1.121   4.353 -0.4860  0.0858  1.0168
 8134SOL     OW24971   0.091   7.061   4.113 -0.0602  0.0660  0.1114
 8134SOL    HW124972   0.182   7.074   4.139  0.1716  0.0515 -0.6844
 8134SOL    HW224973   0.047   7.035   4.194  0.5192  0.6539  0.6211
 8135SOL     OW24974   2.158   0.554   2.248 -0.0120  0.1805 -0.0917
 8135SOL    HW124975   2.087   0.516   2.197 -2.3792  1.4027  2.0683
 8135SOL    HW224976   2.214   0.480   2.271 -0.3881 -0.7727 -2.0929
 8136SOL     OW24977   1.655   3.055   4.785  0.1780  0.2147  0.5762
 8136SOL    HW124978   1.727   3.012   4.738  0.6043  0.9877  0.5017
 8136SOL    HW224979   1.654   3.144   4.750  0.8228  0.9731  2.3447
 8137SOL     OW24980   4.201   0.731   6.134  0.0579  0.5361  0.1681
 8137SOL    HW124981   4.289   0.739   6.099 -0.7027  1.2265 -1.7013
 8137SOL    HW224982   4.157   0.812   6.108 -2.2712 -1.4009 -2.5085
 8138SOL     OW24983   3.294   6.548   3.484  0.0542 -0.5726  0.9678
 8138SOL    HW124984   3.203   6.522   3.490  0.3961 -1.6264  1.9006
 8138SOL    HW224985   3.291   6.642   3.466 -1.1970 -0.6766  0.5293
 8139SOL     OW24986   6.426   1.344   6.895 -0.0521 -0.4941 -0.2022
 8139SOL    HW124987   6.431   1.427   6.941 -1.7629 -0.1885 -0.5009
 8139SOL    HW224988   6.409   1.279   6.964 -0.7586 -0.2904 -0.1724
 8140SOL     OW24989   0.102   5.504   6.902 -0.0230  0.3971 -0.5695
 8140SOL    HW124990   0.046   5.575   6.871  0.6515  1.2267  0.0729
 8140SOL    HW224991   0.171   5.497   6.836 -0.0865  0.3462 -0.6300
 8141SOL     OW24992   6.738   1.887   6.524  0.5087  0.6011  0.2356
 8141SOL    HW124993   6.692   1.913   6.604 -0.0866  0.1632  0.0393
 8141SOL    HW224994   6.798   1.960   6.506 -1.3873  2.0541 -0.5016
 8142SOL     OW24995   6.368   5.610   2.170 -0.7566 -0.1812 -0.1158
 8142SOL    HW124996   6.303   5.600   2.240 -0.9810 -1.4763 -0.4919
 8142SOL    HW224997   6.345   5.543   2.106  0.5557 -0.2237 -0.5744
 8143SOL     OW24998   5.632   7.415   0.484  0.4564  0.4897  0.1008
 8143SOL    HW124999   5.682   7.480   0.533  0.5369  0.8764 -0.4854
 8143SOL    HW225000   5.568   7.466   0.434 -2.4256 -0.1217  2.8920
 8144SOL     OW25001   5.944   3.968   6.617 -0.8035  0.4804  0.4822
 8144SOL    HW125002   5.870   4.021   6.587 -0.9475  0.8967  1.5238
 8144SOL    HW225003   5.947   3.982   6.712 -0.4196 -0.8447  0.6927
 8145SOL     OW25004   6.847   7.186   2.592  0.1055 -0.0162 -0.6945
 8145SOL    HW125005   6.813   7.149   2.511  2.2579 -0.5880 -1.3919
 8145SOL    HW225006   6.787   7.154   2.660 -2.3656  1.3516 -2.1061
 8146SOL     OW25007   1.447   6.017   0.728 -0.0866 -0.3510  0.0613
 8146SOL    HW125008   1.521   5.991   0.783  0.9086 -0.5962 -1.3574
 8146SOL    HW225009   1.437   5.945   0.665 -1.2618 -0.1194 -0.0411
 8147SOL     OW25010   4.044   5.404   5.450 -0.5397 -0.8699 -0.2864
 8147SOL    HW125011   4.029   5.444   5.364 -0.5577 -1.6473 -0.6508
 8147SOL    HW225012   3.986   5.327   5.451  0.3291 -1.5335 -0.0478
 8148SOL     OW25013   5.070   7.178   6.263 -0.3394  0.0290  0.4163
 8148SOL    HW125014   5.055   7.098   6.213  2.3699 -1.7951  2.2587
 8148SOL    HW225015   4.986   7.199   6.302 -1.0104 -2.2011  0.2554
 8149SOL     OW25016   1.837   0.777   0.560  0.2158 -0.1729 -0.6824
 8149SOL    HW125017   1.762   0.819   0.518 -1.3014 -0.5922  1.4407
 8149SOL    HW225018   1.807   0.688   0.579  0.7111  0.0669  1.4432
 8150SOL     OW25019   7.396   5.229   1.784  0.1198  0.5301 -0.5442
 8150SOL    HW125020   7.465   5.286   1.818  0.6214  0.2082 -0.9914
 8150SOL    HW225021   7.332   5.223   1.855  0.8788  0.3043  0.1419
 8151SOL     OW25022   4.447   7.363   6.469  0.7636  0.5235  0.0762
 8151SOL    HW125023   4.527   7.407   6.440  1.9355  0.0674  2.4118
 8151SOL    HW225024   4.376   7.420   6.438  2.0991  2.4029  0.2892
 8152SOL     OW25025   6.134   6.244   5.710  0.3449  0.2430 -0.0327
 8152SOL    HW125026   6.161   6.157   5.682 -2.3398 -0.9758  0.8937
 8152SOL    HW225027   6.107   6.233   5.801 -2.1151  1.4974 -0.5271
 8153SOL     OW25028   5.894   6.902   1.621 -0.3090  0.7584 -0.2096
 8153SOL    HW125029   5.838   6.878   1.694 -1.3840  0.0212 -1.2393
 8153SOL    HW225030   5.840   6.960   1.567 -0.1307 -0.0108 -1.2467
 8154SOL     OW25031   4.046   6.263   6.849 -0.0831 -0.5052 -0.6078
 8154SOL    HW125032   4.104   6.255   6.924  1.4187 -0.0217 -1.6776
 8154SOL    HW225033   4.011   6.352   6.855  0.1890 -0.3985 -0.5738
 8155SOL     OW25034   2.125   2.496   1.861 -0.1588 -0.4698  0.5565
 8155SOL    HW125035   2.050   2.519   1.916 -0.2434  2.5572 -0.6159
 8155SOL    HW225036   2.202   2.513   1.916 -0.2779 -0.4496  0.7165
 8156SOL     OW25037   7.107   1.943   5.973 -0.1071 -0.2759 -0.0341
 8156SOL    HW125038   7.154   1.905   5.898 -1.5859 -0.2746 -0.9877
 8156SOL    HW225039   7.164   2.014   6.003  0.3832 -0.0841 -1.3332
 8157SOL     OW25040   7.296   6.684   4.100 -0.4238 -0.1857 -0.4567
 8157SOL    HW125041   7.268   6.763   4.054 -0.4250  0.8918  1.3002
 8157SOL    HW225042   7.388   6.700   4.121 -0.6263 -0.3007  0.5741
 8158SOL     OW25043   2.340   5.946   4.673  0.0928  0.3276  0.0409
 8158SOL    HW125044   2.341   5.868   4.728  0.9165  0.2252 -0.1009
 8158SOL    HW225045   2.376   6.015   4.730 -0.2912  0.5257  0.0483
 8159SOL     OW25046   4.359   6.155   0.774 -0.0094 -0.5289 -1.0174
 8159SOL    HW125047   4.316   6.141   0.858 -1.7157 -0.8794 -1.9007
 8159SOL    HW225048   4.373   6.250   0.770 -0.1546 -0.4814 -0.4468
 8160SOL     OW25049   2.815   6.994   1.481  0.5902  0.0568  0.6506
 8160SOL    HW125050   2.751   6.942   1.434 -0.6867  1.7273  0.4196
 8160SOL    HW225051   2.891   6.999   1.423 -0.7145  1.5455 -1.0085
 8161SOL     OW25052   6.628   6.257   6.641  0.4156 -0.1735  0.3858
 8161SOL    HW125053   6.692   6.249   6.571 -0.8912 -3.7339 -0.6618
 8161SOL    HW225054   6.572   6.330   6.614  0.6609 -0.6893 -1.7030
 8162SOL     OW25055   2.270   2.091   3.805  0.2792  0.3224 -0.3163
 8162SOL    HW125056   2.316   2.125   3.882  1.0411 -0.7140 -0.2937
 8162SOL    HW225057   2.196   2.041   3.841  0.6812 -0.2288 -0.2419
 8163SOL     OW25058   4.019   3.940   4.193 -0.5377  0.3607  0.0252
 8163SOL    HW125059   4.004   3.846   4.200  0.1428  0.3270  1.2101
 8163SOL    HW225060   3.974   3.965   4.113 -1.3799 -0.8451  0.0907
 8164SOL     OW25061   5.039   5.725   0.593 -0.3076 -0.2415 -0.0108
 8164SOL    HW125062   5.063   5.675   0.671 -0.2416  1.5996  1.2106
 8164SOL    HW225063   5.103   5.699   0.526  2.1610  0.9527  1.7157
 8165SOL     OW25064   2.041   0.486   4.662  0.6696  0.3526  0.2426
 8165SOL    HW125065   1.975   0.493   4.593 -0.3779 -1.4397  0.9975
 8165SOL    HW225066   2.079   0.399   4.651  2.2906  0.9967  0.4079
 8166SOL     OW25067   2.889   6.437   2.387  0.5329 -0.5969 -0.4203
 8166SOL    HW125068   2.836   6.366   2.423  0.3368 -1.1984 -1.8442
 8166SOL    HW225069   2.874   6.434   2.293  0.8769  1.0626 -0.5651
 8167SOL     OW25070   5.397   5.220   0.733  0.0114  0.1070 -0.2264
 8167SOL    HW125071   5.351   5.297   0.700  0.3254  0.4744  0.1856
 8167SOL    HW225072   5.339   5.185   0.801 -0.8059 -0.8558 -1.3651
 8168SOL     OW25073   7.403   1.799   3.890 -0.1316  0.1011  0.0727
 8168SOL    HW125074   7.324   1.848   3.913  0.1588  1.2436 -1.2341
 8168SOL    HW225075   7.468   1.867   3.869  1.3426 -0.7998  1.5023
 8169SOL     OW25076   3.120   2.640   2.688  0.0907 -0.4261 -0.6524
 8169SOL    HW125077   3.091   2.708   2.747 -1.2927 -1.1318 -0.4714
 8169SOL    HW225078   3.092   2.670   2.601 -2.1229 -1.4833 -0.3940
 8170SOL     OW25079   5.049   3.325   7.334 -0.3631  0.0898 -0.3288
 8170SOL    HW125080   5.105   3.378   7.391  0.4054 -0.8578 -0.1647
 8170SOL    HW225081   4.973   3.380   7.317 -1.0825  0.1069  2.3484
 8171SOL     OW25082   6.553   3.156   0.921 -0.0681 -0.2843  0.3910
 8171SOL    HW125083   6.536   3.159   0.827 -0.4866 -0.4952  0.4557
 8171SOL    HW225084   6.647   3.169   0.929 -0.1047  0.2593 -0.0221
 8172SOL     OW25085   4.066   3.313   0.860  0.1430 -0.1773 -0.4019
 8172SOL    HW125086   3.977   3.276   0.857  0.0577 -0.0253  0.0953
 8172SOL    HW225087   4.082   3.327   0.953  1.9039 -3.1795 -0.1390
 8173SOL     OW25088   3.890   6.988   5.160  0.0959  0.3468  0.5820
 8173SOL    HW125089   3.808   7.006   5.114 -1.1446  2.0054  3.1635
 8173SOL    HW225090   3.957   6.996   5.093 -1.8241 -1.4045 -1.7241
 8174SOL     OW25091   0.805   6.953   7.361  0.4952 -0.1421 -0.0433
 8174SOL    HW125092   0.788   6.985   7.450  2.6316  1.6809 -0.1947
 8174SOL    HW225093   0.728   6.901   7.339 -1.4959  1.8073  1.7721
 8175SOL     OW25094   4.279   1.700   1.427 -0.3438  0.0120 -0.2358
 8175SOL    HW125095   4.192   1.724   1.396 -0.3226  2.1088  1.1218
 8175SOL    HW225096   4.265   1.664   1.514  0.2085  1.5664  0.5287
 8176SOL     OW25097   6.760   3.341   5.360  0.6392 -0.0024  0.3073
 8176SOL    HW125098   6.701   3.415   5.371 -0.7437 -0.7309 -1.6139
 8176SOL    HW225099   6.836   3.377   5.314 -0.6160  0.0740 -1.8511
 8177SOL     OW25100   7.380   4.230   0.302  0.6109 -0.0850 -0.2100
 8177SOL    HW125101   7.329   4.190   0.373  0.0437  1.1818  0.1216
 8177SOL    HW225102   7.354   4.182   0.224 -0.6790  0.1777  0.0442
 8178SOL     OW25103   0.393   4.035   4.607 -0.1421 -0.0643  0.7559
 8178SOL    HW125104   0.347   4.114   4.635 -1.1417 -0.2356 -0.3121
 8178SOL    HW225105   0.452   4.014   4.680  0.1851  1.6836  1.0334
 8179SOL     OW25106   4.827   3.775   7.225  0.2955 -0.2309  0.4684
 8179SOL    HW125107   4.914   3.734   7.221  1.1046  1.2614  1.4818
 8179SOL    HW225108   4.767   3.703   7.240  1.5245 -1.1740  1.0411
 8180SOL     OW25109   5.055   3.077   4.686 -0.1549  0.6187  0.6559
 8180SOL    HW125110   5.018   3.165   4.676 -0.3385  0.4367 -0.2566
 8180SOL    HW225111   4.980   3.018   4.682  0.1681  0.2680 -0.9588
 8181SOL     OW25112   0.729   2.925   2.528  0.3781 -0.0239 -0.2004
 8181SOL    HW125113   0.743   2.958   2.617  0.5424 -0.8602  0.0904
 8181SOL    HW225114   0.636   2.937   2.512  0.1493 -0.8367  0.4867
 8182SOL     OW25115   0.313   2.548   1.515 -0.7699  0.1006  0.2855
 8182SOL    HW125116   0.392   2.596   1.539  0.1184 -1.2528  0.1808
 8182SOL    HW225117   0.330   2.458   1.542 -0.9529 -0.9074 -2.5610
 8183SOL     OW25118   4.475   0.318   0.910 -0.4269 -0.0656  0.2008
 8183SOL    HW125119   4.444   0.230   0.890 -0.4556  0.0459 -0.2446
 8183SOL    HW225120   4.395   0.370   0.922 -0.4733  0.4982 -2.1191
 8184SOL     OW25121   1.939   6.667   1.179 -0.0926 -0.1994 -0.1368
 8184SOL    HW125122   1.912   6.575   1.188  0.4684 -0.4871 -1.1177
 8184SOL    HW225123   2.035   6.663   1.176  0.0108  0.5859  1.2712
 8185SOL     OW25124   4.950   5.696   5.563  0.4604  0.3422 -0.3675
 8185SOL    HW125125   4.892   5.715   5.489 -1.5313 -0.7306  0.8375
 8185SOL    HW225126   4.957   5.601   5.565  0.0544  0.3309  1.1266
 8186SOL     OW25127   3.244   7.289   7.414 -0.5643 -0.9414  0.4107
 8186SOL    HW125128   3.191   7.366   7.434 -0.5238 -1.3094  2.0885
 8186SOL    HW225129   3.250   7.242   7.497  1.5775 -1.4292  0.0349
 8187SOL     OW25130   4.933   1.427   5.006  0.2996 -0.3782  0.0170
 8187SOL    HW125131   5.021   1.453   5.034  0.2472 -1.3225  1.1900
 8187SOL    HW225132   4.937   1.331   5.004 -0.5086 -0.4039 -0.5981
 8188SOL     OW25133   0.259   5.246   1.280 -0.3810  0.0588  0.1333
 8188SOL    HW125134   0.348   5.271   1.255 -0.6942  0.0096 -1.0942
 8188SOL    HW225135   0.213   5.233   1.197 -1.2477 -0.9710  0.7516
 8189SOL     OW25136   4.637   6.674   4.158  0.6096  0.4449 -0.4508
 8189SOL    HW125137   4.633   6.580   4.139  0.1319  0.5153 -0.7116
 8189SOL    HW225138   4.591   6.715   4.085  2.0165  0.9845 -1.0818
 8190SOL     OW25139   7.155   4.922   4.789  0.1700 -0.0180 -0.3431
 8190SOL    HW125140   7.241   4.892   4.817  1.1240  2.1522 -0.7257
 8190SOL    HW225141   7.116   4.960   4.868 -0.6885 -1.4113 -0.0536
 8191SOL     OW25142   4.502   4.333   0.036 -0.0414  0.0681  0.2730
 8191SOL    HW125143   4.433   4.267   0.046 -0.2812  0.2825  0.0554
 8191SOL    HW225144   4.458   4.416   0.055  0.2930  0.1507  0.6819
 8192SOL     OW25145   0.804   6.614   6.597 -0.1683  0.6433 -0.6056
 8192SOL    HW125146   0.724   6.662   6.575  0.9601  2.0455 -1.8201
 8192SOL    HW225147   0.814   6.550   6.526  0.7634  1.7416 -1.4919
 8193SOL     OW25148   5.932   0.669   5.200 -0.3721 -0.5180  0.7116
 8193SOL    HW125149   5.983   0.738   5.242 -0.2965  0.5911 -1.0884
 8193SOL    HW225150   5.993   0.596   5.190  0.2801  0.0598  0.3974
 8194SOL     OW25151   4.175   0.057   5.872  0.1194 -0.4701  0.4620
 8194SOL    HW125152   4.160   0.152   5.863 -0.1264 -0.4092  1.3954
 8194SOL    HW225153   4.258   0.042   5.828 -0.7391 -0.1381 -1.3428
 8195SOL     OW25154   3.237   1.990   2.744  0.3381 -0.6338  0.0519
 8195SOL    HW125155   3.231   1.895   2.730  0.1029 -0.7035  0.6085
 8195SOL    HW225156   3.307   2.018   2.685  1.2934 -1.3501  0.7919
 8196SOL     OW25157   3.591   4.881   5.105  0.6394  0.0347 -0.8738
 8196SOL    HW125158   3.592   4.905   5.198  1.8106  0.3953 -0.9591
 8196SOL    HW225159   3.527   4.939   5.066  0.5961  0.3210 -0.3901
 8197SOL     OW25160   4.253   4.430   1.904  0.0413  0.1104  0.8321
 8197SOL    HW125161   4.274   4.342   1.934 -0.0445 -0.3344 -0.3381
 8197SOL    HW225162   4.157   4.435   1.908 -0.1564 -0.7158 -1.2428
 8198SOL     OW25163   0.372   3.378   5.497 -0.0609  0.1660  0.8773
 8198SOL    HW125164   0.345   3.448   5.558 -0.4816  2.2718 -1.5718
 8198SOL    HW225165   0.290   3.335   5.474 -0.1544  0.5850  0.4108
 8199SOL     OW25166   3.150   3.811   3.928 -0.2056  0.2136  0.4916
 8199SOL    HW125167   3.150   3.754   3.851 -0.3300  1.2576 -0.3007
 8199SOL    HW225168   3.085   3.773   3.986 -1.5056  0.4701 -0.7488
 8200SOL     OW25169   1.849   4.959   4.480  0.7089 -0.4773 -0.1215
 8200SOL    HW125170   1.864   4.872   4.444  0.6422 -0.6911  0.3664
 8200SOL    HW225171   1.913   5.014   4.435 -0.7205 -0.3157 -2.1209
 8201SOL     OW25172   4.753   3.958   2.071  0.0135  0.3933  0.1484
 8201SOL    HW125173   4.742   3.951   1.976 -0.3287  0.9252  0.1460
 8201SOL    HW225174   4.696   4.031   2.097  1.3593  1.3434  0.5328
 8202SOL     OW25175   3.352   0.540   6.945  0.6898  0.0242 -0.5861
 8202SOL    HW125176   3.276   0.593   6.968  0.5182  0.2798 -1.6855
 8202SOL    HW225177   3.383   0.505   7.028  0.1629  0.9837  0.0304
 8203SOL     OW25178   4.218   2.700   6.086 -0.2430 -0.2687 -0.1560
 8203SOL    HW125179   4.214   2.786   6.126 -0.4273  0.0010 -0.7413
 8203SOL    HW225180   4.288   2.654   6.132  0.0095  0.2730 -0.0010
 8204SOL     OW25181   4.017   6.019   7.368 -0.6015  0.5647  0.4939
 8204SOL    HW125182   3.959   6.039   7.442  0.2166  1.3455  0.9308
 8204SOL    HW225183   4.100   5.995   7.408 -0.3223  0.4167 -0.1608
 8205SOL     OW25184   3.509   5.740   1.622  0.2324  0.6501 -0.6906
 8205SOL    HW125185   3.574   5.775   1.561  1.4572 -0.3901 -0.0323
 8205SOL    HW225186   3.558   5.723   1.703 -0.1650 -2.7686 -1.0053
 8206SOL     OW25187   5.366   5.147   7.371 -0.1876  0.0107 -0.6210
 8206SOL    HW125188   5.275   5.170   7.393 -0.1906 -1.1043  0.6752
 8206SOL    HW225189   5.388   5.076   7.431  1.3693 -0.1257 -1.3017
 8207SOL     OW25190   2.907   0.963   0.130  0.2313 -0.4159 -0.1951
 8207SOL    HW125191   2.885   0.870   0.123  0.8222 -0.6043  0.3341
 8207SOL    HW225192   2.952   0.984   0.048  0.3144 -0.6596 -0.2103
 8208SOL     OW25193   1.949   3.673   5.195  0.1489 -0.5325  0.2990
 8208SOL    HW125194   1.914   3.725   5.267 -3.1562 -3.8053  1.3888
 8208SOL    HW225195   2.033   3.640   5.227 -0.4660 -0.5345  1.9660
 8209SOL     OW25196   0.001   2.962   6.105 -0.0717 -0.1353  0.4668
 8209SOL    HW125197   0.032   3.020   6.174 -0.9172  0.4794  0.3363
 8209SOL    HW225198  -0.094   2.961   6.114 -0.1302 -0.7715 -0.1108
 8210SOL     OW25199   2.941   4.630   4.647  0.0338  0.1776  0.3440
 8210SOL    HW125200   2.903   4.681   4.718  0.9764  0.1023  0.9063
 8210SOL    HW225201   2.875   4.563   4.629 -0.0806  0.0118  1.3374
 8211SOL     OW25202   6.494   6.614   5.338 -0.2397  0.6136 -0.2615
 8211SOL    HW125203   6.444   6.559   5.398  0.1255  0.5152 -0.0490
 8211SOL    HW225204   6.429   6.643   5.273 -0.3425 -0.4151 -0.6380
 8212SOL     OW25205   3.604   0.675   7.351  0.0636 -0.2523 -0.2010
 8212SOL    HW125206   3.585   0.754   7.300 -0.5459 -0.1176  0.2112
 8212SOL    HW225207   3.528   0.619   7.337  0.2390 -0.5313 -0.0454
 8213SOL     OW25208   1.599   2.544   3.041 -0.4543 -0.0903  0.4241
 8213SOL    HW125209   1.630   2.460   3.007 -3.1081 -0.4767 -1.4080
 8213SOL    HW225210   1.549   2.521   3.120  1.8606  0.2794  2.0862
 8214SOL     OW25211   1.731   2.684   7.428 -0.3832 -0.2000 -0.5100
 8214SOL    HW125212   1.710   2.591   7.436 -0.3983 -0.2495 -1.0752
 8214SOL    HW225213   1.789   2.690   7.353  1.0918  0.0357  0.5931
 8215SOL     OW25214   4.940   6.376   0.172 -0.0164 -0.4787 -0.7232
 8215SOL    HW125215   4.990   6.457   0.158  0.8444 -0.9066 -0.2499
 8215SOL    HW225216   4.993   6.326   0.234 -1.8743 -0.2351  1.1755
 8216SOL     OW25217   5.074   2.616   2.438 -0.2840 -0.4357 -0.6080
 8216SOL    HW125218   5.144   2.619   2.373 -1.0436  1.0930 -1.3990
 8216SOL    HW225219   5.098   2.542   2.495  1.8016 -0.1375 -1.0107
 8217SOL     OW25220   0.087   4.417   4.855 -0.0087 -0.1890  0.4286
 8217SOL    HW125221   0.075   4.400   4.948  0.6797 -3.5933  0.0279
 8217SOL    HW225222   0.004   4.453   4.825 -1.3959 -2.0471  1.8270
 8218SOL     OW25223   3.876   0.104   6.041  0.3290 -0.1571  0.2321
 8218SOL    HW125224   3.871   0.199   6.045  0.9333 -0.1349  0.5602
 8218SOL    HW225225   3.825   0.080   5.963 -1.0843  0.3216  0.9829
 8219SOL     OW25226   7.148   7.290   3.729  0.5539 -0.1007 -0.6402
 8219SOL    HW125227   7.227   7.314   3.681  0.8294  1.7602  0.6669
 8219SOL    HW225228   7.173   7.210   3.777  2.0852  1.1004  0.6899
 8220SOL     OW25229   0.567   2.644   4.060 -0.1749  0.2930 -0.4538
 8220SOL    HW125230   0.506   2.651   3.986 -0.3679 -0.6723 -0.4083
 8220SOL    HW225231   0.534   2.570   4.111 -0.4739  1.3951  1.0254
 8221SOL     OW25232   1.465   1.871   6.997  0.2343 -0.4057 -0.5715
 8221SOL    HW125233   1.373   1.857   7.019  0.2146  0.6275  0.0802
 8221SOL    HW225234   1.484   1.806   6.929 -0.4088 -1.9948  0.6930
 8222SOL     OW25235   4.223   4.163   6.925  0.2301 -0.6348 -0.7984
 8222SOL    HW125236   4.210   4.095   6.859 -0.4605 -0.8694 -0.4302
 8222SOL    HW225237   4.281   4.125   6.990  0.2901 -0.6728 -0.8744
 8223SOL     OW25238   5.807   1.559   4.612 -0.3912 -0.1939 -0.7509
 8223SOL    HW125239   5.878   1.500   4.587 -1.3191 -1.1968 -1.0567
 8223SOL    HW225240   5.806   1.626   4.543 -1.2428 -1.4832 -2.0306
 8224SOL     OW25241   0.046   4.898   2.613 -0.0931 -0.8637 -0.1408
 8224SOL    HW125242   0.080   4.957   2.681 -0.1453 -1.4177  0.3762
 8224SOL    HW225243   0.023   4.956   2.540 -1.6842 -0.0535  0.9553
 8225SOL     OW25244   2.183   2.370   1.358 -0.2445  0.2417  0.6501
 8225SOL    HW125245   2.157   2.461   1.343  0.3800  1.0700  3.8406
 8225SOL    HW225246   2.101   2.324   1.374 -0.5631  0.1862 -0.9574
 8226SOL     OW25247   4.849   6.453   2.157 -0.7753 -0.0691  0.0455
 8226SOL    HW125248   4.887   6.541   2.162  0.6878 -0.7368  1.9361
 8226SOL    HW225249   4.758   6.464   2.184 -0.9658  1.0293 -0.9786
 8227SOL     OW25250   0.573   0.046   3.946 -0.2412  0.1801 -0.3305
 8227SOL    HW125251   0.549   0.129   3.988 -1.9876 -0.5750  0.2481
 8227SOL    HW225252   0.640   0.009   4.003  0.9417  1.3978 -0.8724
 8228SOL     OW25253   4.641   0.043   3.121 -0.4054 -0.2440 -0.1972
 8228SOL    HW125254   4.676  -0.046   3.123  0.5745  0.1311  1.7179
 8228SOL    HW225255   4.640   0.071   3.213 -0.6301  1.7484 -0.7470
 8229SOL     OW25256   4.073   0.904   3.705 -0.0223 -0.1224  0.3545
 8229SOL    HW125257   3.978   0.905   3.691  0.0291 -0.6773 -0.0576
 8229SOL    HW225258   4.110   0.916   3.617  0.2942  0.9576  0.6157
 8230SOL     OW25259   1.792   1.826   1.244 -0.2620 -0.1283  0.6757
 8230SOL    HW125260   1.751   1.910   1.226 -2.0067 -0.7117  1.7224
 8230SOL    HW225261   1.767   1.771   1.170 -1.5003 -0.5031  1.3449
 8231SOL     OW25262   0.726   0.490   5.497 -0.0505 -0.3293 -0.0842
 8231SOL    HW125263   0.739   0.398   5.475 -1.2169 -0.1545 -1.7689
 8231SOL    HW225264   0.632   0.504   5.483  0.4969  1.6860 -2.5455
 8232SOL     OW25265   1.628   2.354   2.560 -0.2054  0.5041 -0.2271
 8232SOL    HW125266   1.575   2.302   2.499 -0.6756  1.4319 -0.6303
 8232SOL    HW225267   1.609   2.317   2.646  0.0202 -0.4482 -0.5783
 8233SOL     OW25268   1.989   2.777   0.907  0.2118 -0.4418 -0.5494
 8233SOL    HW125269   2.026   2.734   0.830  0.1915 -0.5769 -0.4832
 8233SOL    HW225270   1.956   2.861   0.874  1.9063  0.3501 -0.3457
 8234SOL     OW25271   4.423   6.451   6.966  0.5835  0.1142 -0.8480
 8234SOL    HW125272   4.366   6.442   6.890  0.3334  0.5903 -0.7222
 8234SOL    HW225273   4.454   6.362   6.984 -3.1267 -0.9383  1.4370
 8235SOL     OW25274   2.267   4.177   7.411  0.2634 -0.8252 -0.3585
 8235SOL    HW125275   2.203   4.159   7.480 -0.2558 -1.5494 -1.0232
 8235SOL    HW225276   2.215   4.187   7.332  0.9321 -0.9076 -0.8150
 8236SOL     OW25277   0.165   0.717   3.875  0.5408  0.5921 -1.0570
 8236SOL    HW125278   0.140   0.807   3.895  1.7065  0.5536  0.8609
 8236SOL    HW225279   0.110   0.664   3.932  1.2879  0.2470 -0.6287
 8237SOL     OW25280   2.212   2.476   3.399  0.1396 -0.3181 -0.1864
 8237SOL    HW125281   2.127   2.473   3.355  0.7938 -2.4565 -1.4691
 8237SOL    HW225282   2.195   2.517   3.483 -2.6308 -2.5629  0.4877
 8238SOL     OW25283   1.732   5.798   5.582 -0.3181  0.6328  0.0062
 8238SOL    HW125284   1.714   5.707   5.556 -2.1593  0.8703  0.3398
 8238SOL    HW225285   1.740   5.795   5.677  0.1858  0.7460 -0.0286
 8239SOL     OW25286   3.682   4.187   1.500 -0.3562 -0.1256  0.4542
 8239SOL    HW125287   3.755   4.126   1.505 -0.8170 -1.1865 -3.2000
 8239SOL    HW225288   3.723   4.274   1.497  0.5589 -0.5192  1.1912
 8240SOL     OW25289   4.575   4.447   0.911  0.7023  0.7446 -0.3328
 8240SOL    HW125290   4.501   4.480   0.962  0.7704  0.2831  0.0737
 8240SOL    HW225291   4.649   4.454   0.971  0.6863 -0.3006 -0.1740
 8241SOL     OW25292   3.171   0.651   4.515 -0.4156 -0.2802  0.9997
 8241SOL    HW125293   3.195   0.715   4.582 -0.8227  0.8889  0.0799
 8241SOL    HW225294   3.185   0.698   4.432 -0.6044 -1.4403  0.2918
 8242SOL     OW25295   2.079   3.710   2.039 -0.4656 -0.0730  0.6047
 8242SOL    HW125296   2.080   3.624   2.080 -1.0700 -0.0129  0.7542
 8242SOL    HW225297   2.170   3.724   2.011  0.3516  0.4744  3.1665
 8243SOL     OW25298   0.748   7.253   6.220  0.3865 -0.2419 -0.1293
 8243SOL    HW125299   0.733   7.311   6.295 -0.4760 -1.0581  0.3449
 8243SOL    HW225300   0.844   7.247   6.214  0.5350  1.6642 -0.5531
 8244SOL     OW25301   1.330   1.891   0.466  0.2618 -0.5683 -0.1409
 8244SOL    HW125302   1.367   1.955   0.406 -1.5584  0.7422  0.0358
 8244SOL    HW225303   1.245   1.868   0.426 -0.2152 -0.9617  1.0684
 8245SOL     OW25304   0.928   6.825   4.758  0.3008  0.0317  0.5366
 8245SOL    HW125305   0.995   6.756   4.754 -0.7780 -1.2786  2.8732
 8245SOL    HW225306   0.857   6.793   4.703  0.8367  0.6009 -0.5294
 8246SOL     OW25307   2.972   6.362   3.877 -0.4711  0.3989 -0.1044
 8246SOL    HW125308   2.990   6.342   3.969 -0.5160 -0.0148 -0.1852
 8246SOL    HW225309   3.056   6.394   3.843 -0.3842  0.2897  0.0072
 8247SOL     OW25310   3.493   4.652   4.823 -0.2509 -0.0594 -0.1201
 8247SOL    HW125311   3.437   4.608   4.759 -1.1978  1.3527 -0.3107
 8247SOL    HW225312   3.564   4.689   4.771 -2.0359  2.7768 -0.7845
 8248SOL     OW25313   3.617   0.202   3.225  0.1883 -0.2012 -0.5816
 8248SOL    HW125314   3.642   0.287   3.188  0.8582 -0.2590 -0.2794
 8248SOL    HW225315   3.628   0.213   3.319 -2.5411  0.2997 -0.2147
 8249SOL     OW25316   5.418   2.314   1.900  0.2043 -0.9693 -0.3712
 8249SOL    HW125317   5.467   2.270   1.830 -1.1311 -1.0323 -1.3096
 8249SOL    HW225318   5.416   2.251   1.971 -0.9328 -2.1346 -1.3814
 8250SOL     OW25319   4.984   2.408   0.048  0.4839  0.5654 -0.2628
 8250SOL    HW125320   5.060   2.437  -0.002 -0.9933  2.1770 -1.6904
 8250SOL    HW225321   5.003   2.316   0.068  1.8734  0.3218 -2.3670
 8251SOL     OW25322   2.849   0.704   5.132 -0.2397  0.6468 -0.0156
 8251SOL    HW125323   2.780   0.753   5.177 -1.1776 -2.8300  2.8345
 8251SOL    HW225324   2.905   0.671   5.202  2.0449  0.0698 -1.9842
 8252SOL     OW25325   5.908   2.678   1.040  0.0036 -0.1088  0.1512
 8252SOL    HW125326   5.893   2.619   1.115  0.2637 -1.4534 -0.8085
 8252SOL    HW225327   5.883   2.626   0.964 -2.2504  1.9364 -0.6030
 8253SOL     OW25328   4.407   5.864   3.954 -0.3663  0.1663 -0.9018
 8253SOL    HW125329   4.468   5.803   3.995  0.2368  1.7976  0.7903
 8253SOL    HW225330   4.324   5.817   3.950  0.3868 -1.2073 -0.8848
 8254SOL     OW25331   6.207   1.182   4.375  0.9575  0.3105  0.3364
 8254SOL    HW125332   6.201   1.257   4.316  1.3114  0.3273  0.3209
 8254SOL    HW225333   6.300   1.162   4.380  0.9527  0.4087  1.0113
 8255SOL     OW25334   1.095   2.979   5.065  0.0171 -0.5371 -0.3799
 8255SOL    HW125335   1.145   2.902   5.037  0.3244 -1.9457  3.5140
 8255SOL    HW225336   1.019   2.981   5.006  0.9797 -2.6122 -1.8226
 8256SOL     OW25337   1.572   5.790   0.303  0.5655  0.2956  0.1688
 8256SOL    HW125338   1.490   5.816   0.261  1.7151  0.7958 -1.8802
 8256SOL    HW225339   1.556   5.803   0.396 -1.4538  1.0100 -0.2253
 8257SOL     OW25340   3.102   6.717   5.010  0.0755 -0.2595 -0.0550
 8257SOL    HW125341   3.149   6.641   5.046  0.1383 -0.1437  0.1088
 8257SOL    HW225342   3.126   6.717   4.917  1.0965  0.3045  0.1936
 8258SOL     OW25343   0.463   2.948   0.471 -0.4711  0.5676  0.1129
 8258SOL    HW125344   0.475   2.900   0.389  0.5322  3.2725 -1.4364
 8258SOL    HW225345   0.370   2.940   0.491 -0.5084 -1.1529 -0.5972
 8259SOL     OW25346   3.927   3.707   3.713  0.1646  0.0546 -0.3142
 8259SOL    HW125347   3.911   3.620   3.678  0.3826 -0.0799 -0.0835
 8259SOL    HW225348   3.966   3.692   3.799 -1.3148  0.3747  0.4528
 8260SOL     OW25349   0.228   5.932   6.818  0.6462  0.9640  0.2189
 8260SOL    HW125350   0.278   5.997   6.768  1.1158 -0.3018 -0.9978
 8260SOL    HW225351   0.275   5.850   6.805  0.3379  0.4359  2.1384
 8261SOL     OW25352   2.510   5.480   0.222  0.1100  0.1044 -0.1234
 8261SOL    HW125353   2.521   5.561   0.271  1.3216  0.5549 -1.0872
 8261SOL    HW225354   2.593   5.434   0.232 -0.2858 -0.6520 -0.2314
 8262SOL     OW25355   4.513   6.503   5.986  0.3023 -0.1164 -0.5241
 8262SOL    HW125356   4.473   6.442   6.047 -0.1477  0.1425 -0.5520
 8262SOL    HW225357   4.445   6.518   5.920  0.3460  0.5413 -0.4241
 8263SOL     OW25358   2.235   5.200   3.226 -0.0082  0.3427  0.4590
 8263SOL    HW125359   2.150   5.208   3.181 -0.4355  0.5777  1.2877
 8263SOL    HW225360   2.296   5.176   3.157 -0.2563  2.5918 -0.6238
 8264SOL     OW25361   1.874   7.045   4.027 -0.4535  0.5900  0.0743
 8264SOL    HW125362   1.923   6.991   4.089  0.9712  2.0957  0.3372
 8264SOL    HW225363   1.786   7.007   4.025  0.6766 -2.2106 -0.3976
 8265SOL     OW25364   3.627   1.942   1.661 -0.3426 -0.4279 -0.3409
 8265SOL    HW125365   3.553   1.940   1.600 -0.5706 -0.0514 -0.0872
 8265SOL    HW225366   3.618   1.862   1.713 -1.7918  0.6012  1.0827
 8266SOL     OW25367   1.211   4.833   1.919 -0.2413 -0.0154 -0.0529
 8266SOL    HW125368   1.252   4.770   1.979 -1.9443 -0.7601  0.3964
 8266SOL    HW225369   1.284   4.871   1.870  0.8796 -2.1339 -0.1364
 8267SOL     OW25370   2.732   2.344   6.369  0.0558  0.7440 -0.3960
 8267SOL    HW125371   2.684   2.340   6.452  0.1825  1.1287 -0.3020
 8267SOL    HW225372   2.755   2.253   6.351  0.1633  0.6749  0.0732
 8268SOL     OW25373   6.831   2.370   3.590  0.3131 -0.2092  0.0828
 8268SOL    HW125374   6.805   2.391   3.500 -1.6637 -0.4063  0.5608
 8268SOL    HW225375   6.898   2.303   3.581  0.5359  0.1681 -1.2614
 8269SOL     OW25376   5.990   2.103   0.142  0.3466 -0.9441  0.1746
 8269SOL    HW125377   5.976   2.164   0.069 -2.2931  0.4847  1.7013
 8269SOL    HW225378   6.046   2.150   0.202  1.1982 -1.4755 -0.1912
 8270SOL     OW25379   4.396   5.145   3.484  0.2776  0.5668 -0.0502
 8270SOL    HW125380   4.341   5.070   3.504  0.2897  0.5166 -0.2028
 8270SOL    HW225381   4.430   5.173   3.569 -0.5317  1.0286  0.1272
 8271SOL     OW25382   5.475   6.828   3.427  0.1201 -0.3942  0.1146
 8271SOL    HW125383   5.490   6.922   3.415 -0.8189 -0.4383 -1.7473
 8271SOL    HW225384   5.551   6.798   3.477  1.2547  1.0703 -0.6515
 8272SOL     OW25385   1.879   0.417   2.388  0.0078 -0.0379  0.4743
 8272SOL    HW125386   1.904   0.505   2.417  1.8810 -0.9909  1.9629
 8272SOL    HW225387   1.794   0.401   2.428  0.1437  0.6932  1.0631
 8273SOL     OW25388   5.510   6.813   0.081  0.2461 -0.0490 -0.2641
 8273SOL    HW125389   5.567   6.807   0.005 -0.1100  1.0759 -0.6387
 8273SOL    HW225390   5.461   6.894   0.068 -1.3460 -0.9008  0.1026
 8274SOL     OW25391   0.542   2.251   5.789 -0.3400  0.1677 -0.4828
 8274SOL    HW125392   0.486   2.175   5.776  0.2874 -0.3812 -0.0705
 8274SOL    HW225393   0.494   2.324   5.749 -0.5101 -0.6162 -1.7785
 8275SOL     OW25394   0.508   6.970   4.869  0.4019  0.6522 -0.1899
 8275SOL    HW125395   0.527   7.025   4.946 -0.1948 -0.9882  1.1781
 8275SOL    HW225396   0.573   6.900   4.873 -0.4151 -0.1413 -0.4637
 8276SOL     OW25397   2.753   1.526   0.436  0.5444  0.5625  0.2169
 8276SOL    HW125398   2.798   1.475   0.503  0.1801 -0.9185 -0.6232
 8276SOL    HW225399   2.749   1.468   0.360 -1.5573  1.1482 -0.1816
 8277SOL     OW25400   3.236   2.565   5.428 -0.3822 -0.2460  0.5633
 8277SOL    HW125401   3.287   2.511   5.488 -0.6654  0.9105  1.8842
 8277SOL    HW225402   3.211   2.505   5.358  1.9744 -1.0598  0.3329
 8278SOL     OW25403   6.243   2.383   3.143 -0.6642 -0.0180  0.0157
 8278SOL    HW125404   6.203   2.467   3.119 -0.0005  0.9537  2.0646
 8278SOL    HW225405   6.170   2.322   3.147 -1.2016  0.4999 -1.2553
 8279SOL     OW25406   4.836   1.576   4.793  0.0810  0.1368 -0.3059
 8279SOL    HW125407   4.834   1.494   4.842  0.3532  0.5798  0.4522
 8279SOL    HW225408   4.868   1.551   4.706  0.4910 -0.5048  0.0199
 8280SOL     OW25409   5.887   5.459   4.612 -0.1823  0.2107 -0.0754
 8280SOL    HW125410   5.839   5.491   4.536 -0.9472  1.4262  0.8912
 8280SOL    HW225411   5.975   5.493   4.600 -0.0838 -0.2607 -0.7951
 8281SOL     OW25412   0.616   1.712   0.403  0.0316  0.3741  0.4483
 8281SOL    HW125413   0.627   1.733   0.310 -1.7033 -1.6803 -0.3150
 8281SOL    HW225414   0.702   1.682   0.431  0.3857  0.2104 -0.7544
 8282SOL     OW25415   3.953   2.662   4.778 -0.0084  0.0199  0.4204
 8282SOL    HW125416   4.019   2.720   4.739 -0.4054  0.6397  0.6572
 8282SOL    HW225417   3.949   2.587   4.719 -0.2314  0.7117 -0.4528
 8283SOL     OW25418   3.121   5.201   6.561  0.2522 -0.1802  0.4688
 8283SOL    HW125419   3.026   5.202   6.572  0.3116 -2.0856  1.5990
 8283SOL    HW225420   3.153   5.273   6.614 -0.6238  1.7978 -1.5044
 8284SOL     OW25421   5.177   6.582   3.144 -0.1008  0.3706  0.0617
 8284SOL    HW125422   5.178   6.488   3.164  2.6190 -0.3260 -2.6198
 8284SOL    HW225423   5.259   6.615   3.181 -0.3684  1.4031 -0.2305
 8285SOL     OW25424   5.469   0.312   2.769  0.2784 -0.1883 -0.0164
 8285SOL    HW125425   5.513   0.356   2.697  0.9071 -0.7544  0.0107
 8285SOL    HW225426   5.537   0.302   2.836  1.1131 -3.9361 -1.1839
 8286SOL     OW25427   4.244   2.972   6.183 -0.0570 -0.2213  0.0511
 8286SOL    HW125428   4.329   3.002   6.151 -0.1708 -1.8345 -1.9793
 8286SOL    HW225429   4.187   3.049   6.173  0.5444  0.0925 -1.2520
 8287SOL     OW25430   2.310   1.742   2.458 -0.7748  0.0592  0.2939
 8287SOL    HW125431   2.310   1.648   2.440  0.6110  0.2530 -0.9662
 8287SOL    HW225432   2.345   1.749   2.547  0.9963 -0.5662 -0.2984
 8288SOL     OW25433   0.346   2.508   1.241  0.0561 -0.1234 -0.0517
 8288SOL    HW125434   0.342   2.576   1.308 -0.7015 -1.5468  1.3983
 8288SOL    HW225435   0.263   2.516   1.194  0.9154  1.4091 -1.4663
 8289SOL     OW25436   6.313   3.336   4.509 -0.2570  0.2411 -0.5996
 8289SOL    HW125437   6.356   3.316   4.592  0.8509 -0.3180 -1.2917
 8289SOL    HW225438   6.285   3.427   4.518 -0.3115  0.1308  0.4503
 8290SOL     OW25439   6.444   1.697   5.366 -0.7055 -0.0335  0.3066
 8290SOL    HW125440   6.396   1.731   5.291 -0.2688  0.4855  0.2502
 8290SOL    HW225441   6.392   1.723   5.442 -1.4733 -1.1027  0.1677
 8291SOL     OW25442   7.004   0.563   6.930 -0.4245  0.2339  0.4581
 8291SOL    HW125443   7.021   0.482   6.980 -0.0499 -0.8087 -1.2734
 8291SOL    HW225444   6.913   0.583   6.948 -0.7642 -1.0551  0.2924
 8292SOL     OW25445   1.642   0.523   3.026  0.7007  0.9006 -1.0274
 8292SOL    HW125446   1.666   0.526   3.119 -0.0570 -0.1705 -0.7825
 8292SOL    HW225447   1.655   0.612   2.996  0.1535  1.4714  0.3226
 8293SOL     OW25448   4.855   5.454   4.166 -0.3817  0.5361  0.3150
 8293SOL    HW125449   4.797   5.406   4.225 -1.5985  2.7537  1.0873
 8293SOL    HW225450   4.858   5.402   4.087  0.9123 -2.3263  2.0905
 8294SOL     OW25451   7.305   5.262   2.669 -0.4074 -0.2248  0.3586
 8294SOL    HW125452   7.359   5.288   2.594  0.7183 -0.9374  0.8944
 8294SOL    HW225453   7.361   5.277   2.745 -1.1451 -0.5428  0.9794
 8295SOL     OW25454   5.017   5.511   3.407  0.0398  0.3639 -0.0548
 8295SOL    HW125455   4.964   5.450   3.357  0.4152 -0.1107  0.1133
 8295SOL    HW225456   5.089   5.534   3.349  1.0743 -1.0276  0.6084
 8296SOL     OW25457   5.028   2.220   7.099 -0.8081 -0.3237 -0.7450
 8296SOL    HW125458   5.117   2.255   7.108 -1.0426  0.5786 -1.7183
 8296SOL    HW225459   4.987   2.235   7.184  0.0001 -0.8674 -0.2477
 8297SOL     OW25460   1.762   0.741   4.628 -0.1286 -0.0324 -0.4932
 8297SOL    HW125461   1.703   0.666   4.622 -0.2602 -0.0253  0.5065
 8297SOL    HW225462   1.849   0.702   4.637 -0.2653 -0.0895  0.7070
 8298SOL     OW25463   3.058   0.512   4.152 -0.1954 -0.9019 -0.2021
 8298SOL    HW125464   2.971   0.520   4.191 -1.4514  2.2638 -3.1106
 8298SOL    HW225465   3.106   0.588   4.186  0.2893 -0.8096 -1.0699
 8299SOL     OW25466   3.470   6.733   7.079  0.2159 -0.2875  0.5249
 8299SOL    HW125467   3.533   6.738   7.151 -1.2480  4.6582  1.8482
 8299SOL    HW225468   3.522   6.751   7.001  1.0315 -0.3925  1.0273
 8300SOL     OW25469   6.493   2.776   6.145 -0.5082  0.8318 -0.2310
 8300SOL    HW125470   6.539   2.740   6.070  0.0830  1.2083 -0.0639
 8300SOL    HW225471   6.514   2.870   6.144  0.4821  0.6595  1.0517
 8301SOL     OW25472   4.942   4.491   6.304 -0.1768 -0.6808  0.4603
 8301SOL    HW125473   4.861   4.488   6.354  0.4705 -1.5682  1.5326
 8301SOL    HW225474   4.999   4.549   6.354  0.0765 -0.6233  0.1063
 8302SOL     OW25475   3.888   2.181   4.946 -0.0624 -0.2049 -0.9053
 8302SOL    HW125476   3.925   2.142   4.867 -1.3578  0.2621 -1.7768
 8302SOL    HW225477   3.951   2.160   5.015  1.7074  0.3731 -2.2630
 8303SOL     OW25478   5.004   5.189   2.602 -0.3698  0.2479  0.7658
 8303SOL    HW125479   4.957   5.268   2.628  1.4612  1.4973  0.4650
 8303SOL    HW225480   4.985   5.125   2.672 -2.2531  0.7510  0.7705
 8304SOL     OW25481   5.516   0.184   2.145  0.1733  0.0670  0.2293
 8304SOL    HW125482   5.530   0.174   2.239 -1.3302 -0.9653  0.3697
 8304SOL    HW225483   5.528   0.096   2.109 -2.4721 -0.2668 -0.0496
 8305SOL     OW25484   5.469   7.235   0.236 -0.4057  0.4031  0.4295
 8305SOL    HW125485   5.552   7.229   0.189  0.3350  0.0412  1.7468
 8305SOL    HW225486   5.433   7.319   0.209  0.6001  0.7717  0.1754
 8306SOL     OW25487   5.188   6.694   1.317 -0.1991 -0.0180 -0.1925
 8306SOL    HW125488   5.255   6.660   1.376  0.4758  0.3176 -0.7469
 8306SOL    HW225489   5.238   6.738   1.247 -1.0187  2.4373  0.6813
 8307SOL     OW25490   1.896   2.462   3.546  0.4754  0.1559 -0.2522
 8307SOL    HW125491   1.807   2.486   3.523  0.3777  1.7335  1.4605
 8307SOL    HW225492   1.933   2.424   3.467 -0.9734  1.6618 -1.7125
 8308SOL     OW25493   6.988   1.673   0.903 -0.7079 -0.1190 -0.2373
 8308SOL    HW125494   7.030   1.593   0.872  2.0047  1.1044  0.0173
 8308SOL    HW225495   6.914   1.642   0.956  0.4326 -2.4701  0.1157
 8309SOL     OW25496   6.915   3.731   7.414  0.4853  0.1171  0.0930
 8309SOL    HW125497   7.008   3.751   7.417  0.1470  1.7168  0.5526
 8309SOL    HW225498   6.873   3.801   7.463 -1.0981  0.3569 -1.4922
 8310SOL     OW25499   4.666   5.673   7.157 -0.2833  0.5097 -0.0879
 8310SOL    HW125500   4.751   5.630   7.166  0.4134  1.6116 -1.1723
 8310SOL    HW225501   4.606   5.617   7.206  1.0564 -0.2941  0.6980
 8311SOL     OW25502   4.259   3.703   0.527  0.3013 -0.3196 -0.6674
 8311SOL    HW125503   4.264   3.773   0.592 -0.5416 -0.6233 -0.2659
 8311SOL    HW225504   4.351   3.680   0.511  0.5197 -0.7136  0.9496
 8312SOL     OW25505   3.922   6.516   5.804 -0.0737 -0.1746  0.2812
 8312SOL    HW125506   3.898   6.471   5.723  0.7982  0.5900 -0.4191
 8312SOL    HW225507   3.978   6.454   5.851  1.1050  0.1524 -0.6661
 8313SOL     OW25508   1.918   4.457   6.557 -0.1184 -0.5369  0.0439
 8313SOL    HW125509   1.896   4.543   6.593  1.8479  0.1037 -0.1925
 8313SOL    HW225510   2.013   4.459   6.546 -0.3142 -1.7360 -2.4966
 8314SOL     OW25511   5.212   0.652   7.078 -0.7942  0.3711 -0.2641
 8314SOL    HW125512   5.121   0.625   7.068 -1.5047  2.8926 -1.6397
 8314SOL    HW225513   5.206   0.742   7.110  1.0647  1.6285 -3.0911
 8315SOL     OW25514   7.262   2.636   0.566 -0.1741 -0.2718  0.0714
 8315SOL    HW125515   7.172   2.605   0.557  0.4370 -2.1210  0.0805
 8315SOL    HW225516   7.305   2.608   0.485  0.3695  0.7879 -0.0261
 8316SOL     OW25517   0.244   2.492   4.368  0.3399  0.2920 -1.1158
 8316SOL    HW125518   0.172   2.432   4.386  2.3385 -1.5821  1.2094
 8316SOL    HW225519   0.245   2.552   4.443  2.1440 -0.7511 -0.2480
 8317SOL     OW25520   1.688   4.190   6.027 -0.5797  0.4557 -0.2846
 8317SOL    HW125521   1.657   4.196   6.117  1.7076  0.5083  0.5525
 8317SOL    HW225522   1.738   4.271   6.013 -2.4357  1.3801 -2.2876
 8318SOL     OW25523   3.647   5.206   7.268 -0.3091  0.1530 -0.3557
 8318SOL    HW125524   3.621   5.195   7.176 -1.2141  1.7105 -0.3063
 8318SOL    HW225525   3.731   5.160   7.274  0.6792  1.5540 -2.4198
 8319SOL     OW25526   7.035   0.098   6.655  0.2163  0.3961 -0.2251
 8319SOL    HW125527   6.985   0.179   6.642 -0.1199 -0.0406 -1.8596
 8319SOL    HW225528   7.113   0.126   6.704 -0.8371  1.3527  1.0002
 8320SOL     OW25529   0.081   5.007   6.324  0.0577  0.3896 -0.1307
 8320SOL    HW125530   0.119   5.066   6.259  0.1106  0.7555  0.2291
 8320SOL    HW225531   0.079   5.058   6.405  1.5603 -0.5857  0.5816
 8321SOL     OW25532   5.662   6.750   6.065 -0.1507 -0.7571  0.0220
 8321SOL    HW125533   5.630   6.785   6.149 -1.6964  2.0786 -1.5872
 8321SOL    HW225534   5.584   6.746   6.010  1.2472  0.2852 -2.1495
 8322SOL     OW25535   4.730   0.774   5.112  0.1166  0.3970  0.1956
 8322SOL    HW125536   4.762   0.687   5.089  0.9371  1.1750 -1.8364
 8322SOL    HW225537   4.639   0.761   5.138  0.0991 -0.9962 -0.5139
 8323SOL     OW25538   3.400   3.120   4.785 -0.4759  0.1485 -0.2220
 8323SOL    HW125539   3.342   3.178   4.834 -1.2966 -0.8216 -0.0128
 8323SOL    HW225540   3.449   3.179   4.727 -2.4152  0.9261 -1.1660
 8324SOL     OW25541   1.529   0.598   1.786 -0.6152  0.2518  0.8041
 8324SOL    HW125542   1.444   0.564   1.757 -0.3030 -1.0531  1.3368
 8324SOL    HW225543   1.574   0.621   1.705 -1.0468 -0.1284  0.4465
 8325SOL     OW25544   5.054   4.667   7.438  0.1868 -0.5600  0.0701
 8325SOL    HW125545   5.128   4.710   7.480 -0.4180 -0.1861  0.7820
 8325SOL    HW225546   5.091   4.626   7.360  1.2278 -0.7769  0.6611
 8326SOL     OW25547   1.037   0.361   6.720 -0.3046 -0.9153  0.1700
 8326SOL    HW125548   1.117   0.365   6.771  2.1144 -2.8040 -3.0732
 8326SOL    HW225549   1.047   0.429   6.654 -0.5902 -2.1146 -1.1729
 8327SOL     OW25550   1.827   2.723   1.415  0.0866 -0.1611 -0.1310
 8327SOL    HW125551   1.892   2.761   1.356 -0.0714  0.2967 -0.0184
 8327SOL    HW225552   1.743   2.751   1.380  0.0205  1.0517  0.9086
 8328SOL     OW25553   3.891   5.017   5.569  0.4008  0.6913  0.0620
 8328SOL    HW125554   3.913   5.026   5.662  1.7234  2.9208 -0.4002
 8328SOL    HW225555   3.950   4.949   5.536  1.2663  1.2360  0.4645
 8329SOL     OW25556   5.261   1.747   6.124 -0.1952  0.0447  0.4134
 8329SOL    HW125557   5.305   1.662   6.129 -2.3892 -1.1007  2.7554
 8329SOL    HW225558   5.186   1.732   6.066  0.3649  0.9304 -0.5788
 8330SOL     OW25559   7.304   3.549   6.757 -0.2886 -0.1679 -0.6269
 8330SOL    HW125560   7.227   3.556   6.813 -0.6702 -0.9004 -1.0495
 8330SOL    HW225561   7.290   3.470   6.706  0.1717  0.3613 -1.5928
 8331SOL     OW25562   4.651   5.769   3.253  0.4018 -0.3666  0.1124
 8331SOL    HW125563   4.645   5.692   3.311  0.6804  0.6281  1.5180
 8331SOL    HW225564   4.570   5.768   3.203 -0.3862 -0.6390  1.3532
 8332SOL     OW25565   0.672   3.846   3.966  0.3506 -0.2268 -0.8417
 8332SOL    HW125566   0.646   3.793   4.042 -1.5163 -0.2202 -1.4058
 8332SOL    HW225567   0.712   3.924   4.004 -1.1493  0.0914  0.2088
 8333SOL     OW25568   6.482   2.384   3.268  0.3146  0.1758  0.3665
 8333SOL    HW125569   6.389   2.390   3.247  0.3659 -0.4734 -0.0767
 8333SOL    HW225570   6.492   2.296   3.304  0.8389  0.0831 -0.0008
 8334SOL     OW25571   0.266   6.557   2.064  0.2900 -0.3587 -0.3802
 8334SOL    HW125572   0.241   6.606   2.142  2.5097 -0.4507  0.4454
 8334SOL    HW225573   0.189   6.503   2.044  0.1066 -1.3642  2.5525
 8335SOL     OW25574   0.332   7.160   6.167 -0.2705  0.2704 -0.2332
 8335SOL    HW125575   0.325   7.067   6.187  0.4184  0.3898  0.6215
 8335SOL    HW225576   0.424   7.182   6.182 -0.6265  1.3041  0.6119
 8336SOL     OW25577   2.837   6.367   6.609  0.1668 -0.5361  0.2624
 8336SOL    HW125578   2.894   6.291   6.594  0.8386 -0.0358  0.2560
 8336SOL    HW225579   2.775   6.365   6.536 -0.1814 -1.3987  0.5660
 8337SOL     OW25580   3.614   1.532   3.160 -0.5040  0.2170 -0.4389
 8337SOL    HW125581   3.605   1.504   3.069 -1.3245  1.9897 -0.9528
 8337SOL    HW225582   3.658   1.617   3.155  0.0449  0.0347  0.8720
 8338SOL     OW25583   0.079   4.981   1.882 -0.2010  0.0043  0.1530
 8338SOL    HW125584   0.164   5.025   1.886  0.7726 -1.5583 -1.5503
 8338SOL    HW225585   0.018   5.044   1.918  1.5823  1.4339  0.8520
 8339SOL     OW25586   2.265   3.221   0.881  0.4157 -0.0229  0.4242
 8339SOL    HW125587   2.201   3.285   0.912  0.7949  0.1844  0.8027
 8339SOL    HW225588   2.273   3.158   0.953  0.2036 -0.3726  0.1411
 8340SOL     OW25589   3.082   1.877   1.512  0.4597  0.8265  0.1187
 8340SOL    HW125590   3.128   1.946   1.463 -0.2778  0.8214 -0.5956
 8340SOL    HW225591   3.043   1.822   1.444  2.0856 -1.0641  0.6319
 8341SOL     OW25592   4.724   7.218   2.314  0.1425  0.3226 -0.0301
 8341SOL    HW125593   4.749   7.309   2.300  0.3016  0.4552  1.0324
 8341SOL    HW225594   4.707   7.184   2.226  0.5696  1.2317 -0.4801
 8342SOL     OW25595   1.416   1.270   2.518 -0.4520 -0.2291  0.2230
 8342SOL    HW125596   1.433   1.178   2.500 -1.7137 -0.4779  0.2522
 8342SOL    HW225597   1.373   1.271   2.604  0.9008  0.5241  0.9365
 8343SOL     OW25598   7.030   2.024   4.869 -0.6277 -0.0669  0.3273
 8343SOL    HW125599   6.982   1.960   4.816 -0.6546 -0.5616  0.9459
 8343SOL    HW225600   7.122   2.000   4.857 -0.6956 -1.1138  1.6587
 8344SOL     OW25601   3.700   6.133   3.790  0.4745 -0.0715  0.7830
 8344SOL    HW125602   3.614   6.158   3.756  0.2169  2.6044  3.0932
 8344SOL    HW225603   3.690   6.041   3.814 -0.5805 -0.8532 -2.1602
 8345SOL     OW25604   1.917   4.054   4.103 -0.2085 -0.1295 -0.5805
 8345SOL    HW125605   1.950   4.001   4.175  0.7739  2.1068  0.7139
 8345SOL    HW225606   1.825   4.027   4.093  0.6748 -3.2436 -1.2216
 8346SOL     OW25607   5.206   3.163   2.645  0.1233  0.7612 -0.5571
 8346SOL    HW125608   5.292   3.205   2.647  0.5821 -0.1596  0.9361
 8346SOL    HW225609   5.215   3.088   2.704 -1.2652 -0.2314 -1.5543
 8347SOL     OW25610   5.554   0.426   2.031 -0.6028  0.0737 -0.6536
 8347SOL    HW125611   5.529   0.347   2.079 -0.7790  0.6102  0.1602
 8347SOL    HW225612   5.513   0.416   1.945 -0.6266 -0.7119 -0.5589
 8348SOL     OW25613   4.815   0.718   3.002 -0.2202 -0.1930  0.1553
 8348SOL    HW125614   4.817   0.625   3.022  2.2700 -0.5347 -1.2448
 8348SOL    HW225615   4.888   0.731   2.942 -1.9294  2.2562 -1.5988
 8349SOL     OW25616   6.951   1.394   1.532  0.2522 -0.2731  0.3248
 8349SOL    HW125617   6.988   1.338   1.463  0.2998  0.6297 -0.4006
 8349SOL    HW225618   7.016   1.464   1.542 -1.4885  1.7383 -1.4599
 8350SOL     OW25619   1.330   4.891   1.200 -0.4403 -0.1198 -0.1941
 8350SOL    HW125620   1.340   4.836   1.123  1.7088  0.7681 -0.6116
 8350SOL    HW225621   1.390   4.854   1.264 -1.0976  0.0452  0.5260
 8351SOL     OW25622   4.225   0.975   6.628 -0.5911  0.0770 -0.1964
 8351SOL    HW125623   4.207   0.960   6.535 -2.1771  1.0363 -0.0899
 8351SOL    HW225624   4.165   1.045   6.652 -1.1449 -1.0377  1.8697
 8352SOL     OW25625   0.240   1.324   3.666  0.5992 -0.3850  0.0956
 8352SOL    HW125626   0.220   1.254   3.728  2.7444 -0.1470  1.1707
 8352SOL    HW225627   0.294   1.385   3.717 -0.6504  1.7377 -0.9900
 8353SOL     OW25628   1.992   0.831   1.257  0.3210  0.5077  0.1651
 8353SOL    HW125629   2.019   0.847   1.167 -1.0368 -2.6373 -0.9388
 8353SOL    HW225630   2.070   0.797   1.300  0.6947  1.0032 -0.1133
 8354SOL     OW25631   5.169   0.639   4.093  0.0779  0.2324 -0.1445
 8354SOL    HW125632   5.096   0.668   4.039  1.1222  0.2837 -1.6083
 8354SOL    HW225633   5.246   0.675   4.050  0.9852  0.1047  1.3009
 8355SOL     OW25634   2.858   3.573   5.618  0.3416 -0.0559  0.0826
 8355SOL    HW125635   2.858   3.545   5.526 -0.3611  0.1751  0.0045
 8355SOL    HW225636   2.891   3.664   5.615 -1.6744  0.7109 -0.2097
 8356SOL     OW25637   4.195   1.723   7.122 -0.2316  0.5905 -0.0723
 8356SOL    HW125638   4.279   1.742   7.081 -0.2288  0.9732  0.1148
 8356SOL    HW225639   4.177   1.798   7.178  0.1775 -0.3090  1.3234
 8357SOL     OW25640   2.396   2.639   2.480  0.0502 -0.2690  0.8603
 8357SOL    HW125641   2.486   2.611   2.463 -0.1066 -1.1553  1.4207
 8357SOL    HW225642   2.355   2.564   2.524 -0.9922  0.0817  0.5238
 8358SOL     OW25643   0.944   4.598   2.698  0.4762 -0.6027  0.0999
 8358SOL    HW125644   0.875   4.533   2.691  2.1729 -2.5080  0.1437
 8358SOL    HW225645   0.970   4.597   2.790  2.6838 -2.3309 -0.4560
 8359SOL     OW25646   4.354   3.132   4.479 -0.6840  0.0438  0.3683
 8359SOL    HW125647   4.269   3.177   4.473 -0.5058  0.8070  2.6102
 8359SOL    HW225648   4.342   3.069   4.550  0.4508 -0.2434  0.3085
 8360SOL     OW25649   4.755   4.128   6.220 -0.3256 -0.0493 -0.5337
 8360SOL    HW125650   4.717   4.214   6.199 -0.1215  0.1668 -0.0285
 8360SOL    HW225651   4.769   4.130   6.314  1.7255  0.1998 -0.7999
 8361SOL     OW25652   5.381   3.390   6.183  0.5133 -0.2490 -0.1420
 8361SOL    HW125653   5.383   3.468   6.128  0.0701 -0.1341 -0.0057
 8361SOL    HW225654   5.399   3.317   6.124 -3.2171 -0.5439 -1.2197
 8362SOL     OW25655   1.772   3.339   4.886  0.0075 -0.1857 -0.5330
 8362SOL    HW125656   1.751   3.422   4.929 -1.4714 -0.1269 -1.2887
 8362SOL    HW225657   1.865   3.327   4.901 -0.4131 -0.2457  2.7988
 8363SOL     OW25658   6.929   1.291   0.515 -0.7131 -0.0575  0.2423
 8363SOL    HW125659   6.864   1.309   0.446 -0.9022  0.0938  0.4599
 8363SOL    HW225660   6.901   1.344   0.589 -0.8369 -0.6581  0.6319
 8364SOL     OW25661   2.705   4.551   0.693 -0.2423 -0.6882 -0.2196
 8364SOL    HW125662   2.645   4.546   0.619  0.4975 -1.9202 -0.7590
 8364SOL    HW225663   2.762   4.475   0.683  1.2791  0.3270  0.3933
 8365SOL     OW25664   0.352   1.581   5.960 -0.2860  0.6998 -0.2054
 8365SOL    HW125665   0.441   1.547   5.949 -0.5689  0.0961 -0.7067
 8365SOL    HW225666   0.364   1.668   5.997  0.4988  0.4776  0.0861
 8366SOL     OW25667   2.519   2.507   5.774 -0.5869  0.0239  0.1582
 8366SOL    HW125668   2.483   2.591   5.804 -2.0546 -0.5371  0.0178
 8366SOL    HW225669   2.517   2.451   5.852 -0.8858 -0.2860 -0.0677
 8367SOL     OW25670   5.287   6.506   1.021 -0.8469 -0.4436  0.1525
 8367SOL    HW125671   5.205   6.494   0.972 -1.0320  0.6465  0.1804
 8367SOL    HW225672   5.309   6.598   1.009 -0.7941 -0.1881  1.9731
 8368SOL     OW25673   1.568   3.954   3.411 -0.0467  0.2497  0.0797
 8368SOL    HW125674   1.660   3.929   3.424 -0.0532  1.0834  2.0236
 8368SOL    HW225675   1.533   3.965   3.499 -1.6881  1.1486 -0.6372
 8369SOL     OW25676   5.947   3.716   0.315  0.0972  0.2839 -0.0440
 8369SOL    HW125677   5.982   3.798   0.281 -1.1210 -0.3508 -3.0813
 8369SOL    HW225678   6.011   3.650   0.288 -1.4149 -0.3724 -2.2526
 8370SOL     OW25679   2.265   2.383   5.917  0.2626  0.0042  0.0968
 8370SOL    HW125680   2.355   2.366   5.944  0.6701 -1.2384 -1.8807
 8370SOL    HW225681   2.231   2.298   5.890 -0.8947  0.7629 -0.9262
 8371SOL     OW25682   2.906   0.016   3.987 -0.2127 -0.5124 -0.1099
 8371SOL    HW125683   2.893   0.055   4.073  0.2743 -1.7755  0.5644
 8371SOL    HW225684   2.931   0.089   3.931 -0.7564  0.3627  0.7701
 8372SOL     OW25685   2.820   4.004   7.068 -0.3493  0.7323  0.4978
 8372SOL    HW125686   2.802   4.095   7.092  0.0939  0.4492  2.0595
 8372SOL    HW225687   2.810   3.956   7.150 -1.3888 -0.7664 -0.4631
 8373SOL     OW25688   3.854   4.644   6.124 -0.5131 -0.6651  0.6106
 8373SOL    HW125689   3.947   4.652   6.099  0.0535  0.8133  2.8698
 8373SOL    HW225690   3.806   4.668   6.045  1.1183  1.9657  0.3059
 8374SOL     OW25691   6.001   5.873   4.655  0.0667 -0.3376 -0.6436
 8374SOL    HW125692   6.037   5.811   4.718 -0.7835 -0.5081 -0.3121
 8374SOL    HW225693   6.016   5.832   4.569 -1.0958 -1.3573 -0.3973
 8375SOL     OW25694   2.642   5.090   3.869  0.2705  0.1262 -0.6125
 8375SOL    HW125695   2.570   5.028   3.862  0.6445 -0.1318 -2.6784
 8375SOL    HW225696   2.629   5.132   3.954 -0.2292 -2.4612  0.7092
 8376SOL     OW25697   5.010   1.781   4.848  0.2369  0.5612  0.0582
 8376SOL    HW125698   4.973   1.697   4.818 -0.0332  1.3056 -1.8656
 8376SOL    HW225699   4.972   1.794   4.935  0.8493 -1.6329  0.7323
 8377SOL     OW25700   4.545   7.086   5.723 -0.1380 -0.1715 -0.0401
 8377SOL    HW125701   4.566   7.144   5.797 -1.4919  1.0497 -0.5839
 8377SOL    HW225702   4.453   7.063   5.736 -0.1617 -0.5989 -0.9317
 8378SOL     OW25703   0.131   5.368   4.024  0.0304  0.0250 -0.3149
 8378SOL    HW125704   0.123   5.463   4.031 -0.3939 -0.1245  2.3779
 8378SOL    HW225705   0.124   5.337   4.114 -0.9049 -2.6591 -1.2143
 8379SOL     OW25706   2.673   5.061   5.834 -0.4483  0.3158 -0.3929
 8379SOL    HW125707   2.636   5.043   5.921  0.4284 -0.0877 -0.0862
 8379SOL    HW225708   2.640   4.990   5.779  1.0212 -0.9089  0.2309
 8380SOL     OW25709   2.757   4.513   2.098  0.0980  0.0717  0.6807
 8380SOL    HW125710   2.758   4.426   2.057 -1.1589  0.1074  0.5167
 8380SOL    HW225711   2.725   4.496   2.187  2.6654  0.0120  1.6673
 8381SOL     OW25712   6.637   0.668   1.024  0.3567  0.1262 -0.0743
 8381SOL    HW125713   6.576   0.595   1.017  1.0794 -0.4329 -0.8258
 8381SOL    HW225714   6.696   0.657   0.949  0.0721  1.8857 -0.6010
 8382SOL     OW25715   5.655   5.448   2.016  0.3076 -0.2188  0.2590
 8382SOL    HW125716   5.590   5.504   2.057 -0.7281  0.1181 -1.7126
 8382SOL    HW225717   5.732   5.505   2.006 -0.2255  0.4031 -0.3735
 8383SOL     OW25718   3.221   5.053   0.975  0.3476 -0.4934 -0.5579
 8383SOL    HW125719   3.230   5.136   0.927  0.5536 -1.2809 -1.9444
 8383SOL    HW225720   3.133   5.022   0.954  0.8696 -1.4408 -1.4711
 8384SOL     OW25721   6.899   1.417   2.382  0.0786 -0.2506 -0.0225
 8384SOL    HW125722   6.963   1.466   2.329  0.4866 -1.4116 -0.6390
 8384SOL    HW225723   6.952   1.355   2.433 -0.5355 -1.1876 -0.4926
 8385SOL     OW25724   5.531   0.347   7.088  0.4299 -0.1337 -0.0019
 8385SOL    HW125725   5.589   0.320   7.160  0.6725  3.0069  1.1349
 8385SOL    HW225726   5.591   0.370   7.017  0.3012 -1.0829 -0.4313
 8386SOL     OW25727   1.262   6.360   6.102 -0.0980  0.2461 -0.2059
 8386SOL    HW125728   1.180   6.389   6.063  0.3583  0.5361 -0.9781
 8386SOL    HW225729   1.325   6.429   6.079  1.5397 -2.1556 -3.8939
 8387SOL     OW25730   4.695   1.393   2.203 -0.3680 -0.0118  0.5128
 8387SOL    HW125731   4.753   1.328   2.244  2.7230  1.3821 -1.2526
 8387SOL    HW225732   4.699   1.469   2.261  1.7591  0.9698 -0.7915
 8388SOL     OW25733   3.350   2.436   3.642  0.3375  0.0564  0.2602
 8388SOL    HW125734   3.411   2.508   3.658 -0.6072  1.0346 -0.3601
 8388SOL    HW225735   3.296   2.467   3.569 -0.2178 -1.2106  0.1140
 8389SOL     OW25736   5.197   1.420   5.112 -0.0112  0.0126 -0.1458
 8389SOL    HW125737   5.273   1.420   5.053 -0.3195  1.8539 -0.6052
 8389SOL    HW225738   5.209   1.341   5.166  0.2398 -1.7976 -2.6592
 8390SOL     OW25739   5.021   4.238   7.298 -0.1971  0.0442  0.3457
 8390SOL    HW125740   5.063   4.151   7.298 -0.1677  0.0411 -1.2106
 8390SOL    HW225741   4.953   4.231   7.365 -0.3127 -1.2524  0.1297
 8391SOL     OW25742   4.261   3.817   3.764  0.5772  0.5198 -0.4855
 8391SOL    HW125743   4.286   3.874   3.691 -0.0604  0.1612 -0.9907
 8391SOL    HW225744   4.228   3.737   3.722 -3.3343  1.6798  0.0250
 8392SOL     OW25745   6.456   2.497   1.982  0.1882  0.2493 -0.6551
 8392SOL    HW125746   6.504   2.577   2.001  0.1374  0.1149  0.0745
 8392SOL    HW225747   6.364   2.525   1.973 -0.0536  0.0871  1.0602
 8393SOL     OW25748   4.232   2.597   4.490 -0.3047 -0.2043  0.0038
 8393SOL    HW125749   4.259   2.689   4.481  1.9540 -0.8597 -0.5039
 8393SOL    HW225750   4.141   2.602   4.519 -0.3122  2.1906 -0.2087
 8394SOL     OW25751   4.720   0.899   0.825  0.0840  0.4017  0.2527
 8394SOL    HW125752   4.669   0.822   0.802  0.0903 -0.1058  1.8340
 8394SOL    HW225753   4.658   0.958   0.867  0.6489  0.0405  1.6318
 8395SOL     OW25754   3.521   4.162   7.047  0.8085 -0.1285  0.0901
 8395SOL    HW125755   3.600   4.209   7.073  0.5662  0.4605 -0.2140
 8395SOL    HW225756   3.450   4.223   7.065  0.4042 -0.7155  0.5088
 8396SOL     OW25757   1.714   6.273   2.032  0.3975 -0.2525  0.7033
 8396SOL    HW125758   1.741   6.209   2.098  2.1822  2.1440  2.5072
 8396SOL    HW225759   1.619   6.265   2.028  0.2609 -0.8826  3.2210
 8397SOL     OW25760   2.398   0.975   0.432 -0.0627  0.3812 -0.6054
 8397SOL    HW125761   2.373   0.958   0.341  2.9797  0.0646 -1.5041
 8397SOL    HW225762   2.375   0.894   0.478  0.8615 -0.5521 -1.7115
 8398SOL     OW25763   0.983   6.871   6.134  0.3198 -0.5839 -0.0116
 8398SOL    HW125764   0.952   6.958   6.109  1.0060 -0.1194  0.6866
 8398SOL    HW225765   0.918   6.811   6.098 -1.7924  0.3661  1.9373
 8399SOL     OW25766   0.163   4.796   6.483  0.6830  0.2677 -0.4078
 8399SOL    HW125767   0.079   4.754   6.503  0.2127  1.0868 -0.5632
 8399SOL    HW225768   0.142   4.856   6.410  0.4854  3.2834  1.9252
 8400SOL     OW25769   1.347   2.372   2.441  0.0846 -0.0949 -0.3774
 8400SOL    HW125770   1.326   2.409   2.355 -0.6976  2.5807  0.8272
 8400SOL    HW225771   1.263   2.366   2.485  0.6130 -0.0923  0.6609
 8401SOL     OW25772   0.089   7.161   7.057 -0.3570 -0.1648  0.2501
 8401SOL    HW125773   0.180   7.177   7.081 -0.4126 -1.5652  1.5185
 8401SOL    HW225774   0.073   7.221   6.984  1.8773 -0.6006 -0.6942
 8402SOL     OW25775   5.111   3.731   4.906 -0.3502 -0.3533 -0.4028
 8402SOL    HW125776   5.098   3.695   4.818 -4.2066 -3.4103  1.0600
 8402SOL    HW225777   5.024   3.762   4.931  0.2150 -1.0529  2.8274
 8403SOL     OW25778   1.287   3.419   5.357 -0.0808 -0.0555 -0.1054
 8403SOL    HW125779   1.205   3.371   5.342 -1.1073  1.8029 -0.9174
 8403SOL    HW225780   1.352   3.371   5.306 -0.5783 -1.7285  0.7537
 8404SOL     OW25781   0.453   1.010   6.376  0.1546 -0.5650  0.0741
 8404SOL    HW125782   0.437   1.082   6.315 -0.5383  0.1491  1.0665
 8404SOL    HW225783   0.545   0.988   6.364  0.3764  0.4876 -0.2491
 8405SOL     OW25784   5.647   1.087   6.319 -0.1999  0.3791  0.2117
 8405SOL    HW125785   5.693   1.013   6.360 -0.8194  0.0528  0.3206
 8405SOL    HW225786   5.610   1.050   6.239 -1.5791  0.2317  0.8824
 8406SOL     OW25787   1.370   6.990   4.674 -0.2744  0.7372 -0.2969
 8406SOL    HW125788   1.391   7.068   4.725 -0.8720  0.5369  0.2758
 8406SOL    HW225789   1.281   6.967   4.701 -0.3685  0.2701 -0.9850
 8407SOL     OW25790   0.791   4.968   7.013 -0.0194 -0.1176  0.2889
 8407SOL    HW125791   0.704   4.939   6.985 -0.1294  1.3313 -1.0374
 8407SOL    HW225792   0.784   4.980   7.107 -1.8755  1.8363 -0.0284
 8408SOL     OW25793   2.276   0.285   4.455 -0.3099 -0.0380  0.1077
 8408SOL    HW125794   2.364   0.258   4.483 -0.2466 -0.2896 -0.3240
 8408SOL    HW225795   2.287   0.374   4.423 -0.3739  0.2353  0.8287
 8409SOL     OW25796   7.399   0.585   6.959 -0.4452 -0.5584 -0.2146
 8409SOL    HW125797   7.356   0.500   6.968 -2.0980  0.2025 -0.4966
 8409SOL    HW225798   7.327   0.647   6.944  0.7595  0.8047 -0.6310
 8410SOL     OW25799   1.031   1.206   2.973 -0.2990 -0.5771  0.5474
 8410SOL    HW125800   1.038   1.110   2.966 -2.7103 -0.7289 -1.1185
 8410SOL    HW225801   1.120   1.235   2.992  0.7020 -3.0763  0.1285
 8411SOL     OW25802   4.485   6.882   1.664  0.2463 -0.4350  0.5274
 8411SOL    HW125803   4.578   6.902   1.677  0.3185  0.7178 -1.3788
 8411SOL    HW225804   4.485   6.793   1.628  0.5818 -0.5040  0.6877
 8412SOL     OW25805   2.368   0.107   7.193 -0.2431  0.1861  0.1025
 8412SOL    HW125806   2.395   0.095   7.284  2.2854 -0.1013 -0.6010
 8412SOL    HW225807   2.332   0.196   7.190  0.8890  0.7078  1.1445
 8413SOL     OW25808   3.876   6.053   3.330  0.0477 -0.4020 -0.7938
 8413SOL    HW125809   3.946   6.030   3.269  1.9411  4.1141 -0.6607
 8413SOL    HW225810   3.808   6.091   3.275  0.8509  1.7341 -0.3777
 8414SOL     OW25811   2.618   0.626   2.996 -0.0811  0.0215 -0.3499
 8414SOL    HW125812   2.563   0.632   2.918 -0.1590 -2.4215 -0.5651
 8414SOL    HW225813   2.702   0.593   2.963  0.9625  1.9893  0.2196
 8415SOL     OW25814   6.003   3.682   6.714  0.0317  0.5542 -0.2079
 8415SOL    HW125815   6.041   3.719   6.634  0.8021  0.0764 -0.0773
 8415SOL    HW225816   6.024   3.745   6.782  2.4636 -0.6402  0.2593
 8416SOL     OW25817   0.711   2.003   2.080  0.0369  0.4735 -0.0941
 8416SOL    HW125818   0.745   1.915   2.066  0.3211  0.4662  0.6199
 8416SOL    HW225819   0.625   2.003   2.038 -1.2025 -1.0107  2.2635
 8417SOL     OW25820   4.455   3.494   0.762  0.4110  0.0252  0.4799
 8417SOL    HW125821   4.467   3.546   0.682  0.3249  1.6045  1.4602
 8417SOL    HW225822   4.433   3.558   0.829  2.5245 -1.0118  2.2657
 8418SOL     OW25823   0.357   4.787   3.272  0.2594  0.2294  0.0934
 8418SOL    HW125824   0.361   4.716   3.208  0.2567 -0.5094  0.8907
 8418SOL    HW225825   0.448   4.817   3.279  0.2383  0.4062 -0.3508
 8419SOL     OW25826   2.445   6.326   5.326 -0.8380 -0.0785  0.0850
 8419SOL    HW125827   2.375   6.262   5.342 -0.4293 -0.2402  1.3318
 8419SOL    HW225828   2.421   6.368   5.243 -1.0829 -1.9008 -0.8195
 8420SOL     OW25829   1.942   0.667   2.764  0.2477 -0.5375  0.0334
 8420SOL    HW125830   1.914   0.576   2.754 -2.2826  0.2236 -0.6706
 8420SOL    HW225831   1.941   0.703   2.675  1.8461  0.0371  0.2182
 8421SOL     OW25832   6.819   6.239   1.546  0.5212  0.0016  0.0814
 8421SOL    HW125833   6.897   6.281   1.583  0.1971 -0.3155  1.1801
 8421SOL    HW225834   6.844   6.215   1.458  1.4448  0.5151  0.1909
 8422SOL     OW25835   5.488   2.351   2.519 -0.3942 -0.3449  0.3403
 8422SOL    HW125836   5.397   2.356   2.491 -0.4890  0.9147  0.8116
 8422SOL    HW225837   5.486   2.295   2.597 -0.8623  0.1508  0.6907
 8423SOL     OW25838   6.313   2.237   6.946 -0.1675  0.0497 -0.0897
 8423SOL    HW125839   6.265   2.300   7.000 -2.0234 -2.5204  1.5336
 8423SOL    HW225840   6.254   2.217   6.874 -0.6574 -1.4861  0.6957
 8424SOL     OW25841   3.819   3.899   0.398 -0.1082 -0.0456  0.4686
 8424SOL    HW125842   3.760   3.933   0.465  1.5217  1.6012  1.1374
 8424SOL    HW225843   3.903   3.887   0.443  0.8804  0.5611 -1.1363
 8425SOL     OW25844   5.138   1.867   5.177 -0.1457  0.0166 -0.2916
 8425SOL    HW125845   5.169   1.901   5.261  0.4704 -0.6323 -0.2473
 8425SOL    HW225846   5.200   1.903   5.113 -1.5249  1.8244 -0.7062
 8426SOL     OW25847   2.549   2.987   5.757 -0.0342  0.4002  0.2516
 8426SOL    HW125848   2.543   3.082   5.765  0.0328  0.4245  0.0206
 8426SOL    HW225849   2.604   2.960   5.831  2.2693  0.8310 -1.1940
 8427SOL     OW25850   0.242   0.831   3.447  0.3555 -0.1606 -0.4696
 8427SOL    HW125851   0.152   0.828   3.416  0.2496  1.2445 -0.3568
 8427SOL    HW225852   0.256   0.745   3.487 -1.3903  0.0627  0.7502
 8428SOL     OW25853   7.036   7.010   1.249 -0.1234  0.1247 -0.0617
 8428SOL    HW125854   6.998   7.080   1.302  0.0797 -0.7344  1.2374
 8428SOL    HW225855   7.107   7.053   1.201 -0.0622  0.8404  0.6524
 8429SOL     OW25856   3.774   5.869   2.728 -0.3724 -0.5002 -0.3971
 8429SOL    HW125857   3.864   5.900   2.719 -0.5277  0.6465  1.4739
 8429SOL    HW225858   3.734   5.884   2.642  0.8797  0.1415 -0.8826
 8430SOL     OW25859   1.436   3.307   0.745  0.4804 -0.2312 -0.0433
 8430SOL    HW125860   1.412   3.315   0.837 -0.9311 -0.4620 -0.3713
 8430SOL    HW225861   1.363   3.260   0.705  0.6339  0.6764 -1.4565
 8431SOL     OW25862   5.389   0.676   0.031  0.1837  0.4701  0.0519
 8431SOL    HW125863   5.392   0.681   0.127  0.0366 -1.4600  0.1939
 8431SOL    HW225864   5.478   0.697   0.004  0.2878  0.8007  0.6301
 8432SOL     OW25865   5.434   6.891   5.912 -0.9587  0.7392 -0.4463
 8432SOL    HW125866   5.416   6.983   5.933 -0.7038  1.1765 -2.0170
 8432SOL    HW225867   5.378   6.842   5.972 -1.8671  1.9422 -0.2497
 8433SOL     OW25868   1.798   3.356   1.895 -0.1035 -0.6087 -0.2180
 8433SOL    HW125869   1.886   3.392   1.882 -0.3427  0.0256 -0.1015
 8433SOL    HW225870   1.753   3.372   1.812  0.3349 -2.2840 -0.8335
 8434SOL     OW25871   3.997   2.707   4.134 -0.2471 -0.1181 -0.0579
 8434SOL    HW125872   4.055   2.631   4.142  0.3069  0.3061  0.0160
 8434SOL    HW225873   3.923   2.686   4.190  0.8780  0.2887  1.6677
 8435SOL     OW25874   6.122   0.623   6.034  0.2506  0.0342 -0.0299
 8435SOL    HW125875   6.155   0.689   5.973 -0.9548  0.9841  0.3215
 8435SOL    HW225876   6.200   0.592   6.080  0.6982  2.1481  0.7228
 8436SOL     OW25877   2.122   7.396   3.307 -0.3188 -0.3501  0.1023
 8436SOL    HW125878   2.189   7.341   3.266  1.8411  2.1292  0.0761
 8436SOL    HW225879   2.099   7.349   3.388  1.4758 -1.2488  0.1376
 8437SOL     OW25880   2.411   1.831   3.995 -0.3461  0.0729  0.7750
 8437SOL    HW125881   2.483   1.872   4.042 -0.0734 -0.8253  1.1620
 8437SOL    HW225882   2.414   1.870   3.907  0.7239 -0.0946  0.7250
 8438SOL     OW25883   2.178   6.231   5.365  0.6034  0.1596 -0.2802
 8438SOL    HW125884   2.164   6.326   5.360  0.5143  0.1253 -0.6957
 8438SOL    HW225885   2.107   6.199   5.419 -0.5312  0.0754 -1.7665
 8439SOL     OW25886   6.733   3.530   1.358 -0.2017 -0.3593  0.3539
 8439SOL    HW125887   6.735   3.621   1.328 -1.2500 -0.1806  0.7828
 8439SOL    HW225888   6.695   3.534   1.446  0.4614 -1.1355  0.6821
 8440SOL     OW25889   6.267   3.838   0.508  0.5405 -0.2892 -0.6081
 8440SOL    HW125890   6.350   3.879   0.484  0.4246 -0.8865 -2.1472
 8440SOL    HW225891   6.208   3.911   0.525  1.3946  0.1419  0.6491
 8441SOL     OW25892   3.374   6.390   6.521  0.3598 -0.2686  0.6900
 8441SOL    HW125893   3.365   6.306   6.476  1.4969 -0.5773  1.0038
 8441SOL    HW225894   3.350   6.456   6.454  1.7608 -0.7263 -0.3098
 8442SOL     OW25895   6.715   6.280   2.749  0.5075 -0.2963  0.0459
 8442SOL    HW125896   6.620   6.270   2.745  0.4426  0.3864 -0.3335
 8442SOL    HW225897   6.747   6.194   2.776 -0.2150 -0.5385  0.1591
 8443SOL     OW25898   0.982   1.246   6.195 -0.3522 -0.3194  0.2590
 8443SOL    HW125899   1.023   1.206   6.271 -0.0402 -3.3018 -1.3292
 8443SOL    HW225900   0.914   1.303   6.231  1.0949 -0.0675  2.7676
 8444SOL     OW25901   2.058   2.228   1.671 -0.4753  0.0411  0.3623
 8444SOL    HW125902   2.047   2.312   1.627 -2.0405  1.0870  2.5092
 8444SOL    HW225903   2.127   2.243   1.735 -0.9122 -0.2233  0.9052
 8445SOL     OW25904   5.721   4.546   5.961 -0.1843 -0.3887  0.5070
 8445SOL    HW125905   5.741   4.591   5.879 -0.9182  1.1099  1.1188
 8445SOL    HW225906   5.631   4.572   5.982 -0.1883 -1.1473  1.5240
 8446SOL     OW25907   2.546   2.320   1.518 -0.7487  0.6518  0.8231
 8446SOL    HW125908   2.577   2.395   1.568  0.6767  1.2863 -0.8876
 8446SOL    HW225909   2.625   2.271   1.495 -1.1597  1.0435 -1.7347
 8447SOL     OW25910   0.536   5.582   5.976  0.7196 -0.2781 -0.0287
 8447SOL    HW125911   0.508   5.529   6.050 -0.4109 -1.8354 -1.4836
 8447SOL    HW225912   0.562   5.518   5.909  1.7822  1.0657 -0.9732
 8448SOL     OW25913   3.052   7.404   2.848 -0.1913  0.0042 -0.0528
 8448SOL    HW125914   3.125   7.462   2.827 -1.5889  1.6174 -0.6384
 8448SOL    HW225915   3.094   7.322   2.876  1.8579  1.3779  1.1574
 8449SOL     OW25916   4.507   2.464   0.990 -0.2763  0.0689 -0.1163
 8449SOL    HW125917   4.493   2.557   0.972  0.0504  0.1754  0.1820
 8449SOL    HW225918   4.563   2.434   0.919  1.6959  0.6753  1.1230
 8450SOL     OW25919   2.144   1.826   4.274  0.3433  0.1278  0.2846
 8450SOL    HW125920   2.158   1.872   4.357  0.5772 -0.7621  0.7521
 8450SOL    HW225921   2.223   1.773   4.262 -0.2279 -0.7144  0.1473
 8451SOL     OW25922   5.448   6.313   3.821  0.5708  0.2020  0.2033
 8451SOL    HW125923   5.534   6.272   3.826  0.7350  0.3963 -0.7989
 8451SOL    HW225924   5.390   6.245   3.788  0.6100  0.4273 -0.3497
 8452SOL     OW25925   0.043   6.791   0.298  0.0033 -0.8149  0.3907
 8452SOL    HW125926   0.065   6.874   0.341  0.5122 -0.7670  0.0519
 8452SOL    HW225927   0.004   6.738   0.367  2.5579 -1.4606  1.4589
 8453SOL     OW25928   3.577   0.425   1.911 -0.3999 -0.3651  0.1884
 8453SOL    HW125929   3.533   0.426   1.827 -0.2298 -1.0448  0.0889
 8453SOL    HW225930   3.508   0.442   1.975 -1.5006 -4.3654  0.3296
 8454SOL     OW25931   7.086   0.261   5.312  0.2020  0.0506 -0.0531
 8454SOL    HW125932   7.133   0.217   5.383  1.0631  2.1086  0.7242
 8454SOL    HW225933   7.023   0.317   5.356 -1.1963 -0.7025 -1.0278
 8455SOL     OW25934   0.048   4.556   1.013  0.0302 -0.0150  0.1672
 8455SOL    HW125935   0.027   4.649   1.015 -0.2444 -0.0170 -1.2988
 8455SOL    HW225936   0.138   4.553   0.981  0.4148 -0.2218  1.2386
 8456SOL     OW25937   4.083   5.182   3.536  0.0015  0.1777  0.5017
 8456SOL    HW125938   4.083   5.087   3.547 -2.8804  0.1513  1.0972
 8456SOL    HW225939   3.991   5.205   3.526  0.6037  2.9434  0.4627
 8457SOL     OW25940   1.690   1.753   3.355  0.0196  0.2582 -0.0290
 8457SOL    HW125941   1.754   1.824   3.352  1.1848 -0.7076  0.9613
 8457SOL    HW225942   1.614   1.788   3.308  1.6783  1.0173 -2.3518
 8458SOL     OW25943   7.399   0.458   6.210 -0.5765 -0.0607  0.3739
 8458SOL    HW125944   7.429   0.535   6.258  3.3000 -1.3624  0.3908
 8458SOL    HW225945   7.474   0.400   6.209 -1.7357 -1.8674 -3.8316
 8459SOL     OW25946   6.717   1.282   2.851 -0.3748 -0.4262  0.1512
 8459SOL    HW125947   6.640   1.339   2.855 -0.2144 -0.2118  0.1889
 8459SOL    HW225948   6.704   1.218   2.921 -0.0942  0.1432  0.7314
 8460SOL     OW25949   5.829   2.981   0.757 -0.3315 -0.2193 -0.1159
 8460SOL    HW125950   5.783   3.041   0.698  0.9037  0.1752 -0.7119
 8460SOL    HW225951   5.771   2.905   0.763 -0.7976  0.0071 -1.3373
 8461SOL     OW25952   6.049   6.185   2.933 -0.5464 -0.2955  0.3112
 8461SOL    HW125953   5.998   6.262   2.958  1.5144  1.5312 -0.8195
 8461SOL    HW225954   6.027   6.171   2.841  0.1641 -0.1514  0.1162
 8462SOL     OW25955   2.087   5.646   5.689 -0.0062  0.1671  0.5963
 8462SOL    HW125956   2.117   5.736   5.675 -0.1185  0.1448  0.2079
 8462SOL    HW225957   2.099   5.631   5.783 -1.3570  1.0933  0.9521
 8463SOL     OW25958   2.007   3.102   6.724  0.0335  0.1398  0.4483
 8463SOL    HW125959   1.963   3.181   6.757  0.0505  0.5723 -0.5304
 8463SOL    HW225960   1.939   3.056   6.674  0.6574  0.8230 -1.0874
 8464SOL     OW25961   1.505   5.767   3.509 -0.3156 -0.4794 -0.1752
 8464SOL    HW125962   1.475   5.849   3.546  1.7909  0.8769 -1.2914
 8464SOL    HW225963   1.474   5.769   3.418  1.2933 -0.0208 -0.7370
 8465SOL     OW25964   0.166   1.307   2.780 -0.0746  0.4172 -0.3326
 8465SOL    HW125965   0.155   1.361   2.858 -1.6876 -0.5070  0.1216
 8465SOL    HW225966   0.221   1.360   2.722  1.8319  0.8213  1.6859
 8466SOL     OW25967   4.628   2.015   1.085 -0.0690 -0.2967  0.0548
 8466SOL    HW125968   4.579   1.939   1.053 -0.7268  0.5693 -1.0900
 8466SOL    HW225969   4.719   1.986   1.087  0.0862 -0.3794 -2.9806
 8467SOL     OW25970   7.254   1.757   2.236 -0.3257  0.3296 -0.4806
 8467SOL    HW125971   7.262   1.782   2.328  0.5186  0.0900 -0.4737
 8467SOL    HW225972   7.285   1.833   2.187 -1.5454  0.7623 -0.6055
 8468SOL     OW25973   2.637   0.049   1.214 -0.2121 -0.1667 -0.1387
 8468SOL    HW125974   2.653  -0.030   1.162  2.1783  0.8666 -1.1081
 8468SOL    HW225975   2.666   0.121   1.158 -1.0963  1.3238  1.2339
 8469SOL     OW25976   2.139   0.974   2.727 -0.0029  0.6398  0.1659
 8469SOL    HW125977   2.172   0.905   2.670 -0.3695  0.8039 -0.2480
 8469SOL    HW225978   2.146   0.937   2.815 -0.4512 -0.0346 -0.0697
 8470SOL     OW25979   2.928   6.917   0.936 -0.0489 -0.2194 -0.3103
 8470SOL    HW125980   2.942   6.876   0.851 -2.1383 -2.9925  0.5227
 8470SOL    HW225981   2.994   6.878   0.993 -0.6318 -0.7547  0.0059
 8471SOL     OW25982   2.222   0.614   1.886 -0.0935  0.1044 -0.5519
 8471SOL    HW125983   2.183   0.552   1.948  1.2469  0.7441  1.0029
 8471SOL    HW225984   2.306   0.574   1.862  1.0700  1.4826  0.9261
 8472SOL     OW25985   5.910   3.839   1.747  0.2770  0.2578  0.0978
 8472SOL    HW125986   5.822   3.817   1.718  0.4581  0.9029 -0.9984
 8472SOL    HW225987   5.899   3.919   1.798  0.1976  0.1945  0.1798
 8473SOL     OW25988   0.599   6.481   5.026 -0.1728 -0.0118 -0.0890
 8473SOL    HW125989   0.686   6.445   5.009 -0.4505  0.1274 -2.0222
 8473SOL    HW225990   0.616   6.562   5.074  0.7333 -0.1425 -0.1635
 8474SOL     OW25991   5.154   2.569   6.729 -0.2401 -0.6944  0.0821
 8474SOL    HW125992   5.090   2.530   6.669 -1.5163  0.1168  0.8770
 8474SOL    HW225993   5.102   2.613   6.795  1.1504 -0.6300  1.1905
 8475SOL     OW25994   7.116   6.765   3.299 -0.5605  0.5527 -0.1721
 8475SOL    HW125995   7.088   6.688   3.250 -0.3962  0.2794  0.1554
 8475SOL    HW225996   7.072   6.757   3.384  0.6526 -0.0051  0.4353
 8476SOL     OW25997   5.230   5.186   5.949 -0.7459 -0.2009  0.1673
 8476SOL    HW125998   5.163   5.150   6.007  1.8639 -3.8082  1.2719
 8476SOL    HW225999   5.305   5.201   6.005 -0.0754  2.4179 -1.2732
 8477SOL     OW26000   1.134   3.142   3.759  0.0381  0.7232  0.1227
 8477SOL    HW126001   1.134   3.048   3.776  0.7592  0.8657  0.9341
 8477SOL    HW226002   1.119   3.148   3.664 -0.3803 -0.1879  0.1131
 8478SOL     OW26003   6.014   2.371   2.026  0.4667 -0.4055  0.3590
 8478SOL    HW126004   5.960   2.301   2.061 -0.1027 -0.1508  0.0051
 8478SOL    HW226005   6.099   2.360   2.068  0.7719 -2.0832 -0.6238
 8479SOL     OW26006   4.250   2.599   2.918 -0.8273 -0.4170  0.1710
 8479SOL    HW126007   4.238   2.653   2.840  1.8376 -0.1395 -0.1083
 8479SOL    HW226008   4.195   2.522   2.903 -3.0774  1.1792 -0.3454
 8480SOL     OW26009   1.187   4.943   6.846 -0.7737  0.2492  0.0246
 8480SOL    HW126010   1.271   4.986   6.830 -0.8465  0.4348  0.1379
 8480SOL    HW226011   1.134   4.963   6.769  0.4417 -2.8210 -1.8136
 8481SOL     OW26012   5.926   5.766   5.630  0.2859 -0.3527 -0.1730
 8481SOL    HW126013   5.871   5.706   5.680  1.1344 -2.3786 -1.5285
 8481SOL    HW226014   5.983   5.807   5.695 -2.6284  1.7819  1.2689
 8482SOL     OW26015   7.023   3.216   2.428  0.0929 -0.1220 -0.8930
 8482SOL    HW126016   6.931   3.197   2.446 -0.1479  0.6678 -1.2319
 8482SOL    HW226017   7.053   3.262   2.506  0.5742 -1.5169 -0.2267
 8483SOL     OW26018   6.454   0.513   4.728 -0.2012 -0.4188  0.1948
 8483SOL    HW126019   6.389   0.474   4.669  0.2975 -0.4979 -0.3061
 8483SOL    HW226020   6.454   0.606   4.707  3.6149 -0.9947 -3.6620
 8484SOL     OW26021   1.634   2.090   0.473 -0.1395 -0.1954 -0.5697
 8484SOL    HW126022   1.669   2.020   0.418 -0.7467  0.0914 -1.3417
 8484SOL    HW226023   1.613   2.047   0.556  2.0084 -0.3730 -0.0654
 8485SOL     OW26024   5.455   4.592   5.991 -0.0450  0.7095 -0.8933
 8485SOL    HW126025   5.447   4.681   5.958 -1.9632  1.4066  1.1344
 8485SOL    HW226026   5.382   4.583   6.054 -0.2411 -2.4575 -1.3780
 8486SOL     OW26027   2.511   1.011   1.853 -0.1472  0.4049  0.3505
 8486SOL    HW126028   2.531   0.919   1.871 -2.3291 -0.0327  0.7710
 8486SOL    HW226029   2.591   1.046   1.813  0.7847 -1.6159  0.3630
 8487SOL     OW26030   0.409   0.820   6.886 -0.0101  0.0516  0.1036
 8487SOL    HW126031   0.391   0.909   6.918  0.0928  0.3736 -0.7057
 8487SOL    HW226032   0.348   0.764   6.934  0.5149  0.4381  1.2692
 8488SOL     OW26033   2.966   5.249   0.805 -0.5256  0.1850  0.2507
 8488SOL    HW126034   2.966   5.158   0.835 -0.3578 -0.2246 -0.9274
 8488SOL    HW226035   3.010   5.247   0.720  0.1068  1.4854  0.5166
 8489SOL     OW26036   5.752   0.293   1.865  0.1177 -0.3969 -0.4989
 8489SOL    HW126037   5.796   0.363   1.817  3.0462 -0.4150  1.8620
 8489SOL    HW226038   5.661   0.320   1.870  0.8782  2.5407 -0.8685
 8490SOL     OW26039   1.136   1.688   3.226  0.2630 -0.1554  0.5133
 8490SOL    HW126040   1.096   1.666   3.141 -0.6898  1.0094  0.6367
 8490SOL    HW226041   1.168   1.777   3.215 -1.4847  0.6892  1.9075
 8491SOL     OW26042   6.438   0.708   1.649 -0.8938 -0.5458  0.1250
 8491SOL    HW126043   6.402   0.706   1.561  0.0024 -0.5667 -0.2444
 8491SOL    HW226044   6.419   0.797   1.680 -0.6898 -0.3539 -0.3021
 8492SOL     OW26045   4.702   2.952   3.330  0.1798 -0.3037 -0.2912
 8492SOL    HW126046   4.679   3.033   3.284  0.3665  0.8763  1.5772
 8492SOL    HW226047   4.748   2.900   3.264  1.3808  1.7399 -1.1885
 8493SOL     OW26048   5.826   1.899   3.358  0.1452  0.1290 -0.3462
 8493SOL    HW126049   5.743   1.933   3.322  0.6940 -0.8058 -2.6875
 8493SOL    HW226050   5.831   1.936   3.446 -2.2544  1.0498 -0.5202
 8494SOL     OW26051   0.735   1.974   3.824 -0.3413  0.2148 -0.4474
 8494SOL    HW126052   0.772   1.968   3.912 -0.4407 -1.2145 -0.4812
 8494SOL    HW226053   0.750   2.065   3.798  1.1705  0.2438  0.4017
 8495SOL     OW26054   1.192   3.373   7.409  0.3985 -0.4532  0.0333
 8495SOL    HW126055   1.276   3.400   7.374  0.1015  1.0139  0.3899
 8495SOL    HW226056   1.175   3.288   7.368  2.3990 -1.1606  0.5584
 8496SOL     OW26057   0.120   2.815   7.120 -0.0812 -0.8693  0.4504
 8496SOL    HW126058   0.041   2.815   7.065 -0.9426  1.0843  1.5593
 8496SOL    HW226059   0.086   2.819   7.209  1.2397  0.3850  0.9321
 8497SOL     OW26060   4.490   1.922   3.044  0.3316 -0.1047  0.5451
 8497SOL    HW126061   4.565   1.900   2.989 -0.6122 -1.5766 -0.2351
 8497SOL    HW226062   4.519   1.997   3.095  2.0709 -0.1724 -0.2560
 8498SOL     OW26063   7.015   5.748   3.843  0.0390 -0.3123  0.0714
 8498SOL    HW126064   6.927   5.785   3.839  0.6348  1.1865  0.1618
 8498SOL    HW226065   7.059   5.782   3.765  0.6715 -0.6982  0.2489
 8499SOL     OW26066   5.584   3.334   2.774 -0.2758 -0.0195 -0.3975
 8499SOL    HW126067   5.502   3.320   2.725  0.9526 -0.5129 -2.4320
 8499SOL    HW226068   5.556   3.348   2.864 -2.6275  0.1629 -1.0921
 8500SOL     OW26069   7.374   3.297   6.984  0.0273  0.0170 -0.0306
 8500SOL    HW126070   7.313   3.370   6.996  0.0778  0.0924 -0.2370
 8500SOL    HW226071   7.456   3.329   7.021  0.1237  0.1680 -0.3744
 8501SOL     OW26072   2.231   1.598   0.012 -0.4105 -0.5170  0.3721
 8501SOL    HW126073   2.215   1.553   0.095  2.1266 -1.1885  0.5839
 8501SOL    HW226074   2.190   1.541  -0.054 -2.0481 -0.2077  1.0913
 8502SOL     OW26075   3.380   4.657   4.521  0.1918  0.5315  0.0009
 8502SOL    HW126076   3.408   4.565   4.513 -0.1838  0.3775  0.4294
 8502SOL    HW226077   3.462   4.706   4.525  0.4037  0.1530  0.4656
 8503SOL     OW26078   1.714   7.299   5.610  0.4092  0.3773  0.0347
 8503SOL    HW126079   1.650   7.368   5.594  1.6738  1.0176 -2.9960
 8503SOL    HW226080   1.666   7.218   5.596  0.2964  0.8586 -3.0778
 8504SOL     OW26081   7.378   6.228   2.212  0.0738  0.1098 -0.0975
 8504SOL    HW126082   7.283   6.229   2.226  0.1495 -1.4759  0.7501
 8504SOL    HW226083   7.398   6.137   2.192  1.3004  0.6131 -1.2976
 8505SOL     OW26084   4.293   4.975   5.763 -0.5156 -0.0375  0.3505
 8505SOL    HW126085   4.250   4.909   5.709  0.5619 -0.1273 -0.4392
 8505SOL    HW226086   4.266   5.059   5.726 -0.5678 -0.0771  0.2985
 8506SOL     OW26087   0.060   2.590   4.945  0.3203  0.4568  0.6926
 8506SOL    HW126088   0.034   2.599   4.853 -0.6464  1.5619  1.0475
 8506SOL    HW226089   0.133   2.651   4.955 -1.1645  2.2836  1.1973
 8507SOL     OW26090   3.606   1.858   1.202 -0.0645  0.0061  0.3293
 8507SOL    HW126091   3.626   1.786   1.143  3.2241 -1.3697  2.7731
 8507SOL    HW226092   3.688   1.909   1.206 -1.2141  1.8939  1.2649
 8508SOL     OW26093   5.086   6.942   6.150 -0.0696  0.0271 -0.6733
 8508SOL    HW126094   5.114   6.853   6.130  2.7030 -0.1040  2.8261
 8508SOL    HW226095   5.001   6.932   6.193  0.6864 -1.1371  0.6354
 8509SOL     OW26096   1.160   2.492   5.488  0.3739 -0.0027 -0.5481
 8509SOL    HW126097   1.118   2.452   5.412 -0.5991 -1.4550  0.6746
 8509SOL    HW226098   1.234   2.434   5.508  1.7062  1.3395 -1.3804
 8510SOL     OW26099   0.322   0.299   3.291 -0.0420  0.0548  0.9134
 8510SOL    HW126100   0.279   0.381   3.314  0.4415  0.3050  0.9166
 8510SOL    HW226101   0.346   0.308   3.199 -1.5938 -0.7835  0.3821
 8511SOL     OW26102   4.172   7.123   3.326  0.2789 -0.0846 -0.7588
 8511SOL    HW126103   4.139   7.177   3.254 -0.5574 -0.8018 -0.9402
 8511SOL    HW226104   4.229   7.059   3.283 -0.8010 -0.9776 -0.9052
 8512SOL     OW26105   0.129   1.587   0.155 -0.6090 -0.3816 -0.3873
 8512SOL    HW126106   0.117   1.547   0.241 -1.3042  1.8362  0.6288
 8512SOL    HW226107   0.067   1.542   0.098  0.4023 -2.4066  0.0465
 8513SOL     OW26108   0.740   7.376   3.403 -0.1473  0.4113 -0.0653
 8513SOL    HW126109   0.760   7.465   3.375  0.2017 -0.1450 -1.6523
 8513SOL    HW226110   0.645   7.371   3.401 -0.2129  0.9975  0.8870
 8514SOL     OW26111   3.996   2.226   6.772  0.5849 -0.0159  0.4378
 8514SOL    HW126112   4.011   2.311   6.813  0.4834  0.2710 -0.1070
 8514SOL    HW226113   3.979   2.166   6.845 -0.6101  0.6800  0.7563
 8515SOL     OW26114   5.754   1.627   0.727  0.0752  0.3366  0.1030
 8515SOL    HW126115   5.783   1.718   0.737  0.1776  0.3216 -0.0409
 8515SOL    HW226116   5.835   1.576   0.730  0.1630  0.3701 -1.2163
 8516SOL     OW26117   5.739   6.407   4.071 -0.1305 -0.1064  0.2189
 8516SOL    HW126118   5.651   6.386   4.102  0.0631 -1.1897  0.0790
 8516SOL    HW226119   5.725   6.455   3.990 -0.6101  1.1296  1.0126
 8517SOL     OW26120   0.740   3.935   2.358  0.4573 -0.1935  0.5867
 8517SOL    HW126121   0.789   3.893   2.288  0.2805 -1.4505  1.1905
 8517SOL    HW226122   0.741   3.872   2.430 -0.3100  0.6038  1.3281
 8518SOL     OW26123   1.849   1.559   2.296  0.0179  0.0238 -0.0105
 8518SOL    HW126124   1.892   1.588   2.377  0.4486  0.3830 -0.3567
 8518SOL    HW226125   1.832   1.641   2.248 -0.0723 -0.1975 -0.3567
 8519SOL     OW26126   2.536   4.066   5.461 -0.0202  0.4262 -0.4682
 8519SOL    HW126127   2.595   4.134   5.429 -0.5826  1.3238  0.3517
 8519SOL    HW226128   2.466   4.114   5.506 -1.3135 -0.6280 -1.3076
 8520SOL     OW26129   7.350   1.460   2.461  0.3997 -0.3827 -0.1126
 8520SOL    HW126130   7.319   1.537   2.413 -0.3282  0.2294  1.2554
 8520SOL    HW226131   7.442   1.453   2.439  0.7829  1.6203  0.6362
 8521SOL     OW26132   2.992   1.355   7.187  0.6490  0.4504 -0.2425
 8521SOL    HW126133   2.987   1.432   7.244 -2.0050 -0.8363  1.4766
 8521SOL    HW226134   3.082   1.324   7.196  1.3659  2.4765  0.1654
 8522SOL     OW26135   5.863   0.663   6.486  0.3241 -0.4238  0.1299
 8522SOL    HW126136   5.905   0.729   6.541  3.3677 -2.5281  0.5574
 8522SOL    HW226137   5.891   0.685   6.397  2.0640 -1.5167  0.3595
 8523SOL     OW26138   1.721   3.704   6.237  0.5504  0.3272 -0.2626
 8523SOL    HW126139   1.756   3.615   6.230 -2.2318 -0.8111 -1.0487
 8523SOL    HW226140   1.673   3.718   6.156 -1.0306  1.6312  0.8244
 8524SOL     OW26141   4.397   3.620   2.324  0.0397 -0.3464 -0.1432
 8524SOL    HW126142   4.458   3.549   2.344 -0.7187 -0.9823 -0.0590
 8524SOL    HW226143   4.345   3.630   2.404 -0.5452 -0.3990 -0.5147
 8525SOL     OW26144   6.381   6.733   0.176  0.1760 -0.2177 -0.3589
 8525SOL    HW126145   6.403   6.698   0.090  0.5787 -0.1322 -0.2898
 8525SOL    HW226146   6.304   6.788   0.160  1.0194  0.8319 -0.8971
 8526SOL     OW26147   2.090   2.400   4.792  0.7793 -0.0711  0.3411
 8526SOL    HW126148   2.084   2.307   4.773  0.4792  0.0865 -0.3507
 8526SOL    HW226149   2.027   2.414   4.863  0.8435 -0.3980  0.4624
 8527SOL     OW26150   0.976   2.974   2.835  0.0433  0.1999 -0.7538
 8527SOL    HW126151   1.061   2.933   2.849 -0.2771  0.0980  1.1662
 8527SOL    HW226152   0.926   2.952   2.913 -1.9111 -0.0879 -2.0224
 8528SOL     OW26153   4.061   1.326   0.301  0.0390  0.1075 -1.0742
 8528SOL    HW126154   4.143   1.296   0.340 -0.0425  1.5163  0.2471
 8528SOL    HW226155   4.087   1.371   0.221  0.2607 -2.1920 -2.3820
 8529SOL     OW26156   5.287   4.799   2.413  0.0353  0.0366  0.2391
 8529SOL    HW126157   5.340   4.860   2.361 -2.2144  1.1284 -0.8813
 8529SOL    HW226158   5.287   4.719   2.361  0.2861  0.1350  0.0814
 8530SOL     OW26159   6.767   4.910   4.618 -0.3701  0.1853 -0.5794
 8530SOL    HW126160   6.785   4.818   4.639 -0.5708 -0.0982 -1.6291
 8530SOL    HW226161   6.773   4.955   4.703 -1.1096 -0.9182  0.0865
 8531SOL     OW26162   3.202   6.096   4.980 -0.3811 -0.0948  0.3516
 8531SOL    HW126163   3.111   6.105   4.953 -2.1339 -2.3426  4.5666
 8531SOL    HW226164   3.216   6.168   5.042 -0.4035 -1.4234  1.9790
 8532SOL     OW26165   2.458   3.114   1.810 -0.6328 -0.6175 -0.0048
 8532SOL    HW126166   2.413   3.153   1.885 -0.0583 -1.6581  0.9012
 8532SOL    HW226167   2.461   3.020   1.829  1.7215 -0.6188 -0.1097
 8533SOL     OW26168   1.091   2.154   4.092 -0.1640  0.5601  0.5159
 8533SOL    HW126169   1.002   2.134   4.061  0.6196 -1.0752 -0.8307
 8533SOL    HW226170   1.106   2.092   4.163  0.0368  0.5596  0.4742
 8534SOL     OW26171   5.251   5.015   5.306  0.0789  0.1640 -0.4471
 8534SOL    HW126172   5.226   5.096   5.262 -1.5179 -1.8508 -3.6438
 8534SOL    HW226173   5.331   4.987   5.260  1.2291  0.3877  1.3427
 8535SOL     OW26174   5.979   3.677   5.711 -0.0396  0.0221  0.1981
 8535SOL    HW126175   6.044   3.655   5.777  1.7434  1.4829 -0.9642
 8535SOL    HW226176   5.929   3.597   5.698  1.6739 -1.2356  1.0035
 8536SOL     OW26177   5.584   5.240   5.338 -0.3858 -0.0928 -0.3354
 8536SOL    HW126178   5.633   5.229   5.257  0.2761  0.9097 -0.0807
 8536SOL    HW226179   5.493   5.220   5.314 -0.3675  1.1630 -1.5715
 8537SOL     OW26180   5.159   6.811   0.557 -0.1654  0.7362  0.2791
 8537SOL    HW126181   5.100   6.859   0.498  0.1154  0.2835 -0.3762
 8537SOL    HW226182   5.244   6.813   0.514  0.5302  2.0929  1.6015
 8538SOL     OW26183   2.176   2.095   0.842 -0.1281 -0.1971  0.1350
 8538SOL    HW126184   2.266   2.063   0.846 -0.0122 -0.0596 -1.0259
 8538SOL    HW226185   2.153   2.113   0.933  0.4257 -1.8344  0.6405
 8539SOL     OW26186   6.971   1.953   4.607  0.1664 -0.0766 -0.1541
 8539SOL    HW126187   7.065   1.934   4.609 -0.0396 -1.9714 -2.6616
 8539SOL    HW226188   6.965   2.045   4.583  1.3506  0.3882  1.2318
 8540SOL     OW26189   4.625   2.173   2.002 -0.3589  0.4966  0.4427
 8540SOL    HW126190   4.597   2.223   2.079 -1.7336 -0.1732  0.4151
 8540SOL    HW226191   4.670   2.237   1.947  1.0317  0.9061  1.9682
 8541SOL     OW26192   2.123   4.288   1.173  0.2543  0.2913 -0.2068
 8541SOL    HW126193   2.143   4.213   1.228 -1.8905 -0.5469 -0.4718
 8541SOL    HW226194   2.094   4.356   1.234 -2.2708 -0.6867 -0.2112
 8542SOL     OW26195   4.871   0.444   3.358 -0.0515 -0.3859 -0.5574
 8542SOL    HW126196   4.892   0.439   3.265 -0.6859  1.5177 -0.8427
 8542SOL    HW226197   4.952   0.471   3.400  0.1274 -0.8544 -0.5919
 8543SOL     OW26198   5.459   0.822   6.582  0.3178 -0.1841  0.0451
 8543SOL    HW126199   5.397   0.824   6.655 -0.9130  0.4410 -0.9949
 8543SOL    HW226200   5.523   0.890   6.604 -1.7829  2.2511 -0.8771
 8544SOL     OW26201   2.193   4.281   5.809 -0.4572 -0.5409 -0.0134
 8544SOL    HW126202   2.152   4.356   5.853  0.6682  0.3491 -0.4251
 8544SOL    HW226203   2.125   4.213   5.808 -0.9137 -0.1621  1.9745
 8545SOL     OW26204   5.297   0.847   3.793 -0.6830  0.4226 -0.1137
 8545SOL    HW126205   5.248   0.906   3.851  2.0293  1.1644  1.6198
 8545SOL    HW226206   5.331   0.903   3.724  0.9622  0.7422  0.9111
 8546SOL     OW26207   2.697   3.665   5.243 -0.6340  0.3049  0.2937
 8546SOL    HW126208   2.740   3.743   5.278 -0.6319 -0.0285  1.0678
 8546SOL    HW226209   2.730   3.594   5.297  0.3529 -0.4291 -1.2265
 8547SOL     OW26210   3.222   1.138   1.175  0.3943 -0.2942 -0.0843
 8547SOL    HW126211   3.238   1.106   1.264 -1.7093 -0.1508  0.4157
 8547SOL    HW226212   3.140   1.188   1.183  1.2119  1.3873 -1.7365
 8548SOL     OW26213   6.966   1.000   5.223  0.0153  0.0212  0.2208
 8548SOL    HW126214   6.963   1.002   5.319  2.5619 -3.0365  0.5580
 8548SOL    HW226215   6.877   0.981   5.196 -0.7432  0.9254  1.9691
 8549SOL     OW26216   6.100   4.973   7.251 -0.5850 -0.4776 -0.4423
 8549SOL    HW126217   6.013   4.970   7.291 -1.1620 -1.3041 -1.7020
 8549SOL    HW226218   6.089   4.930   7.167  1.1790 -1.0974 -0.3894
 8550SOL     OW26219   1.764   3.309   0.922 -0.7478  0.6034  0.0711
 8550SOL    HW126220   1.767   3.391   0.972 -0.9226  1.2415 -0.9364
 8550SOL    HW226221   1.783   3.241   0.987  4.1467  1.7039  0.1749
 8551SOL     OW26222   3.884   2.874   0.070 -0.5410  0.3802  0.0551
 8551SOL    HW126223   3.905   2.817   0.144 -0.5652  0.1196 -0.1389
 8551SOL    HW226224   3.962   2.871   0.015 -0.3420  0.9424  0.3015
 8552SOL     OW26225   0.514   0.708   6.677 -0.1059  0.2495 -0.8341
 8552SOL    HW126226   0.458   0.739   6.606 -1.7952 -0.0349  0.2980
 8552SOL    HW226227   0.485   0.758   6.754  0.0866 -1.0546  0.1250
 8553SOL     OW26228   1.080   5.386   0.519 -0.3456 -0.1705  0.3199
 8553SOL    HW126229   1.145   5.322   0.549  0.1298 -0.6029 -1.4710
 8553SOL    HW226230   1.117   5.419   0.437 -1.1599  1.5405  0.6203
 8554SOL     OW26231   4.635   4.490   3.569  0.1091  0.2199  0.3385
 8554SOL    HW126232   4.572   4.418   3.558 -0.9396  1.0696  0.5758
 8554SOL    HW226233   4.610   4.530   3.653  0.3576  1.1690 -0.0307
 8555SOL     OW26234   6.979   0.722   0.223  0.1144 -0.2753  0.9741
 8555SOL    HW126235   6.983   0.634   0.259 -2.9873 -2.2235 -2.7610
 8555SOL    HW226236   7.045   0.722   0.154  0.5629  0.6287  1.3847
 8556SOL     OW26237   1.187   1.532   2.722  0.1818 -0.2783  0.5445
 8556SOL    HW126238   1.210   1.449   2.680 -0.0317 -0.9463  1.7272
 8556SOL    HW226239   1.127   1.574   2.660 -0.6334 -1.5417  0.4461
 8557SOL     OW26240   4.992   0.655   3.907  0.3103  0.1261 -0.4222
 8557SOL    HW126241   4.952   0.733   3.868 -2.3725  0.5881  2.8036
 8557SOL    HW226242   4.999   0.593   3.835 -1.4898  1.8735 -2.2297
 8558SOL     OW26243   0.841   2.744   4.242  0.2264 -0.2206  0.4342
 8558SOL    HW126244   0.811   2.827   4.278 -0.1324  0.0134 -0.3868
 8558SOL    HW226245   0.772   2.682   4.267  0.9291 -0.4861  1.8349
 8559SOL     OW26246   7.130   3.221   5.984  1.0293  0.0297  0.5342
 8559SOL    HW126247   7.119   3.126   5.989 -0.0881  0.0846 -0.5368
 8559SOL    HW226248   7.065   3.256   6.044 -3.6285  0.2625 -3.9745
 8560SOL     OW26249   1.312   1.717   1.940  0.3380 -0.0202  0.2003
 8560SOL    HW126250   1.292   1.724   1.846 -0.6643  1.2812  0.4772
 8560SOL    HW226251   1.353   1.632   1.949  2.2657  0.6004 -1.7495
 8561SOL     OW26252   5.182   1.060   5.855 -0.4661  0.1202 -0.3651
 8561SOL    HW126253   5.151   1.017   5.775  0.1852 -0.3781 -0.3592
 8561SOL    HW226254   5.212   1.146   5.826  1.0000 -0.5476 -0.8979
 8562SOL     OW26255   5.922   2.325   2.917 -0.7679  0.0149  0.1852
 8562SOL    HW126256   5.990   2.322   2.850 -1.9508 -0.3293 -1.0447
 8562SOL    HW226257   5.862   2.395   2.889 -0.8108  0.4953  1.3802
 8563SOL     OW26258   0.919   1.603   4.033 -0.8049  0.1863 -0.7160
 8563SOL    HW126259   0.826   1.600   4.057 -0.5841 -0.3382  0.1091
 8563SOL    HW226260   0.924   1.670   3.965 -1.5034  1.4780  0.4630
 8564SOL     OW26261   6.634   5.839   4.204  0.4855 -0.6614  0.3526
 8564SOL    HW126262   6.670   5.844   4.293 -0.5838  0.9938  0.7385
 8564SOL    HW226263   6.552   5.889   4.209  0.1722 -0.9378 -1.4618
 8565SOL     OW26264   4.081   6.553   4.694 -0.0328 -0.7117 -0.5470
 8565SOL    HW126265   4.011   6.536   4.758  1.2900 -0.4614  1.0458
 8565SOL    HW226266   4.138   6.477   4.701  1.2949  0.2979  0.2431
 8566SOL     OW26267   4.540   4.178   3.769 -0.0949  0.1446 -0.6127
 8566SOL    HW126268   4.615   4.148   3.717 -0.0619 -2.8860  0.9785
 8566SOL    HW226269   4.576   4.246   3.826  1.5484 -1.3907  0.2577
 8567SOL     OW26270   6.065   4.829   6.996  0.2937  0.1131 -0.2461
 8567SOL    HW126271   6.031   4.829   6.907 -0.4181  0.2269  0.0217
 8567SOL    HW226272   6.149   4.784   6.990 -1.4498 -3.4901 -0.3277
 8568SOL     OW26273   5.586   6.797   1.150  0.4881  0.2184  0.4437
 8568SOL    HW126274   5.509   6.834   1.108  1.1694 -0.0420 -1.1250
 8568SOL    HW226275   5.567   6.704   1.160  1.4590 -0.3894 -2.2771
 8569SOL     OW26276   5.512   2.196   1.643  0.2618 -0.1015  0.3139
 8569SOL    HW126277   5.580   2.185   1.577  0.9001 -0.1486  0.9677
 8569SOL    HW226278   5.451   2.124   1.626  1.0019 -0.7877  0.4578
 8570SOL     OW26279   2.851   3.020   3.551  0.1160 -0.1626  0.4157
 8570SOL    HW126280   2.794   2.966   3.604 -0.1974  0.9135  1.2092
 8570SOL    HW226281   2.939   3.000   3.583 -0.0601  0.3748  1.2558
 8571SOL     OW26282   0.982   3.516   1.344  0.2674  0.0153 -0.2440
 8571SOL    HW126283   0.947   3.476   1.264  0.5826  0.3671 -0.5623
 8571SOL    HW226284   0.939   3.468   1.415  0.2410 -0.5363 -0.6205
 8572SOL     OW26285   0.121   6.993   5.514 -0.0750  0.2898 -0.3829
 8572SOL    HW126286   0.138   7.018   5.423 -0.4375  1.2853 -0.1828
 8572SOL    HW226287   0.076   6.908   5.507  1.6016 -0.5840 -1.0433
 8573SOL     OW26288   6.983   5.224   4.789  0.2380 -0.0170  0.3066
 8573SOL    HW126289   7.018   5.171   4.717 -1.8193 -1.3056  0.1916
 8573SOL    HW226290   6.944   5.301   4.746  0.8043  0.2440  0.2465
 8574SOL     OW26291   3.743   4.471   6.672 -0.1964  0.0283  0.0748
 8574SOL    HW126292   3.760   4.385   6.709  0.8560 -0.1099 -0.6806
 8574SOL    HW226293   3.745   4.457   6.577 -2.1758  0.4883 -0.0880
 8575SOL     OW26294   5.379   2.205   2.739  0.0593  0.3684 -0.1046
 8575SOL    HW126295   5.379   2.290   2.783  0.6093  1.2734 -1.7810
 8575SOL    HW226296   5.316   2.215   2.668  0.4971 -0.4658 -0.6206
 8576SOL     OW26297   2.357   2.698   5.254 -0.5216 -0.0503 -0.7032
 8576SOL    HW126298   2.451   2.715   5.258 -0.2005 -1.7165 -0.2355
 8576SOL    HW226299   2.339   2.678   5.162 -0.1248 -1.1193 -0.5605
 8577SOL     OW26300   7.220   3.697   3.122 -0.4078 -0.4870  0.3220
 8577SOL    HW126301   7.147   3.726   3.176  1.7220  0.9558  2.6520
 8577SOL    HW226302   7.216   3.602   3.125 -1.6685 -0.4280  1.1045
 8578SOL     OW26303   2.324   1.738   2.729 -0.0458 -0.0623  0.3251
 8578SOL    HW126304   2.239   1.693   2.730  0.1647 -0.4774  1.1222
 8578SOL    HW226305   2.319   1.799   2.803  0.3404 -0.0839  0.3706
 8579SOL     OW26306   3.766   5.537   1.405  0.0362  0.4477  0.3862
 8579SOL    HW126307   3.823   5.467   1.438 -0.8530 -1.4809 -1.8861
 8579SOL    HW226308   3.678   5.506   1.426 -0.3329  2.2543  1.7269
 8580SOL     OW26309   6.709   1.748   5.378 -0.0523  0.0191 -0.0760
 8580SOL    HW126310   6.749   1.781   5.298 -1.2746  1.1874 -0.2351
 8580SOL    HW226311   6.615   1.750   5.360 -0.3063 -0.4203  1.1255
 8581SOL     OW26312   0.271   4.695   1.444  0.2953 -0.0177  0.4751
 8581SOL    HW126313   0.355   4.737   1.463 -0.1317  0.4272  1.4759
 8581SOL    HW226314   0.236   4.744   1.369  1.3130 -0.7873 -0.5361
 8582SOL     OW26315   4.665   4.753   1.301 -0.4056 -0.3421 -0.0409
 8582SOL    HW126316   4.587   4.756   1.356 -0.1191 -3.2946  0.6836
 8582SOL    HW226317   4.654   4.674   1.248  0.9419  0.5541 -1.7556
 8583SOL     OW26318   1.107   6.087   6.520  0.0120 -0.0489  0.1030
 8583SOL    HW126319   1.143   6.173   6.496  0.7291 -0.5710 -0.7401
 8583SOL    HW226320   1.067   6.102   6.606 -0.0572  1.1765 -0.1112
 8584SOL     OW26321   4.773   4.124   2.442  0.0319  0.0478 -0.5799
 8584SOL    HW126322   4.842   4.185   2.419  1.0001 -1.4235 -1.7698
 8584SOL    HW226323   4.777   4.117   2.538 -0.3211  2.0371 -0.3905
 8585SOL     OW26324   4.780   7.327   4.233  0.0613  0.1732  0.3251
 8585SOL    HW126325   4.837   7.294   4.302  1.6093 -0.6664 -1.2697
 8585SOL    HW226326   4.840   7.360   4.166 -1.2725 -0.9870 -1.5453
 8586SOL     OW26327   4.967   4.963   4.567 -0.5459 -0.6111  0.2271
 8586SOL    HW126328   4.992   4.994   4.480  1.4225 -1.3312  0.4878
 8586SOL    HW226329   4.976   5.039   4.624  2.5066 -1.0777  0.5426
 8587SOL     OW26330   4.613   5.788   6.918  0.2897 -0.0186 -0.3051
 8587SOL    HW126331   4.622   5.733   6.841  0.0484 -0.4492 -0.0276
 8587SOL    HW226332   4.637   5.732   6.992 -0.6120  0.0322  0.0431
 8588SOL     OW26333   5.995   0.747   5.613 -0.3484  0.1152 -0.4664
 8588SOL    HW126334   6.019   0.719   5.525  2.2279 -0.5915  0.3835
 8588SOL    HW226335   5.960   0.669   5.655  0.6629 -0.1900 -0.1573
 8589SOL     OW26336   7.319   6.249   5.381  0.4144  0.0515  0.2226
 8589SOL    HW126337   7.259   6.315   5.414 -0.1283 -0.7346  0.8580
 8589SOL    HW226338   7.405   6.292   5.382 -0.1894  1.3666 -1.2265
 8590SOL     OW26339   5.646   5.985   0.380  0.1884 -0.0126 -0.1245
 8590SOL    HW126340   5.704   5.984   0.456  0.1152 -2.0744 -0.0319
 8590SOL    HW226341   5.698   6.026   0.311  0.9234  0.2114  0.5429
 8591SOL     OW26342   2.507   6.975   7.267  0.1319  0.0313 -0.0743
 8591SOL    HW126343   2.500   6.891   7.311 -0.2270  0.2632  0.3224
 8591SOL    HW226344   2.595   6.976   7.230 -0.6026 -1.4999 -2.0815
 8592SOL     OW26345   5.187   2.780   5.714  0.4188  0.6257 -0.0201
 8592SOL    HW126346   5.267   2.802   5.667 -1.1247  1.1619 -2.6142
 8592SOL    HW226347   5.192   2.685   5.727  1.5898  0.7000  0.1631
 8593SOL     OW26348   3.919   3.836   0.658  0.8334 -0.4694 -0.5124
 8593SOL    HW126349   3.918   3.752   0.705  0.3374  1.2157  2.7774
 8593SOL    HW226350   3.972   3.893   0.713 -0.7851  2.0451 -1.4079
 8594SOL     OW26351   2.666   6.483   0.112  0.2554 -0.6546  0.0760
 8594SOL    HW126352   2.651   6.504   0.204 -1.7896  2.6270 -0.8445
 8594SOL    HW226353   2.621   6.399   0.100 -0.7712 -0.4172  1.7730
 8595SOL     OW26354   4.364   6.271   1.297  0.1400  0.2300 -0.6172
 8595SOL    HW126355   4.368   6.179   1.325  0.0058  1.0484  2.4381
 8595SOL    HW226356   4.455   6.295   1.281  0.1350 -0.5339 -1.8585
 8596SOL     OW26357   7.120   2.947   6.953 -0.4542 -0.1074 -0.1732
 8596SOL    HW126358   7.075   2.930   6.870  0.9399  1.6384 -1.3743
 8596SOL    HW226359   7.063   2.909   7.020 -1.0806 -2.5926 -1.9735
 8597SOL     OW26360   1.223   4.429   2.928  0.6040 -0.0423 -0.3833
 8597SOL    HW126361   1.277   4.363   2.885  1.0834 -0.3466  0.6381
 8597SOL    HW226362   1.186   4.383   3.004  0.7405  0.7999  0.2067
 8598SOL     OW26363   3.709   1.950   4.840  0.1832  0.3827 -0.1105
 8598SOL    HW126364   3.681   1.909   4.921 -0.2156 -2.1960 -1.4538
 8598SOL    HW226365   3.793   1.991   4.861  0.5926 -1.1229  1.3402
 8599SOL     OW26366   2.450   2.425   1.269  0.8652 -0.4494 -0.1894
 8599SOL    HW126367   2.355   2.432   1.276  0.9647  0.3919  0.5441
 8599SOL    HW226368   2.474   2.359   1.333  1.0298  1.5927  1.9983
 8600SOL     OW26369   4.208   6.536   0.848  0.5089 -0.2297  0.1321
 8600SOL    HW126370   4.297   6.554   0.879 -0.8693  2.5278  3.1039
 8600SOL    HW226371   4.186   6.611   0.793 -0.1723 -0.5692 -0.0674
 8601SOL     OW26372   2.553   0.625   3.676  0.3858 -0.0384  0.0067
 8601SOL    HW126373   2.596   0.621   3.761  1.3494 -2.0038 -0.5097
 8601SOL    HW226374   2.598   0.559   3.623 -1.3852 -0.1624 -1.4706
 8602SOL     OW26375   1.507   4.188   4.931  0.3083 -0.3968 -0.1317
 8602SOL    HW126376   1.487   4.198   5.024 -1.3380 -1.5131 -0.3179
 8602SOL    HW226377   1.449   4.251   4.888 -0.8569 -1.6954 -0.5240
 8603SOL     OW26378   0.732   6.108   3.666  0.6159  0.1872 -0.1102
 8603SOL    HW126379   0.698   6.061   3.590  1.1606 -1.3564  0.5450
 8603SOL    HW226380   0.654   6.142   3.710 -0.0154 -1.6731  0.3419
 8604SOL     OW26381   4.192   2.485   1.471 -0.2284  0.1245  0.4292
 8604SOL    HW126382   4.190   2.574   1.434 -1.1486  0.0308  0.2253
 8604SOL    HW226383   4.284   2.460   1.467  0.1044  1.2056  0.8134
 8605SOL     OW26384   6.335   2.600   6.279  0.1287  0.1039  0.0943
 8605SOL    HW126385   6.290   2.641   6.353 -0.9172  0.3918 -0.6825
 8605SOL    HW226386   6.385   2.671   6.238 -1.5655  0.6396 -1.1624
 8606SOL     OW26387   3.302   2.788   1.951  0.2806 -0.0034 -0.2432
 8606SOL    HW126388   3.311   2.882   1.967  2.4542 -0.0527 -0.8820
 8606SOL    HW226389   3.316   2.748   2.037  0.5375  0.2146 -0.1814
 8607SOL     OW26390   3.913   5.156   4.128 -0.0552 -0.2734  0.0408
 8607SOL    HW126391   3.986   5.205   4.091 -0.6262  0.5136 -0.0658
 8607SOL    HW226392   3.931   5.064   4.106  0.3961  0.0207 -0.8327
 8608SOL     OW26393   3.002   6.763   1.911 -0.6370 -0.1695  0.3453
 8608SOL    HW126394   2.970   6.817   1.983 -0.1363 -1.0671  1.2606
 8608SOL    HW226395   2.985   6.815   1.832 -3.2091 -0.0883  0.8701
 8609SOL     OW26396   3.800   6.892   0.305  0.2759  0.3278  0.1770
 8609SOL    HW126397   3.803   6.903   0.400  1.7073  2.1595 -0.0218
 8609SOL    HW226398   3.798   6.798   0.291 -0.9239  0.0313  2.0290
 8610SOL     OW26399   5.171   4.368   1.294 -0.3790  0.4735 -0.5891
 8610SOL    HW126400   5.149   4.315   1.217  0.2777 -0.2551 -0.2884
 8610SOL    HW226401   5.245   4.422   1.265 -2.4116  2.9537 -1.6147
 8611SOL     OW26402   6.547   1.561   6.447 -0.0856  0.5619  0.7836
 8611SOL    HW126403   6.469   1.601   6.486 -1.2464 -1.1330  0.3008
 8611SOL    HW226404   6.580   1.500   6.513 -0.4321 -0.2795  0.2003
 8612SOL     OW26405   3.805   4.921   7.239  0.2888 -0.1712  0.1058
 8612SOL    HW126406   3.870   4.851   7.236  0.9150  0.4221 -0.9980
 8612SOL    HW226407   3.842   4.986   7.298  1.9555  1.2915 -2.3869
 8613SOL     OW26408   6.477   5.529   4.746  0.4968  1.0388  0.0492
 8613SOL    HW126409   6.450   5.477   4.670 -0.2791  0.2140  0.8573
 8613SOL    HW226410   6.451   5.619   4.723  0.0591  0.7683 -0.5691
 8614SOL     OW26411   1.749   3.736   4.003  0.0533  0.0191  0.7256
 8614SOL    HW126412   1.711   3.688   4.077 -2.1149  0.0437 -0.3136
 8614SOL    HW226413   1.726   3.827   4.019  0.1622  0.1158  0.3492
 8615SOL     OW26414   0.939   4.561   4.688  0.4036  0.2768  0.1285
 8615SOL    HW126415   0.946   4.654   4.710 -0.4418  0.5660 -0.7656
 8615SOL    HW226416   1.008   4.546   4.624 -0.8979  0.8682 -1.4877
 8616SOL     OW26417   0.937   6.129   6.315 -0.2576 -0.2493 -0.7666
 8616SOL    HW126418   0.999   6.098   6.381  0.1171  0.0015 -1.0003
 8616SOL    HW226419   0.888   6.050   6.290 -0.5447 -0.3059 -0.0443
 8617SOL     OW26420   3.617   5.141   1.361 -0.1019 -0.0553 -0.2609
 8617SOL    HW126421   3.577   5.109   1.280  1.2433  0.1325 -1.0405
 8617SOL    HW226422   3.631   5.235   1.345 -0.3283  0.0929  0.4030
 8618SOL     OW26423   4.084   4.014   4.779 -0.4579  0.6211 -0.1634
 8618SOL    HW126424   4.095   3.919   4.771 -1.5119  0.4365  0.4559
 8618SOL    HW226425   4.127   4.050   4.701 -1.7244 -0.4949 -1.4297
 8619SOL     OW26426   4.371   4.614   4.337 -0.2015  0.3213  0.1350
 8619SOL    HW126427   4.295   4.576   4.294 -0.6826  1.2049  0.1737
 8619SOL    HW226428   4.336   4.653   4.417  0.7033 -1.4316  1.4457
 8620SOL     OW26429   7.035   1.709   6.430  0.0242  0.0362 -0.0120
 8620SOL    HW126430   6.960   1.654   6.407  0.4949 -0.0539 -1.4480
 8620SOL    HW226431   7.052   1.760   6.350  1.8673 -0.3909  0.0752
 8621SOL     OW26432   6.723   0.583   3.952 -0.5217  0.4484  0.1617
 8621SOL    HW126433   6.694   0.587   4.044  0.1777  0.0229  0.4064
 8621SOL    HW226434   6.763   0.497   3.943 -0.6203  0.4712 -0.5645
 8622SOL     OW26435   2.207   1.557   3.962 -0.0706 -0.1543 -0.1410
 8622SOL    HW126436   2.278   1.505   3.924 -0.1356 -1.4739  1.3873
 8622SOL    HW226437   2.229   1.648   3.942  1.9599 -0.5458  0.1351
 8623SOL     OW26438   5.246   1.788   2.302 -0.3154 -0.4956 -0.2997
 8623SOL    HW126439   5.207   1.833   2.226 -2.6922  2.2756  2.3162
 8623SOL    HW226440   5.174   1.736   2.338 -0.2792  0.8997  1.9159
 8624SOL     OW26441   6.551   6.474   3.112  0.3421 -0.5499  0.3835
 8624SOL    HW126442   6.591   6.541   3.056  1.8434 -1.0976  0.7328
 8624SOL    HW226443   6.468   6.512   3.140  1.9475  2.0393  2.1332
 8625SOL     OW26444   0.309   3.536   5.743  0.4717  0.1889  0.3000
 8625SOL    HW126445   0.351   3.492   5.817 -0.1852  1.7729  1.6840
 8625SOL    HW226446   0.350   3.622   5.740  0.8392 -0.0200 -1.5442
 8626SOL     OW26447   2.837   3.228   6.954  0.2492  0.4717 -0.0683
 8626SOL    HW126448   2.839   3.142   6.913 -1.6695  0.2241  0.2649
 8626SOL    HW226449   2.858   3.211   7.046  2.5407  0.7698 -0.4599
 8627SOL     OW26450   3.067   2.858   6.530  0.1103 -0.2419 -0.1126
 8627SOL    HW126451   3.143   2.817   6.487  0.9439  0.6213  0.4915
 8627SOL    HW226452   3.053   2.806   6.609  0.1797 -0.2952 -0.1348
 8628SOL     OW26453   2.752   5.521   5.329 -0.6847  0.0481 -0.8535
 8628SOL    HW126454   2.819   5.465   5.290 -1.0564 -1.8201  0.9842
 8628SOL    HW226455   2.801   5.597   5.362 -0.0561  0.4916 -2.7310
 8629SOL     OW26456   0.824   2.789   0.834  0.9104 -0.3091 -0.1736
 8629SOL    HW126457   0.750   2.819   0.781  0.2392  0.0299  0.9258
 8629SOL    HW226458   0.888   2.859   0.828  0.1666  0.4740  0.7657
 8630SOL     OW26459   1.144   2.101   2.667 -0.0417  0.3666  0.9562
 8630SOL    HW126460   1.106   2.028   2.715  0.8887 -0.7449  0.0649
 8630SOL    HW226461   1.180   2.062   2.587 -1.9209  2.2002 -0.9069
 8631SOL     OW26462   3.283   1.754   3.065 -0.4565  0.4290 -0.4422
 8631SOL    HW126463   3.319   1.798   3.142  1.9596 -1.5208 -0.3375
 8631SOL    HW226464   3.354   1.754   3.001 -0.8579 -1.9285 -0.9779
 8632SOL     OW26465   3.480   2.130   6.040 -0.6286 -0.5253  0.3595
 8632SOL    HW126466   3.432   2.054   6.006  2.6782 -2.4145 -0.5159
 8632SOL    HW226467   3.500   2.106   6.131 -1.0980  0.1286  0.6407
 8633SOL     OW26468   3.561   1.817   6.078  0.3313 -0.4218  0.6443
 8633SOL    HW126469   3.469   1.828   6.054  0.0871 -0.5971  1.4579
 8633SOL    HW226470   3.559   1.758   6.154  1.2099 -1.5358 -0.1490
 8634SOL     OW26471   1.443   5.508   4.401  0.0980 -0.3885  0.5892
 8634SOL    HW126472   1.426   5.519   4.307 -2.5310  0.9024  1.1236
 8634SOL    HW226473   1.427   5.415   4.417 -1.2468 -0.2890  0.0139
 8635SOL     OW26474   1.773   2.653   5.364  0.3986 -0.4146  0.1404
 8635SOL    HW126475   1.733   2.673   5.449  1.8258  1.0665  0.5284
 8635SOL    HW226476   1.864   2.631   5.386  0.9467  0.5720 -1.0434
 8636SOL     OW26477   0.090   5.650   5.684  0.3156 -0.1502 -0.6752
 8636SOL    HW126478   0.055   5.568   5.651 -0.2017  0.0598 -0.6583
 8636SOL    HW226479   0.013   5.704   5.701  0.6765  0.8196 -1.9290
 8637SOL     OW26480   5.496   6.133   6.536 -0.2198  0.1614  0.2801
 8637SOL    HW126481   5.535   6.201   6.592  0.6395  0.1885 -0.3178
 8637SOL    HW226482   5.520   6.051   6.579  1.2667  0.1400 -0.5045
 8638SOL     OW26483   3.198   2.526   3.408  0.9563 -0.0149  0.4371
 8638SOL    HW126484   3.231   2.513   3.319 -0.8418 -0.4385 -0.2216
 8638SOL    HW226485   3.132   2.457   3.419 -1.0019  1.8158  0.9526
 8639SOL     OW26486   3.558   0.102   3.665  0.0646  0.7038  0.1202
 8639SOL    HW126487   3.599   0.174   3.617  1.3315  0.0154  0.1060
 8639SOL    HW226488   3.492   0.143   3.720  1.8184  2.0793  1.2952
 8640SOL     OW26489   5.038   2.568   1.316  0.4364 -0.2622  0.2157
 8640SOL    HW126490   5.006   2.657   1.299  1.5574  0.2642  0.7036
 8640SOL    HW226491   4.959   2.516   1.330 -0.3837  0.1068 -2.4249
 8641SOL     OW26492   4.883   1.387   4.592 -0.2344  0.3495  0.2336
 8641SOL    HW126493   4.950   1.321   4.604 -2.1631 -2.0662 -1.3327
 8641SOL    HW226494   4.869   1.391   4.497 -1.9022  1.1768  0.4669
 8642SOL     OW26495   2.853   5.692   0.550  0.0484 -0.4067  0.0074
 8642SOL    HW126496   2.883   5.605   0.522 -0.0803 -0.6777  0.6774
 8642SOL    HW226497   2.839   5.682   0.644 -1.1360 -0.0007 -0.1133
 8643SOL     OW26498   6.349   3.425   7.106  0.2463 -0.5453  0.2876
 8643SOL    HW126499   6.382   3.513   7.124 -0.3370 -0.3271  0.3283
 8643SOL    HW226500   6.349   3.382   7.192 -1.5189  0.1419  0.6790
 8644SOL     OW26501   3.688   3.708   2.170  0.1482  0.5998 -0.5583
 8644SOL    HW126502   3.610   3.762   2.168 -0.1917  0.2118  0.7251
 8644SOL    HW226503   3.687   3.660   2.088 -1.5353 -0.1479 -0.1375
 8645SOL     OW26504   0.057   0.229   1.049 -0.2129 -0.5918  0.5984
 8645SOL    HW126505   0.095   0.149   1.011  1.8830  0.2133  0.8674
 8645SOL    HW226506   0.058   0.292   0.977  2.0193  0.3747  1.3866
 8646SOL     OW26507   2.176   1.789   1.318 -0.8549  0.6537  0.1602
 8646SOL    HW126508   2.089   1.770   1.351 -1.4918  2.9312 -0.0679
 8646SOL    HW226509   2.162   1.820   1.228  0.0709  1.8450  0.3947
 8647SOL     OW26510   5.883   1.036   5.597  0.1090  0.4712  0.2960
 8647SOL    HW126511   5.882   0.996   5.510 -1.1957  2.4656 -0.6801
 8647SOL    HW226512   5.791   1.035   5.625  0.3462  0.9304  1.1329
 8648SOL     OW26513   6.381   5.901   6.162 -0.3212 -0.0536 -0.2144
 8648SOL    HW126514   6.435   5.950   6.224  0.9898  0.5677 -1.7700
 8648SOL    HW226515   6.300   5.882   6.210  0.5848  0.4973  1.6193
 8649SOL     OW26516   1.746   3.503   5.140  0.2176  0.3228 -0.3633
 8649SOL    HW126517   1.681   3.560   5.098  0.2697 -0.4772 -1.5822
 8649SOL    HW226518   1.821   3.561   5.156 -0.0865  0.8231 -0.7087
 8650SOL     OW26519   6.406   4.760   3.871 -0.4684 -0.3126  0.0794
 8650SOL    HW126520   6.427   4.669   3.854 -1.1501 -0.3011 -0.9579
 8650SOL    HW226521   6.312   4.759   3.892 -0.1667 -0.0170  1.5594
 8651SOL     OW26522   3.899   0.523   0.673 -0.5954  0.3269 -0.0598
 8651SOL    HW126523   3.810   0.541   0.703  0.1033  0.2552  2.2199
 8651SOL    HW226524   3.908   0.428   0.682 -0.1300  0.3968  0.2165
 8652SOL     OW26525   0.507   3.995   5.139 -0.4099 -0.0873 -0.5867
 8652SOL    HW126526   0.514   4.076   5.189 -1.7092 -0.8944  1.0259
 8652SOL    HW226527   0.504   4.023   5.047 -1.0741  1.6962 -0.0598
 8653SOL     OW26528   2.519   1.019   4.333 -0.7013 -0.4871 -0.4302
 8653SOL    HW126529   2.551   0.986   4.249 -1.3401 -2.7290  0.1393
 8653SOL    HW226530   2.470   0.946   4.370 -1.3889  0.8377  1.4034
 8654SOL     OW26531   6.892   0.208   4.829 -0.6721 -0.1349  0.0285
 8654SOL    HW126532   6.811   0.256   4.812  0.6533  1.9999 -0.8228
 8654SOL    HW226533   6.868   0.142   4.893 -3.5528 -1.1142 -1.8515
 8655SOL     OW26534   2.383   6.991   1.365 -0.0691 -0.7336 -0.4379
 8655SOL    HW126535   2.341   7.072   1.337 -1.5460 -1.2265  0.2371
 8655SOL    HW226536   2.438   6.965   1.291 -0.1256  0.5036 -0.9299
 8656SOL     OW26537   5.154   5.178   3.791 -0.0434  0.1730  0.4922
 8656SOL    HW126538   5.238   5.147   3.825 -0.7771 -1.1715  1.1695
 8656SOL    HW226539   5.095   5.173   3.866 -0.8460  0.6596 -0.0885
 8657SOL     OW26540   4.701   4.422   4.231 -0.1088  0.0931  0.1799
 8657SOL    HW126541   4.765   4.352   4.241  0.7054  0.8241  0.2266
 8657SOL    HW226542   4.618   4.377   4.215  0.4551 -0.8707 -0.1089
 8658SOL     OW26543   2.550   3.187   1.251  0.3502 -0.1044  0.0535
 8658SOL    HW126544   2.548   3.150   1.163 -1.6457  0.9855 -0.4269
 8658SOL    HW226545   2.462   3.222   1.264  0.3406 -0.9599  2.8279
 8659SOL     OW26546   2.098   0.481   1.146 -0.6066 -0.2805  0.3946
 8659SOL    HW126547   2.100   0.507   1.054 -0.6621 -1.3053  0.0887
 8659SOL    HW226548   2.109   0.563   1.195 -0.5044  0.2627 -0.5204
 8660SOL     OW26549   5.942   0.729   0.598 -0.5237  0.0262  0.4630
 8660SOL    HW126550   5.982   0.705   0.682 -1.3992 -0.4687  0.7454
 8660SOL    HW226551   5.863   0.777   0.622 -2.5747 -2.8849  0.0309
 8661SOL     OW26552   7.243   1.321   4.457  0.1152  0.8257 -0.1854
 8661SOL    HW126553   7.320   1.375   4.475 -0.6537  1.9080  0.0147
 8661SOL    HW226554   7.240   1.315   4.362  2.2726 -2.0339 -0.1994
 8662SOL     OW26555   1.527   3.289   4.676  0.3908 -0.3178  0.1385
 8662SOL    HW126556   1.477   3.360   4.636 -0.1300 -2.2592 -2.9263
 8662SOL    HW226557   1.617   3.320   4.676  0.5386 -0.3753 -3.2794
 8663SOL     OW26558   0.109   3.443   3.806  0.2258 -0.8635 -0.0948
 8663SOL    HW126559   0.089   3.493   3.726  0.2158 -0.1995  0.3127
 8663SOL    HW226560   0.023   3.411   3.835 -0.0073  0.2444  0.5151
 8664SOL     OW26561   3.956   2.360   1.792  0.0723  0.1059  0.2920
 8664SOL    HW126562   3.933   2.330   1.704  0.9815 -0.3940  0.2107
 8664SOL    HW226563   3.878   2.339   1.845  0.1868 -1.2459 -0.0300
 8665SOL     OW26564   7.371   1.191   0.249  0.7717  0.1900 -0.0690
 8665SOL    HW126565   7.437   1.153   0.191  1.5465 -0.1789  1.0029
 8665SOL    HW226566   7.326   1.115   0.286 -0.8403  0.4492 -1.3905
 8666SOL     OW26567   0.138   4.926   3.554  0.7146 -0.0548 -0.1557
 8666SOL    HW126568   0.156   4.954   3.465  2.2380  0.1186  0.1860
 8666SOL    HW226569   0.109   5.005   3.599  0.0694 -0.1174 -0.4473
 8667SOL     OW26570   5.426   5.797   0.721 -0.4212  0.0309  0.0337
 8667SOL    HW126571   5.515   5.785   0.756 -1.4027 -3.0463  1.8868
 8667SOL    HW226572   5.437   5.792   0.626  1.3475 -0.9496  0.2419
 8668SOL     OW26573   7.142   5.131   3.288 -0.0785 -0.8032  0.5273
 8668SOL    HW126574   7.226   5.098   3.320  0.7422  1.3132  0.7129
 8668SOL    HW226575   7.158   5.153   3.197 -0.7864 -1.4456  0.2345
 8669SOL     OW26576   2.014   5.272   3.086  0.1544 -0.4844 -0.1085
 8669SOL    HW126577   1.978   5.264   2.998 -0.7033 -0.7197  0.2540
 8669SOL    HW226578   1.956   5.334   3.130  2.9849  3.0719 -0.9310
 8670SOL     OW26579   2.293   6.596   3.860 -0.2447 -0.0737 -0.0828
 8670SOL    HW126580   2.240   6.548   3.924 -1.4303  0.1716 -0.8578
 8670SOL    HW226581   2.328   6.529   3.803 -2.3488 -0.0550 -1.5019
 8671SOL     OW26582   3.157   0.467   2.564 -0.1984 -0.5677 -0.0376
 8671SOL    HW126583   3.183   0.439   2.476 -1.6695 -1.8623 -0.0965
 8671SOL    HW226584   3.167   0.389   2.618 -0.1523 -0.0119  0.7721
 8672SOL     OW26585   4.157   5.303   6.046  0.0465  0.1700 -0.2359
 8672SOL    HW126586   4.227   5.321   5.984  0.9049  1.2035  0.9818
 8672SOL    HW226587   4.112   5.387   6.058 -1.5424 -0.5040 -1.1077
 8673SOL     OW26588   2.458   1.090   2.111  0.0198  0.0303 -0.0850
 8673SOL    HW126589   2.421   1.011   2.151 -0.2607  1.6797  3.3338
 8673SOL    HW226590   2.524   1.057   2.050 -2.1614 -2.8378 -1.1662
 8674SOL     OW26591   2.146   7.098   2.808 -0.0227  0.5610 -0.2804
 8674SOL    HW126592   2.154   7.072   2.717  1.9255 -1.6779  0.4344
 8674SOL    HW226593   2.216   7.162   2.822 -0.1899  0.7493 -0.3004
 8675SOL     OW26594   3.315   5.580   3.744 -0.0363 -0.4367 -0.0584
 8675SOL    HW126595   3.388   5.521   3.723  0.7666  0.9328 -1.3231
 8675SOL    HW226596   3.246   5.522   3.775  1.0405 -1.9513 -0.3606
 8676SOL     OW26597   6.293   0.805   0.782 -0.0840  0.1791 -0.6230
 8676SOL    HW126598   6.283   0.837   0.692 -2.8330 -1.4046 -1.0050
 8676SOL    HW226599   6.203   0.787   0.811  0.8421 -0.9313  1.8646
 8677SOL     OW26600   2.205   4.008   4.166 -0.4752  0.3970 -0.3012
 8677SOL    HW126601   2.146   3.941   4.201 -1.2796  2.0469  1.7476
 8677SOL    HW226602   2.188   4.008   4.071 -3.5503  0.5029  0.1339
 8678SOL     OW26603   6.358   4.892   0.886  0.0252  0.3740 -0.0744
 8678SOL    HW126604   6.364   4.974   0.837 -1.1286  0.1672 -0.5993
 8678SOL    HW226605   6.437   4.891   0.941  0.3722  1.5272 -0.5166
 8679SOL     OW26606   2.206   3.455   5.345 -0.2144 -0.6955 -0.1300
 8679SOL    HW126607   2.123   3.412   5.322 -0.5191  0.7043 -1.9004
 8679SOL    HW226608   2.263   3.436   5.270  0.2966  0.2616  0.0072
 8680SOL     OW26609   6.168   5.236   6.004  0.3427 -0.2629 -0.3891
 8680SOL    HW126610   6.134   5.320   5.971 -2.1757 -1.3189 -0.7348
 8680SOL    HW226611   6.183   5.183   5.926 -0.3237 -0.8939 -0.1017
 8681SOL     OW26612   3.905   5.147   0.382  0.4301 -0.0409  0.5525
 8681SOL    HW126613   3.815   5.117   0.370  0.7396 -0.6311 -0.4453
 8681SOL    HW226614   3.941   5.150   0.293  0.3394  3.6512  0.5039
 8682SOL     OW26615   3.173   5.458   5.498  0.0572  0.6017  0.1203
 8682SOL    HW126616   3.218   5.517   5.559  2.5660 -0.5633 -0.4615
 8682SOL    HW226617   3.163   5.510   5.418  0.5306  0.8370  0.2078
 8683SOL     OW26618   5.600   5.396   3.178 -0.3805  0.6652 -0.7814
 8683SOL    HW126619   5.547   5.335   3.126 -0.3988  1.4132 -1.6519
 8683SOL    HW226620   5.538   5.432   3.242 -0.4665  0.1039 -0.5342
 8684SOL     OW26621   7.251   3.839   5.442  0.0609 -0.0082 -0.6017
 8684SOL    HW126622   7.287   3.886   5.367 -0.2537  1.3695  0.0747
 8684SOL    HW226623   7.306   3.762   5.451  1.5727  0.9954 -0.8403
 8685SOL     OW26624   0.153   6.733   7.063  0.1717 -0.5958 -0.0611
 8685SOL    HW126625   0.098   6.696   7.133  0.4381  0.4191  0.7154
 8685SOL    HW226626   0.092   6.753   6.993 -0.5335  0.8485  0.9266
 8686SOL     OW26627   2.139   5.118   1.501 -0.2474  0.1761 -0.0153
 8686SOL    HW126628   2.149   5.057   1.574 -0.5099 -0.5330 -0.5589
 8686SOL    HW226629   2.156   5.065   1.423 -0.6130  0.7653 -0.5045
 8687SOL     OW26630   6.271   5.720   4.969  0.1680  0.1447 -0.1028
 8687SOL    HW126631   6.204   5.697   5.034  1.3368 -2.6899  0.2464
 8687SOL    HW226632   6.237   5.687   4.886 -0.2198  1.5524 -0.5327
 8688SOL     OW26633   3.982   4.741   0.608  0.4610  0.4681 -0.0331
 8688SOL    HW126634   4.028   4.796   0.544 -1.8829  3.6744  0.8018
 8688SOL    HW226635   4.041   4.737   0.683  1.0711  1.0589 -0.4693
 8689SOL     OW26636   4.709   6.798   5.454  0.1788  0.2514  0.1918
 8689SOL    HW126637   4.689   6.800   5.361 -1.1394  1.2527  0.4809
 8689SOL    HW226638   4.733   6.707   5.471  1.4565  0.2627 -1.3059
 8690SOL     OW26639   5.057   4.876   1.164  0.8630 -0.5793 -0.1727
 8690SOL    HW126640   5.051   4.933   1.241  1.8551 -1.1126  0.3284
 8690SOL    HW226641   5.051   4.788   1.200 -1.2310 -0.8309 -0.9941
 8691SOL     OW26642   1.016   7.006   3.453 -0.2741 -0.0785 -0.2223
 8691SOL    HW126643   0.971   7.067   3.512  1.3516 -1.6721  2.9041
 8691SOL    HW226644   0.958   6.930   3.449 -0.6333  0.2313 -1.1990
 8692SOL     OW26645   4.423   2.136   6.552  0.8447 -0.4659 -0.2158
 8692SOL    HW126646   4.407   2.224   6.519 -0.6188 -1.4204 -2.2641
 8692SOL    HW226647   4.468   2.149   6.635 -0.2172  2.2200  0.0190
 8693SOL     OW26648   4.773   1.669   1.687 -0.2652  0.6096 -0.5739
 8693SOL    HW126649   4.797   1.659   1.595 -0.9051  0.3455 -0.7141
 8693SOL    HW226650   4.793   1.761   1.706 -1.0445  0.9325 -1.2528
 8694SOL     OW26651   6.385   5.017   6.486  0.3254  0.5413  0.3401
 8694SOL    HW126652   6.336   5.099   6.485 -1.6602 -0.5864  0.9862
 8694SOL    HW226653   6.320   4.950   6.504  1.9028 -1.2024 -0.1654
 8695SOL     OW26654   7.206   4.963   5.068 -0.1789 -0.4323  0.6323
 8695SOL    HW126655   7.275   4.960   5.135  0.0441  0.1184  0.4330
 8695SOL    HW226656   7.211   5.051   5.033 -0.4638 -0.6388  0.0607
 8696SOL     OW26657   1.944   6.486   4.322  0.0307  0.0478 -0.0635
 8696SOL    HW126658   1.909   6.424   4.258 -1.6181  0.8600  0.0145
 8696SOL    HW226659   2.039   6.470   4.321 -0.3865 -2.9564  0.5127
 8697SOL     OW26660   6.640   5.455   4.303 -0.1567 -0.1811 -0.2200
 8697SOL    HW126661   6.626   5.457   4.208  0.2067 -2.1427 -0.3403
 8697SOL    HW226662   6.705   5.387   4.317  0.4032  0.6218  1.3986
 8698SOL     OW26663   6.113   4.038   0.535 -0.0588 -0.4107 -0.0766
 8698SOL    HW126664   6.146   4.121   0.501 -0.7409  0.6072  1.6083
 8698SOL    HW226665   6.120   4.047   0.630 -2.0064 -1.4813  0.2154
 8699SOL     OW26666   0.685   1.061   5.376  0.2161  0.5603 -0.0261
 8699SOL    HW126667   0.704   1.155   5.377 -0.7869  0.7928  1.5707
 8699SOL    HW226668   0.731   1.028   5.299 -0.3748  2.5427 -1.3010
 8700SOL     OW26669   6.745   6.833   7.393  0.0350  0.0364  0.2853
 8700SOL    HW126670   6.708   6.913   7.357  0.9634  0.2720 -0.1934
 8700SOL    HW226671   6.674   6.770   7.392 -0.3529  0.4770 -0.5842
 8701SOL     OW26672   4.218   3.495   1.804  0.2266 -0.7288 -0.0689
 8701SOL    HW126673   4.168   3.429   1.756 -0.5992  0.8242 -1.4932
 8701SOL    HW226674   4.270   3.539   1.737 -1.6668  2.1548  0.1765
 8702SOL     OW26675   2.966   7.227   1.219 -1.0712  0.1198 -0.5663
 8702SOL    HW126676   2.958   7.251   1.311 -0.2211  1.7934 -0.8914
 8702SOL    HW226677   3.002   7.138   1.220 -0.8578  0.2074  0.6955
 8703SOL     OW26678   0.941   1.748   6.187 -0.0407 -0.2656  0.1038
 8703SOL    HW126679   0.849   1.774   6.193 -0.0749 -0.4652  0.4930
 8703SOL    HW226680   0.979   1.806   6.121 -0.4094 -0.0755  0.0604
 8704SOL     OW26681   3.538   0.854   3.425  0.5909 -0.0760 -0.4547
 8704SOL    HW126682   3.603   0.843   3.495  3.2478 -2.2314 -3.0185
 8704SOL    HW226683   3.545   0.947   3.401  0.0357  0.5619  1.6533
 8705SOL     OW26684   6.405   5.892   2.294 -0.8076  0.1912  0.7839
 8705SOL    HW126685   6.381   5.945   2.218 -0.5622 -0.4087  0.2886
 8705SOL    HW226686   6.369   5.805   2.276  1.5949 -0.7284  0.0602
 8706SOL     OW26687   1.555   3.037   5.071 -0.7103 -0.7449  0.3210
 8706SOL    HW126688   1.597   2.979   5.007 -2.2706 -0.9045 -0.5990
 8706SOL    HW226689   1.562   3.124   5.033  0.4239 -0.4816  1.0684
 8707SOL     OW26690   0.577   6.905   5.930 -0.0040 -0.6031  0.3134
 8707SOL    HW126691   0.558   6.888   6.022 -2.5500  2.0655  0.4157
 8707SOL    HW226692   0.523   6.842   5.882 -0.4532 -0.4873  0.6594
 8708SOL     OW26693   2.255   1.634   0.457 -1.4452 -0.2519 -0.2413
 8708SOL    HW126694   2.341   1.630   0.416 -1.1700 -0.6498  0.3616
 8708SOL    HW226695   2.249   1.723   0.492 -0.5963 -0.7126  1.1433
 8709SOL     OW26696   7.109   3.248   2.161 -0.2772  0.2509  0.2816
 8709SOL    HW126697   7.059   3.218   2.237  1.9381 -1.0375  1.3312
 8709SOL    HW226698   7.160   3.322   2.193 -1.5833  1.7174 -0.8455
 8710SOL     OW26699   4.271   6.086   5.627  0.2236  0.2263 -0.8484
 8710SOL    HW126700   4.258   6.043   5.711 -0.7171  1.2286 -0.4694
 8710SOL    HW226701   4.186   6.080   5.583  0.3013  1.0037 -1.1172
 8711SOL     OW26702   5.764   4.311   7.371 -0.4278 -0.0503  0.1653
 8711SOL    HW126703   5.859   4.320   7.384 -0.4262  0.4430 -0.1581
 8711SOL    HW226704   5.755   4.243   7.305 -0.2533  0.5621 -0.5030
 8712SOL     OW26705   5.768   1.271   7.013 -0.0240 -0.0535  0.0432
 8712SOL    HW126706   5.711   1.342   7.043  0.0099  0.3667 -0.8653
 8712SOL    HW226707   5.707   1.206   6.976  0.0612  0.2738 -0.6807
 8713SOL     OW26708   5.888   0.752   0.316 -0.3083  0.3991 -0.1250
 8713SOL    HW126709   5.916   0.739   0.406  0.4696  0.6436 -0.3259
 8713SOL    HW226710   5.856   0.842   0.313 -1.8352 -0.1106  0.2805
 8714SOL     OW26711   1.620   1.597   4.221  0.3917 -0.3339 -0.3729
 8714SOL    HW126712   1.709   1.602   4.258 -1.3908 -1.4755  4.9361
 8714SOL    HW226713   1.600   1.504   4.220 -0.7146 -0.1102 -1.8321
 8715SOL     OW26714   1.356   6.463   4.695  0.2150 -0.1590  0.4119
 8715SOL    HW126715   1.311   6.528   4.641 -0.7102  0.9580  2.4283
 8715SOL    HW226716   1.437   6.445   4.647 -0.6382  0.6131 -1.4297
 8716SOL     OW26717   2.396   7.160   3.593 -0.2699  0.3217  0.6126
 8716SOL    HW126718   2.309   7.122   3.580 -0.4102  0.5099  0.9911
 8716SOL    HW226719   2.455   7.086   3.584 -0.4679  0.1989  0.3164
 8717SOL     OW26720   1.223   4.028   2.185 -0.3402  0.0443  0.4634
 8717SOL    HW126721   1.133   4.062   2.188  0.0673  1.0802  1.2714
 8717SOL    HW226722   1.259   4.063   2.104 -0.2779  0.6572  0.7503
 8718SOL     OW26723   5.272   2.833   4.227  0.2375 -0.0302 -0.1018
 8718SOL    HW126724   5.332   2.769   4.190  0.5604  0.1145  0.1643
 8718SOL    HW226725   5.212   2.854   4.156  0.0820 -0.6814 -0.1679
 8719SOL     OW26726   5.788   0.021   1.899  0.3961  0.8413  0.7405
 8719SOL    HW126727   5.806   0.114   1.881 -1.4734  0.8869 -1.2286
 8719SOL    HW226728   5.697   0.009   1.875  0.6375 -1.5730  0.8161
 8720SOL     OW26729   4.588   2.467   5.006 -0.2205  0.1766 -0.3930
 8720SOL    HW126730   4.626   2.427   4.928 -0.7787 -0.3024 -0.4250
 8720SOL    HW226731   4.595   2.561   4.990  0.4979  0.0933 -0.6105
 8721SOL     OW26732   2.829   5.569   4.594  0.2281 -0.1207 -0.1596
 8721SOL    HW126733   2.843   5.489   4.542 -0.3306  1.1870 -2.4670
 8721SOL    HW226734   2.735   5.572   4.608 -0.1763  1.4799 -2.5805
 8722SOL     OW26735   4.727   5.447   2.171  0.1117  0.3481 -0.1307
 8722SOL    HW126736   4.682   5.462   2.088  0.6896  0.5993 -0.4032
 8722SOL    HW226737   4.690   5.364   2.203  0.9666 -0.5646 -1.3849
 8723SOL     OW26738   0.790   6.394   7.077  0.3153 -0.0538 -0.4302
 8723SOL    HW126739   0.726   6.341   7.124 -0.1179  2.0115  1.5015
 8723SOL    HW226740   0.740   6.432   7.004  0.0783 -0.5704 -0.5441
 8724SOL     OW26741   1.786   1.482   5.587  0.1019 -0.1668  0.3756
 8724SOL    HW126742   1.798   1.564   5.539  0.2781 -0.8745 -0.8271
 8724SOL    HW226743   1.702   1.493   5.631  0.6150  1.0727  1.1240
 8725SOL     OW26744   5.415   4.788   3.249  0.3764 -0.3419  0.1387
 8725SOL    HW126745   5.494   4.833   3.218  1.2610  0.7007  3.4827
 8725SOL    HW226746   5.368   4.853   3.301 -1.6398 -1.5511 -0.0613
 8726SOL     OW26747   4.858   1.919   6.526  0.6112  1.0606 -0.4571
 8726SOL    HW126748   4.900   1.924   6.612 -0.5124 -1.4056  0.3291
 8726SOL    HW226749   4.805   1.998   6.520 -1.1776  0.2069  2.2499
 8727SOL     OW26750   2.893   2.090   4.790 -0.1047 -0.3132  0.0305
 8727SOL    HW126751   2.855   2.010   4.754 -2.2813  0.2408  0.9180
 8727SOL    HW226752   2.905   2.147   4.713  0.8938 -1.2438 -0.5240
 8728SOL     OW26753   7.309   5.638   6.863 -0.0899  0.2228  0.4690
 8728SOL    HW126754   7.268   5.589   6.934 -1.0099  1.1431  0.6054
 8728SOL    HW226755   7.288   5.730   6.882  1.1975  0.6372 -0.0181
 8729SOL     OW26756   0.506   6.457   2.081 -0.1327 -0.1054 -0.4636
 8729SOL    HW126757   0.418   6.483   2.052 -0.0786  2.2908  1.1674
 8729SOL    HW226758   0.490   6.396   2.153 -0.4009 -0.9277 -1.2051
 8730SOL     OW26759   4.606   4.043   0.227  0.6018 -0.0494 -0.1246
 8730SOL    HW126760   4.583   3.996   0.147  1.1618 -2.5476  1.0778
 8730SOL    HW226761   4.670   4.108   0.200  3.0004 -2.7189 -1.3829
 8731SOL     OW26762   5.818   4.101   7.199  0.1742  0.0933  0.0587
 8731SOL    HW126763   5.849   4.021   7.157 -0.6504 -2.0658  3.2404
 8731SOL    HW226764   5.722   4.095   7.192  0.0508 -0.0112  1.6271
 8732SOL     OW26765   1.247   7.167   4.101  0.3645 -0.1227 -0.4697
 8732SOL    HW126766   1.252   7.188   4.008  0.0907 -0.1207 -0.4874
 8732SOL    HW226767   1.337   7.150   4.127  0.6174  1.1529 -0.4356
 8733SOL     OW26768   3.114   5.216   6.271 -0.4697 -0.7110  0.3023
 8733SOL    HW126769   3.116   5.218   6.366  1.4720 -0.9975  0.3149
 8733SOL    HW226770   3.183   5.277   6.244 -1.0887 -0.5087 -0.9347
 8734SOL     OW26771   4.055   7.199   1.906 -0.0714 -0.2046  0.1579
 8734SOL    HW126772   4.089   7.175   1.993 -0.0619  0.8496  0.4584
 8734SOL    HW226773   4.071   7.121   1.853 -1.3337 -1.4034  1.4241
 8735SOL     OW26774   1.713   0.841   6.051  0.0951  0.3532  0.2111
 8735SOL    HW126775   1.737   0.868   5.962  2.2300 -0.3320  0.5382
 8735SOL    HW226776   1.704   0.746   6.046  1.7779  0.1291  1.0387
 8736SOL     OW26777   5.228   7.238   1.586  0.2221 -0.2378 -0.1383
 8736SOL    HW126778   5.222   7.166   1.523  0.2368  0.4459 -0.9365
 8736SOL    HW226779   5.298   7.294   1.552  0.1687  0.1890  0.4428
 8737SOL     OW26780   2.533   5.535   2.794  0.1763 -0.7414  0.5609
 8737SOL    HW126781   2.466   5.476   2.827 -0.4912 -0.8140 -0.8427
 8737SOL    HW226782   2.534   5.608   2.856 -1.0545 -0.8356  0.7015
 8738SOL     OW26783   4.604   2.350   2.966 -0.0744 -0.3604 -0.6085
 8738SOL    HW126784   4.543   2.423   2.968 -0.0867 -0.3885  0.3116
 8738SOL    HW226785   4.691   2.390   2.968 -0.0839 -0.3764  0.2922
 8739SOL     OW26786   2.068   6.204   6.990  0.1744 -0.0331  0.3327
 8739SOL    HW126787   2.095   6.265   7.058  1.1549  1.1773 -1.0669
 8739SOL    HW226788   1.992   6.159   7.026  1.0862  0.0424  2.4819
 8740SOL     OW26789   7.232   0.098   6.261  0.0626  0.4284 -0.4143
 8740SOL    HW126790   7.321   0.133   6.262  0.0712  0.4595 -1.3020
 8740SOL    HW226791   7.239   0.015   6.214 -0.0531 -0.5461  1.1978
 8741SOL     OW26792   5.775   2.314   0.992 -0.9419 -0.2929 -0.1070
 8741SOL    HW126793   5.809   2.229   0.964  1.0910 -0.0423  1.4444
 8741SOL    HW226794   5.803   2.375   0.924  0.1229 -0.4208  0.1953
 8742SOL     OW26795   1.485   6.882   5.953 -0.5183 -0.0129  0.1110
 8742SOL    HW126796   1.458   6.965   5.915  1.3545 -0.3868 -2.2544
 8742SOL    HW226797   1.410   6.854   6.006 -1.6961  2.4964 -0.1167
 8743SOL     OW26798   4.833   2.824   3.113 -0.5297 -0.6417  0.0121
 8743SOL    HW126799   4.908   2.878   3.086 -0.6461 -0.0017  0.9070
 8743SOL    HW226800   4.868   2.766   3.180 -1.3573  1.6005  2.5648
 8744SOL     OW26801   0.558   2.285   3.255  0.0170 -0.6199  0.6951
 8744SOL    HW126802   0.477   2.292   3.306 -0.4352  1.9681 -0.2288
 8744SOL    HW226803   0.529   2.251   3.170 -0.3026  0.9303  0.1332
 8745SOL     OW26804   4.118   4.851   5.497 -0.2636  0.0490 -0.5265
 8745SOL    HW126805   4.185   4.879   5.433 -3.0001  0.6689 -3.3824
 8745SOL    HW226806   4.075   4.777   5.455 -2.6991  0.9745  0.1712
 8746SOL     OW26807   1.472   2.980   5.552  0.0829  0.1367  0.2946
 8746SOL    HW126808   1.561   3.000   5.523  0.4493 -1.5454  0.1408
 8746SOL    HW226809   1.471   2.885   5.562 -2.1227 -0.0612 -1.1310
 8747SOL     OW26810   2.156   7.009   3.597 -0.0374  0.7061  0.2599
 8747SOL    HW126811   2.065   7.033   3.611  0.5444  1.6519  2.9347
 8747SOL    HW226812   2.152   6.931   3.541 -2.4407  0.8924  0.0823
 8748SOL     OW26813   2.055   6.218   3.049 -0.1624 -0.0061  0.3106
 8748SOL    HW126814   2.065   6.131   3.010 -0.2231  0.4551 -0.7658
 8748SOL    HW226815   1.963   6.240   3.034 -0.1804  0.1816  0.7039
 8749SOL     OW26816   1.371   5.279   3.529 -0.6237 -0.1893 -0.3173
 8749SOL    HW126817   1.303   5.345   3.520 -0.5508  0.5071  2.8238
 8749SOL    HW226818   1.344   5.228   3.605  1.8472 -0.4753  0.4520
 8750SOL     OW26819   1.446   7.094   0.911 -0.4727 -0.7831 -0.5344
 8750SOL    HW126820   1.425   7.184   0.885 -0.1475 -0.9721 -1.5137
 8750SOL    HW226821   1.463   7.099   1.005  1.4668  0.5687 -0.8798
 8751SOL     OW26822   2.562   2.212   3.270  0.3517  0.3963  0.5669
 8751SOL    HW126823   2.576   2.244   3.181 -0.8126 -1.7945 -0.4862
 8751SOL    HW226824   2.629   2.145   3.283  0.2804  0.4394  1.2114
 8752SOL     OW26825   5.704   4.471   5.196 -0.5853  0.0881  0.2198
 8752SOL    HW126826   5.698   4.440   5.106 -1.6517 -0.5676  0.4949
 8752SOL    HW226827   5.798   4.475   5.214 -0.3723 -0.0296 -0.8346
 8753SOL     OW26828   4.233   2.744   4.968 -0.1938  0.1520  0.2976
 8753SOL    HW126829   4.258   2.730   4.877 -1.7581  1.8388 -0.4597
 8753SOL    HW226830   4.314   2.734   5.017  0.3442 -2.6843 -1.0009
 8754SOL     OW26831   7.344   4.981   3.381  0.4551  0.7073 -0.2071
 8754SOL    HW126832   7.429   4.999   3.342  0.4358 -0.2172 -0.7062
 8754SOL    HW226833   7.339   4.885   3.385 -0.0787  0.7608  0.8904
 8755SOL     OW26834   3.385   4.098   0.520  0.4812 -0.7472  0.3526
 8755SOL    HW126835   3.377   4.096   0.425  0.7584  1.5378  0.2105
 8755SOL    HW226836   3.349   4.183   0.545  0.6348 -1.1983  2.2747
 8756SOL     OW26837   5.767   5.227   2.121  0.1046 -0.0427  0.0787
 8756SOL    HW126838   5.739   5.314   2.095  0.4427  0.2459  0.6660
 8756SOL    HW226839   5.831   5.242   2.191 -1.9714 -0.8226  2.2952
 8757SOL     OW26840   5.568   1.670   6.697  0.0397  0.0625 -0.2794
 8757SOL    HW126841   5.659   1.649   6.677  0.8411  1.0834  1.9494
 8757SOL    HW226842   5.528   1.688   6.611  1.9032 -0.4662 -1.3071
 8758SOL     OW26843   3.591   0.044   0.028  0.1098 -0.1998  0.5754
 8758SOL    HW126844   3.536  -0.028  -0.002  1.5038 -0.6137 -1.2313
 8758SOL    HW226845   3.587   0.108  -0.043  2.9562 -0.8699 -0.3276
 8759SOL     OW26846   0.616   4.114   1.386  0.3362  0.0843  0.1180
 8759SOL    HW126847   0.543   4.072   1.431 -1.4859  3.0350  0.1583
 8759SOL    HW226848   0.611   4.081   1.296 -1.1192  0.2937  0.0993
 8760SOL     OW26849   3.031   5.539   0.707 -0.2965  0.2885  0.2915
 8760SOL    HW126850   3.124   5.562   0.713 -0.2228  0.2087 -0.4126
 8760SOL    HW226851   3.029   5.445   0.724 -0.3474  0.4335  1.1029
 8761SOL     OW26852   1.151   3.912   4.137  0.1102  0.2600 -0.0870
 8761SOL    HW126853   1.126   3.945   4.224  0.7209  0.2610  0.0918
 8761SOL    HW226854   1.168   3.991   4.086 -0.3546  0.2618 -0.2404
 8762SOL     OW26855   2.985   4.216   1.735  0.5195  0.9299  0.2649
 8762SOL    HW126856   3.068   4.214   1.686 -1.1720 -1.7667 -2.9156
 8762SOL    HW226857   2.989   4.138   1.790  0.4997  1.3423  0.8473
 8763SOL     OW26858   5.273   2.296   1.437 -0.2460  0.0695  0.3543
 8763SOL    HW126859   5.218   2.279   1.513 -0.6510 -2.8986 -0.4784
 8763SOL    HW226860   5.363   2.296   1.471 -0.3470 -2.2289  0.7980
 8764SOL     OW26861   3.286   4.015   5.355 -0.0717 -1.1008  0.4992
 8764SOL    HW126862   3.200   4.005   5.396 -0.6889  2.3710  0.3760
 8764SOL    HW226863   3.266   4.048   5.267  1.3927 -1.9084 -0.1612
 8765SOL     OW26864   0.322   2.572   6.615 -0.6200 -0.7144  0.6564
 8765SOL    HW126865   0.324   2.534   6.703  0.4130 -0.4937  0.7361
 8765SOL    HW226866   0.354   2.661   6.626 -1.1141 -0.4652  0.1471
 8766SOL     OW26867   4.774   5.393   6.893 -0.4332  0.4404 -0.1180
 8766SOL    HW126868   4.784   5.426   6.983 -2.9996 -1.7198  1.0899
 8766SOL    HW226869   4.860   5.356   6.872  1.2482  3.8118  0.0581
 8767SOL     OW26870   3.384   0.835   4.579 -0.3716 -0.2022 -0.3258
 8767SOL    HW126871   3.446   0.765   4.600 -0.0771 -0.0079 -0.5325
 8767SOL    HW226872   3.428   0.886   4.510  0.4984  1.6506  1.4892
 8768SOL     OW26873   6.863   5.248   3.340 -0.0295  0.7397 -0.2292
 8768SOL    HW126874   6.847   5.192   3.416  0.8986  0.6011 -0.1196
 8768SOL    HW226875   6.785   5.237   3.285 -0.3750  0.2532  0.3460
 8769SOL     OW26876   3.774   0.819   1.074 -0.3877 -0.0532 -0.0272
 8769SOL    HW126877   3.795   0.729   1.098 -2.4316 -0.4492  0.4860
 8769SOL    HW226878   3.740   0.812   0.984 -1.9605 -0.0604  0.5372
 8770SOL     OW26879   3.979   1.775   0.369 -0.2861 -0.0584 -0.6629
 8770SOL    HW126880   3.947   1.688   0.396 -0.5969  0.8625  2.2469
 8770SOL    HW226881   3.921   1.836   0.414  1.4151  1.6648 -0.7063
 8771SOL     OW26882   5.352   3.193   3.572  0.0458  0.2770  0.0283
 8771SOL    HW126883   5.335   3.219   3.482 -1.7695 -0.9965 -0.0608
 8771SOL    HW226884   5.265   3.171   3.607  0.7756  0.2238  1.9091
 8772SOL     OW26885   1.083   1.253   2.045  0.1379  0.2695 -0.1795
 8772SOL    HW126886   1.073   1.309   2.122 -0.4688 -0.1717  0.0655
 8772SOL    HW226887   1.088   1.165   2.080  3.5045  0.2570 -0.3468
 8773SOL     OW26888   2.799   5.308   2.213  0.2549  0.2546  0.3838
 8773SOL    HW126889   2.888   5.283   2.234  0.2332 -0.8708 -0.7455
 8773SOL    HW226890   2.744   5.250   2.265  0.1986 -0.6114 -0.6241
 8774SOL     OW26891   5.664   2.628   2.588 -0.0611  0.6619 -0.2442
 8774SOL    HW126892   5.750   2.671   2.587 -0.0152  0.5656 -0.8063
 8774SOL    HW226893   5.676   2.550   2.535 -0.5361  0.7229 -0.4495
 8775SOL     OW26894   3.652   0.160   5.313  0.4051  0.1197  0.0589
 8775SOL    HW126895   3.692   0.083   5.273  1.1200  0.5334 -0.0490
 8775SOL    HW226896   3.609   0.205   5.239 -0.3877 -0.3973  0.1996
 8776SOL     OW26897   5.162   0.911   1.157  0.6096 -0.3238 -0.1706
 8776SOL    HW126898   5.192   0.834   1.110  0.3612  1.0516 -2.7527
 8776SOL    HW226899   5.068   0.915   1.139  0.7064  0.8430 -0.4739
 8777SOL     OW26900   7.003   4.140   3.689  0.1221 -0.0415  0.5542
 8777SOL    HW126901   7.044   4.195   3.756  0.3486 -0.4728  0.7703
 8777SOL    HW226902   6.922   4.187   3.666  0.0238  0.0931  1.1550
 8778SOL     OW26903   4.511   0.861   5.507  0.4864  0.0356  0.8893
 8778SOL    HW126904   4.573   0.796   5.540 -1.1645 -1.1320  1.8520
 8778SOL    HW226905   4.467   0.893   5.586 -0.5809  0.3407  0.1858
 8779SOL     OW26906   6.328   5.457   4.203 -0.3326  0.8421 -0.1241
 8779SOL    HW126907   6.395   5.402   4.162 -0.6826  1.4726 -1.6079
 8779SOL    HW226908   6.284   5.400   4.265  0.6653  0.0356 -0.1346
 8780SOL     OW26909   3.463   3.374   2.074 -0.3928 -0.7457 -0.0259
 8780SOL    HW126910   3.385   3.379   2.018 -1.8738  0.0430  1.9616
 8780SOL    HW226911   3.429   3.343   2.158  0.7775  2.7444  1.9520
 8781SOL     OW26912   2.178   6.506   7.054  0.0529  0.2842  0.2224
 8781SOL    HW126913   2.154   6.451   7.128  1.5444 -0.7167  0.0025
 8781SOL    HW226914   2.102   6.504   6.997 -0.1617 -1.0696  0.5137
 8782SOL     OW26915   6.240   7.319   2.670  0.4229 -0.6861  0.6173
 8782SOL    HW126916   6.182   7.248   2.642  0.1107  0.1614 -1.0291
 8782SOL    HW226917   6.326   7.278   2.679  0.0989 -1.4238  0.4188
 8783SOL     OW26918   0.202   7.001   1.268 -0.2015 -0.1215  0.3060
 8783SOL    HW126919   0.237   7.065   1.331 -0.5695  1.3741 -0.9420
 8783SOL    HW226920   0.280   6.958   1.232  0.1061  0.1427  0.6400
 8784SOL     OW26921   6.854   5.254   5.973  0.0166  0.4167 -0.0715
 8784SOL    HW126922   6.925   5.312   5.945  0.8917 -1.4156 -1.9116
 8784SOL    HW226923   6.884   5.217   6.056  0.2025  1.2512  0.2513
 8785SOL     OW26924   5.994   6.597   6.798 -0.2624  0.0166  0.2697
 8785SOL    HW126925   6.026   6.609   6.709  2.3566  0.6760  1.1888
 8785SOL    HW226926   5.950   6.512   6.796 -0.5945  0.1815 -1.6967
 8786SOL     OW26927   4.330   0.346   6.196  0.0379  0.4909  0.2538
 8786SOL    HW126928   4.258   0.305   6.146  0.9487 -2.6982  1.2906
 8786SOL    HW226929   4.286   0.391   6.268 -1.0600  1.6234 -1.0690
 8787SOL     OW26930   0.698   2.322   6.034 -0.0726  0.0551  0.6064
 8787SOL    HW126931   0.654   2.318   5.949  2.5161  0.6942 -0.8637
 8787SOL    HW226932   0.629   2.303   6.097 -2.6190  1.6757 -1.4537
 8788SOL     OW26933   2.842   6.905   0.485  0.2524 -0.7346  0.1973
 8788SOL    HW126934   2.844   6.989   0.440  0.4286 -0.3612  0.8925
 8788SOL    HW226935   2.752   6.874   0.474  0.2137 -0.5051 -0.1416
 8789SOL     OW26936   5.667   3.947   2.518  0.7261  0.3114 -0.5224
 8789SOL    HW126937   5.626   3.961   2.432 -1.7446 -1.2029  0.3033
 8789SOL    HW226938   5.600   3.972   2.581  1.2883 -1.6384  0.9501
 8790SOL     OW26939   5.460   0.402   0.938  0.3524 -0.8256 -0.8814
 8790SOL    HW126940   5.517   0.446   0.874 -0.8926  1.4448 -0.5370
 8790SOL    HW226941   5.519   0.367   1.003  1.4396  1.7615 -0.3469
 8791SOL     OW26942   0.749   6.332   5.302  0.5370 -0.3120  0.0616
 8791SOL    HW126943   0.719   6.419   5.275  1.1029 -1.0304 -3.2938
 8791SOL    HW226944   0.844   6.334   5.287  0.7880 -1.0805  1.4062
 8792SOL     OW26945   1.491   3.460   7.433 -0.3651 -0.2494 -0.1589
 8792SOL    HW126946   1.559   3.434   7.370  1.7813  1.2699  1.3803
 8792SOL    HW226947   1.476   3.382   7.486  2.1209 -0.0004  1.0604
 8793SOL     OW26948   5.615   1.420   2.596 -0.9319 -0.5469 -0.0488
 8793SOL    HW126949   5.554   1.459   2.533 -0.7734 -0.6880 -0.2879
 8793SOL    HW226950   5.641   1.492   2.652  0.8592  0.1300 -1.6574
 8794SOL     OW26951   6.258   4.051   7.375  0.5531  0.0036  0.0680
 8794SOL    HW126952   6.228   4.099   7.452 -0.7870  0.0076 -0.4236
 8794SOL    HW226953   6.215   4.096   7.301 -0.0444 -1.3869 -0.4742
 8795SOL     OW26954   0.206   4.711   0.410 -0.2786  0.6140  0.1336
 8795SOL    HW126955   0.227   4.645   0.343 -1.5484  0.0629  0.2424
 8795SOL    HW226956   0.268   4.782   0.394 -0.6533  0.5820 -1.7695
 8796SOL     OW26957   5.868   2.351   4.251 -0.6636  0.3511  0.5340
 8796SOL    HW126958   5.895   2.311   4.334  1.8087  0.8420  0.0488
 8796SOL    HW226959   5.922   2.429   4.244  0.3167 -0.4811 -2.2460
 8797SOL     OW26960   5.860   1.180   6.544 -0.1356 -0.0092 -0.0911
 8797SOL    HW126961   5.876   1.239   6.618 -0.4125 -1.2494  0.9838
 8797SOL    HW226962   5.889   1.230   6.467  0.4963  1.1682  0.8810
 8798SOL     OW26963   2.265   5.587   2.604  0.4900 -0.5867 -0.3438
 8798SOL    HW126964   2.256   5.507   2.552 -0.1949  0.1377 -1.4015
 8798SOL    HW226965   2.255   5.559   2.694 -2.7377 -1.3780 -0.8055
 8799SOL     OW26966   7.175   4.349   5.615  0.0066  0.0573 -0.4599
 8799SOL    HW126967   7.151   4.320   5.527  1.1634 -2.6722  0.0135
 8799SOL    HW226968   7.265   4.379   5.607  0.4448 -1.0848 -0.1007
 8800SOL     OW26969   5.552   2.217   2.131  0.3221  0.3559 -0.1319
 8800SOL    HW126970   5.538   2.263   2.214  0.2472 -0.6303  0.4191
 8800SOL    HW226971   5.647   2.215   2.121  0.3196  0.7826 -0.2478
 8801SOL     OW26972   3.159   6.876   7.420  0.1478 -0.3498 -0.4159
 8801SOL    HW126973   3.140   6.803   7.361  1.1981 -0.4836 -0.6036
 8801SOL    HW226974   3.254   6.880   7.424  0.0979 -0.1246  1.0140
 8802SOL     OW26975   2.362   3.714   6.290  0.9191  0.1164  0.1011
 8802SOL    HW126976   2.399   3.636   6.249  0.9991 -0.8438  1.8925
 8802SOL    HW226977   2.300   3.748   6.225  0.9439 -1.3864 -0.7628
 8803SOL     OW26978   7.003   3.499   6.909  0.5549 -0.1695 -0.1463
 8803SOL    HW126979   6.981   3.587   6.881  1.6666 -0.2747 -1.5062
 8803SOL    HW226980   6.978   3.495   7.001  1.7127  2.0141  0.3210
 8804SOL     OW26981   3.253   7.087   0.718  0.6255  0.0001 -0.4730
 8804SOL    HW126982   3.202   7.160   0.754  1.7449  0.8529 -0.5618
 8804SOL    HW226983   3.296   7.124   0.641  0.0443 -1.1821 -1.3875
 8805SOL     OW26984   3.251   5.811   1.677 -0.5085  0.5390 -0.6162
 8805SOL    HW126985   3.283   5.889   1.723  0.9073  0.1301 -0.8452
 8805SOL    HW226986   3.330   5.773   1.638 -1.4957  0.2365 -2.4247
 8806SOL     OW26987   2.046   2.467   0.720 -0.2197 -0.1898  0.2334
 8806SOL    HW126988   2.102   2.402   0.677  0.0414 -0.5996  1.1811
 8806SOL    HW226989   2.078   2.551   0.687 -0.4609 -0.5193 -0.8807
 8807SOL     OW26990   6.013   4.955   2.418 -0.1261 -0.0770 -0.4363
 8807SOL    HW126991   5.998   4.901   2.496  0.0126  1.9563  1.0671
 8807SOL    HW226992   6.068   4.900   2.362  0.5936 -1.2605  1.3238
 8808SOL     OW26993   4.778   4.252   5.288 -0.9760  0.0303 -0.2484
 8808SOL    HW126994   4.725   4.186   5.331 -0.5803  0.7252  1.3769
 8808SOL    HW226995   4.761   4.333   5.337  1.0053  0.4205 -0.0900
 8809SOL     OW26996   3.780   4.176   6.793 -0.0866  0.3271 -0.0652
 8809SOL    HW126997   3.836   4.102   6.815  0.0778  0.4016 -0.2302
 8809SOL    HW226998   3.764   4.220   6.877 -1.4298 -0.7551  0.2788
 8810SOL     OW26999   6.029   4.016   2.873 -0.4792  0.1628 -0.1210
 8810SOL    HW127000   6.121   4.006   2.897 -0.5225 -0.2411 -0.1102
 8810SOL    HW227001   5.985   4.037   2.955 -0.0942  2.6275 -0.4655
 8811SOL     OW27002   6.685   5.241   6.363  0.5837  0.0160  0.0935
 8811SOL    HW127003   6.649   5.184   6.432  1.5071 -1.8601 -0.8915
 8811SOL    HW227004   6.620   5.237   6.293  0.5051  0.4365  0.1435
 8812SOL     OW27005   2.800   1.035   7.250  0.4560 -0.1856 -0.3117
 8812SOL    HW127006   2.795   1.100   7.181  0.0522  1.7442  1.4368
 8812SOL    HW227007   2.714   0.992   7.250  0.3597  0.0106 -0.8086
 8813SOL     OW27008   0.132   2.850   4.340  0.2635 -0.0118  0.0750
 8813SOL    HW127009   0.195   2.921   4.350 -2.5696  2.6285  0.6581
 8813SOL    HW227010   0.133   2.806   4.425 -1.8969  3.0522  1.8869
 8814SOL     OW27011   3.236   5.393   5.935 -0.2134 -0.3319  0.7500
 8814SOL    HW127012   3.182   5.362   5.862 -0.3729 -1.4218  1.3175
 8814SOL    HW227013   3.282   5.315   5.966  0.9212  0.3836  0.9335
 8815SOL     OW27014   1.578   6.953   3.659  1.1519  0.2342  0.1513
 8815SOL    HW127015   1.655   6.930   3.712  1.8749  0.3790 -0.8006
 8815SOL    HW227016   1.565   6.877   3.601 -1.0924 -0.9830  2.0686
 8816SOL     OW27017   0.272   6.901   5.891 -0.4240 -0.0408 -0.5420
 8816SOL    HW127018   0.291   6.989   5.858  0.2061  1.0412  2.4111
 8816SOL    HW227019   0.232   6.915   5.976 -0.2439 -2.6488  0.0619
 8817SOL     OW27020   5.652   2.932   1.733 -0.0716  0.4116 -0.0415
 8817SOL    HW127021   5.687   2.887   1.656  0.6960 -0.0509  0.5680
 8817SOL    HW227022   5.595   2.867   1.775 -2.0445  1.2772 -1.2343
 8818SOL     OW27023   4.977   4.939   5.017  0.1964  0.3120  0.7114
 8818SOL    HW127024   5.022   5.017   5.050  2.1667 -1.0420  1.3581
 8818SOL    HW227025   5.047   4.877   4.997 -1.1928 -0.6001 -1.7626
 8819SOL     OW27026   1.188   6.967   5.592 -0.5627  0.2560  0.1121
 8819SOL    HW127027   1.107   6.916   5.588 -0.5031  0.1342  0.3765
 8819SOL    HW227028   1.197   6.989   5.685 -0.6223  0.8111 -0.0109
 8820SOL     OW27029   5.327   4.177   4.154 -0.3616  0.0670  0.2614
 8820SOL    HW127030   5.318   4.217   4.068 -1.5050 -2.9057 -1.1511
 8820SOL    HW227031   5.237   4.163   4.184 -0.0068 -0.8974  0.9202
 8821SOL     OW27032   0.258   0.921   5.384 -0.0437 -0.2894 -0.7406
 8821SOL    HW127033   0.196   0.878   5.325 -2.6634 -1.0666  2.2698
 8821SOL    HW227034   0.245   1.014   5.369  0.3639 -0.4439 -2.2515
 8822SOL     OW27035   2.561   0.788   0.043  0.4962 -0.3639 -0.0898
 8822SOL    HW127036   2.607   0.732   0.105  0.8390 -0.8478 -0.7751
 8822SOL    HW227037   2.477   0.806   0.086  0.7602 -0.6113  0.5541
 8823SOL     OW27038   1.812   6.840   3.752  0.6064  0.1119 -0.2172
 8823SOL    HW127039   1.895   6.834   3.704  0.2833 -0.2843 -0.7312
 8823SOL    HW227040   1.828   6.792   3.833  1.5841  1.9018  0.7038
 8824SOL     OW27041   4.273   3.239   3.566 -0.7877 -0.0922 -0.3788
 8824SOL    HW127042   4.298   3.302   3.633 -0.9364  1.5789 -1.8514
 8824SOL    HW227043   4.357   3.203   3.535 -0.6171  0.4138 -0.5099
 8825SOL     OW27044   5.423   2.782   5.611 -0.4749  0.9381  0.2017
 8825SOL    HW127045   5.423   2.792   5.515 -0.9627  1.1838  0.2252
 8825SOL    HW227046   5.514   2.798   5.636  0.3035 -1.8955 -0.4924
 8826SOL     OW27047   5.519   4.006   2.872 -0.5436  0.1962 -0.5809
 8826SOL    HW127048   5.557   4.087   2.837  0.7964 -0.8652 -1.6629
 8826SOL    HW227049   5.443   4.036   2.923  0.2036  2.1696 -0.5375
 8827SOL     OW27050   0.993   3.581   5.351 -0.0981 -0.1983 -0.0428
 8827SOL    HW127051   0.916   3.559   5.404  1.2015 -1.5125  1.3916
 8827SOL    HW227052   1.057   3.614   5.414  1.3049 -1.2838 -0.8491
 8828SOL     OW27053   0.775   1.620   4.652  0.2069  0.0129 -0.0876
 8828SOL    HW127054   0.780   1.623   4.556 -1.2747  0.4333 -0.1685
 8828SOL    HW227055   0.684   1.642   4.672  0.7462  0.9215  1.4732
 8829SOL     OW27056   7.169   3.605   1.900  0.1500 -0.0613 -0.1308
 8829SOL    HW127057   7.142   3.581   1.811  0.6508  0.3223 -0.3885
 8829SOL    HW227058   7.145   3.697   1.909  0.2724 -0.0474  0.0619
 8830SOL     OW27059   0.685   4.804   3.620 -0.4397 -0.3459  0.0538
 8830SOL    HW127060   0.611   4.858   3.647 -0.5830 -0.5874  0.1430
 8830SOL    HW227061   0.761   4.861   3.631 -0.3308 -0.8104  2.1563
 8831SOL     OW27062   1.882   0.056   4.044 -0.4086  0.0527 -0.2730
 8831SOL    HW127063   1.893   0.025   3.954 -0.7739  0.4186 -0.4449
 8831SOL    HW227064   1.855   0.147   4.035 -1.2669 -0.1465  0.1909
 8832SOL     OW27065   5.028   3.552   4.558  0.0137  0.1685  0.5492
 8832SOL    HW127066   4.959   3.590   4.612  1.9383  1.1023  2.5150
 8832SOL    HW227067   5.075   3.493   4.616  0.9080 -0.4176 -0.7159
 8833SOL     OW27068   4.792   0.318   4.984  0.8523  0.1776 -0.0529
 8833SOL    HW127069   4.817   0.400   5.025  2.0333 -0.2133  0.0377
 8833SOL    HW227070   4.863   0.299   4.923 -0.4968  0.3611 -1.7531
 8834SOL     OW27071   7.382   6.552   2.800  0.6096 -0.0820  0.5366
 8834SOL    HW127072   7.332   6.601   2.866  0.5966  2.5446 -1.2765
 8834SOL    HW227073   7.377   6.606   2.721  0.8545 -2.9509 -1.5947
 8835SOL     OW27074   0.766   3.992   3.171  0.0989 -0.1893  0.3110
 8835SOL    HW127075   0.736   3.908   3.137 -0.8335  0.6553 -1.0952
 8835SOL    HW227076   0.855   4.001   3.138  1.0825 -1.5833  2.3747
 8836SOL     OW27077   2.966   4.445   5.451  0.1502 -0.3172 -0.8493
 8836SOL    HW127078   2.984   4.368   5.397  0.1973 -0.9314  0.0239
 8836SOL    HW227079   2.882   4.478   5.419 -1.2000 -2.2665  0.4468
 8837SOL     OW27080   0.109   1.069   3.555 -0.3905 -1.2276  0.6171
 8837SOL    HW127081   0.159   0.998   3.516  0.8878 -0.5236  0.9082
 8837SOL    HW227082   0.135   1.069   3.647  2.1172  1.5373  0.0658
 8838SOL     OW27083   3.406   6.356   1.567  0.2709 -0.0161  0.6681
 8838SOL    HW127084   3.455   6.329   1.489 -0.3667 -1.6627  0.7985
 8838SOL    HW227085   3.410   6.280   1.626 -1.5415  0.1725  1.1049
 8839SOL     OW27086   4.820   6.232   1.799  0.0605 -0.2553 -0.0403
 8839SOL    HW127087   4.893   6.170   1.796  0.8151  0.5018  1.4720
 8839SOL    HW227088   4.776   6.213   1.883 -0.3383  0.5452 -0.0624
 8840SOL     OW27089   3.061   4.123   2.804 -0.3476  0.2300 -0.3190
 8840SOL    HW127090   3.142   4.140   2.851  0.0687  1.1657 -1.3250
 8840SOL    HW227091   3.054   4.028   2.801  0.0255  0.1480  0.9040
 8841SOL     OW27092   0.399   7.163   6.764  0.4170 -0.5891  0.1636
 8841SOL    HW127093   0.410   7.238   6.823  0.0978 -0.0243 -0.4808
 8841SOL    HW227094   0.468   7.102   6.790  2.1893  0.9062 -0.7729
 8842SOL     OW27095   2.306   0.249   1.964  0.3590  0.6312  0.1917
 8842SOL    HW127096   2.265   0.171   2.002 -0.5239  1.0143  0.0630
 8842SOL    HW227097   2.266   0.257   1.877  0.1369  1.4463  0.3588
 8843SOL     OW27098   6.232   2.591   0.187  0.3011  0.3196 -0.2448
 8843SOL    HW127099   6.268   2.524   0.130  2.6832 -0.3625  1.8770
 8843SOL    HW227100   6.299   2.660   0.189 -0.6975  1.3281  0.0712
 8844SOL     OW27101   4.263   0.720   1.615 -0.1965 -0.4752 -0.4270
 8844SOL    HW127102   4.175   0.706   1.650  0.5912  0.2490  2.1019
 8844SOL    HW227103   4.293   0.632   1.588 -1.6643 -0.7171 -1.3439
 8845SOL     OW27104   1.701   2.839   5.829  0.3670  0.4927 -0.0770
 8845SOL    HW127105   1.724   2.747   5.815 -1.5098 -0.0364 -0.0335
 8845SOL    HW227106   1.775   2.888   5.793  0.1157 -0.9728 -2.9483
 8846SOL     OW27107   0.706   3.573   0.470  0.5972  0.3696  0.2605
 8846SOL    HW127108   0.771   3.643   0.477  2.4321 -1.3206  1.3790
 8846SOL    HW227109   0.689   3.564   0.376  0.4137  2.1895  0.0924
 8847SOL     OW27110   0.440   1.170   3.535  0.2104  0.5897  0.1652
 8847SOL    HW127111   0.480   1.211   3.458  1.1566  2.7461  1.7113
 8847SOL    HW227112   0.364   1.226   3.555 -0.6015 -0.5134  0.2540
 8848SOL     OW27113   6.720   3.356   1.879 -0.2743 -0.4778 -0.1264
 8848SOL    HW127114   6.705   3.445   1.909 -2.4141 -0.6181 -0.6580
 8848SOL    HW227115   6.809   3.335   1.910 -0.4897  1.1010  1.7666
 8849SOL     OW27116   0.974   6.358   6.131  0.1570  0.1348 -0.4749
 8849SOL    HW127117   0.921   6.432   6.159  0.3680  0.1975 -0.2409
 8849SOL    HW227118   0.961   6.292   6.199  1.7463  0.7838  0.5224
 8850SOL     OW27119   1.363   4.224   0.966 -0.2380 -0.1005  0.2198
 8850SOL    HW127120   1.456   4.241   0.955 -0.4450  0.6775 -0.4042
 8850SOL    HW227121   1.358   4.131   0.990  0.7006 -0.1039  0.4139
 8851SOL     OW27122   6.781   2.167   1.225  0.1892  0.2191  0.1762
 8851SOL    HW127123   6.710   2.201   1.279 -0.5576  1.0726 -1.3099
 8851SOL    HW227124   6.796   2.078   1.260  0.0137  0.8625  2.0139
 8852SOL     OW27125   0.395   5.248   2.663  0.3381  0.1561 -0.0734
 8852SOL    HW127126   0.444   5.204   2.594 -0.7435 -0.2480 -0.6057
 8852SOL    HW227127   0.336   5.308   2.617  2.0131  2.5333  0.6281
 8853SOL     OW27128   5.758   6.657   3.066 -0.0156 -0.1214  0.1267
 8853SOL    HW127129   5.854   6.659   3.069 -0.0165  2.6407 -0.0412
 8853SOL    HW227130   5.737   6.658   2.973 -0.2696 -1.7245  0.1292
 8854SOL     OW27131   6.470   0.460   0.987 -0.3603  0.2918 -0.1110
 8854SOL    HW127132   6.481   0.397   0.915  1.3431  0.9727 -0.4861
 8854SOL    HW227133   6.503   0.415   1.064 -1.1968 -0.0459  0.0679
 8855SOL     OW27134   7.150   0.614   4.277  0.4874  0.4127 -0.2963
 8855SOL    HW127135   7.105   0.529   4.273  0.2111  0.5449 -0.0562
 8855SOL    HW227136   7.164   0.638   4.186  0.5420  0.1236 -0.3680
 8856SOL     OW27137   2.552   1.924   5.202  0.0759  0.0382 -0.2260
 8856SOL    HW127138   2.495   1.926   5.279 -0.8112 -0.9387 -0.8219
 8856SOL    HW227139   2.580   1.833   5.195 -0.9693 -0.2039 -1.8217
 8857SOL     OW27140   7.056   3.037   0.584  0.4370 -0.6292 -0.2576
 8857SOL    HW127141   6.968   3.007   0.606  0.6931 -0.9537  0.3537
 8857SOL    HW227142   7.112   2.999   0.652  1.1622 -1.0753 -1.0872
 8858SOL     OW27143   1.872   4.665   6.922  0.6918  0.6951 -0.0446
 8858SOL    HW127144   1.949   4.719   6.909 -0.1294  1.7843 -0.4755
 8858SOL    HW227145   1.812   4.720   6.973 -0.4448  0.4887 -1.1158
 8859SOL     OW27146   3.981   3.331   4.202  0.1696 -0.1772  0.3804
 8859SOL    HW127147   3.886   3.321   4.203  0.1666 -0.4712  2.8771
 8859SOL    HW227148   4.005   3.315   4.111 -2.0332 -1.4613 -0.0700
 8860SOL     OW27149   3.553   1.879   3.527 -0.3409 -0.0697  0.7960
 8860SOL    HW127150   3.510   1.837   3.601  0.6465 -3.5249 -0.4105
 8860SOL    HW227151   3.645   1.856   3.535  0.0361  0.7564 -0.6831
 8861SOL     OW27152   2.395   4.970   4.816  0.5887 -0.1082  0.0483
 8861SOL    HW127153   2.463   4.956   4.881  0.3642 -0.3490  0.2324
 8861SOL    HW227154   2.328   5.021   4.861  0.1638 -0.7708  0.1897
 8862SOL     OW27155   6.792   0.545   3.644  0.0837 -0.4073 -0.1530
 8862SOL    HW127156   6.885   0.557   3.661  0.1212 -2.0766  1.0850
 8862SOL    HW227157   6.748   0.579   3.722 -0.2230 -1.3454  0.0921
 8863SOL     OW27158   1.407   6.296   5.679 -0.3690  0.2695  0.1089
 8863SOL    HW127159   1.348   6.233   5.638 -0.0218  1.1167 -1.8240
 8863SOL    HW227160   1.371   6.382   5.657  1.6222  0.8176 -1.3154
 8864SOL     OW27161   2.200   1.560   3.311 -0.1363  0.0177 -0.5884
 8864SOL    HW127162   2.161   1.473   3.313  2.0047 -1.0072  0.4560
 8864SOL    HW227163   2.172   1.601   3.393  1.1987 -0.8618  0.3483
 8865SOL     OW27164   7.171   2.983   6.192  0.6214 -0.2235  0.2481
 8865SOL    HW127165   7.133   2.948   6.273  1.4993 -0.2824  0.6420
 8865SOL    HW227166   7.095   2.998   6.135  0.2579 -4.3682 -0.6350
 8866SOL     OW27167   3.645   2.305   0.500  0.0370 -0.2573  0.5487
 8866SOL    HW127168   3.644   2.319   0.406 -0.9476 -1.6666  0.3316
 8866SOL    HW227169   3.734   2.329   0.527  0.1655  0.6820 -0.6323
 8867SOL     OW27170   4.972   3.476   6.415  0.4210 -0.0845 -0.3411
 8867SOL    HW127171   5.026   3.448   6.488 -0.4774  0.0136  0.3793
 8867SOL    HW227172   4.936   3.394   6.380 -0.3599 -0.0266  0.3013
 8868SOL     OW27173   5.575   4.426   2.078  0.3066 -0.7000 -0.2158
 8868SOL    HW127174   5.553   4.516   2.104  0.2248  0.1487 -2.9623
 8868SOL    HW227175   5.613   4.388   2.157 -2.3990  0.7298  1.9541
 8869SOL     OW27176   6.408   3.301   7.365 -0.1876  0.1544  0.4186
 8869SOL    HW127177   6.403   3.334   7.455  0.2832 -1.5227  1.1141
 8869SOL    HW227178   6.499   3.270   7.356 -1.0094 -2.6228  0.5406
 8870SOL     OW27179   6.532   4.424   5.077 -0.1888 -0.1562 -0.1898
 8870SOL    HW127180   6.521   4.467   4.992 -1.8105  1.5349  0.7870
 8870SOL    HW227181   6.577   4.490   5.130  1.4945 -1.4839  0.0878
 8871SOL     OW27182   0.818   7.021   6.587  0.1148  0.1222  0.3412
 8871SOL    HW127183   0.774   7.080   6.526  0.4614  0.3065  0.2638
 8871SOL    HW227184   0.777   7.038   6.672  1.5522  1.9547  0.7459
 8872SOL     OW27185   3.524   3.884   5.331 -0.0739 -0.3072 -0.0126
 8872SOL    HW127186   3.437   3.924   5.323  0.1287  0.1736  0.1568
 8872SOL    HW227187   3.529   3.823   5.258  0.4069  1.4919 -1.5802
 8873SOL     OW27188   6.875   6.219   0.464  0.1564  0.1608 -0.0053
 8873SOL    HW127189   6.886   6.126   0.445  1.9376 -0.1336  1.9963
 8873SOL    HW227190   6.859   6.223   0.559  0.7946  1.9167  0.0799
 8874SOL     OW27191   1.889   2.998   2.501  0.2973  0.0892 -0.1427
 8874SOL    HW127192   1.828   2.927   2.522  2.4715 -1.3712  1.7436
 8874SOL    HW227193   1.955   2.956   2.446  0.2927  1.3457 -1.1544
 8875SOL     OW27194   5.242   0.911   4.662 -0.1621 -0.0659 -0.7383
 8875SOL    HW127195   5.174   0.870   4.609 -0.9569  2.0615 -1.4886
 8875SOL    HW227196   5.323   0.898   4.612 -0.3327 -0.9734 -0.7902
 8876SOL     OW27197   0.601   0.101   4.259  0.8042 -0.2312  0.6965
 8876SOL    HW127198   0.508   0.092   4.279  0.6543  0.0263  0.1380
 8876SOL    HW227199   0.606   0.176   4.200  1.3373 -0.3958  0.5217
 8877SOL     OW27200   2.369   4.887   3.868 -0.0519  0.2687 -0.2530
 8877SOL    HW127201   2.392   4.872   3.960  0.6716  0.3066 -0.4231
 8877SOL    HW227202   2.372   4.801   3.828 -1.1725  0.1263 -0.0805
 8878SOL     OW27203   0.194   2.391   7.092  0.7045 -0.5016 -0.8771
 8878SOL    HW127204   0.119   2.444   7.120  0.3099 -0.3038 -2.2304
 8878SOL    HW227205   0.224   2.348   7.172  0.8215  1.4922  0.2124
 8879SOL     OW27206   0.103   5.260   1.537 -0.2326  0.5435  0.0506
 8879SOL    HW127207   0.159   5.243   1.461  0.4286 -1.6472  0.9520
 8879SOL    HW227208   0.120   5.351   1.560  1.7568  0.3946 -0.6884
 8880SOL     OW27209   2.981   6.373   7.151  0.1909  0.0744 -0.1102
 8880SOL    HW127210   3.019   6.318   7.220 -1.5897  0.1056  0.9651
 8880SOL    HW227211   2.994   6.323   7.070  0.0313 -1.2046  0.6225
 8881SOL     OW27212   0.063   2.585   0.402 -0.8535 -0.4740 -0.0454
 8881SOL    HW127213   0.085   2.493   0.411  1.5831  0.0245 -0.3484
 8881SOL    HW227214   0.114   2.629   0.469 -0.6825  0.8142 -0.9856
 8882SOL     OW27215   1.021   5.902   2.495  0.4740  0.8650  0.0320
 8882SOL    HW127216   0.945   5.843   2.495  1.0952  0.0146 -1.1097
 8882SOL    HW227217   1.037   5.919   2.402  0.7116  2.3333  0.3181
 8883SOL     OW27218   5.741   4.424   2.559  0.0522 -0.2766  0.5483
 8883SOL    HW127219   5.692   4.474   2.625  0.0641 -0.2892  0.5667
 8883SOL    HW227220   5.763   4.342   2.603 -0.0332 -0.3300  0.4929
 8884SOL     OW27221   0.399   3.160   6.403  0.3836  1.1473  0.3940
 8884SOL    HW127222   0.348   3.080   6.415  0.2737  1.3368  1.2616
 8884SOL    HW227223   0.355   3.207   6.332 -1.0357  1.6026  1.5326
 8885SOL     OW27224   0.776   3.134   1.852 -0.6438  0.7486  0.0050
 8885SOL    HW127225   0.782   3.081   1.932  2.9602  1.2372  0.2351
 8885SOL    HW227226   0.769   3.070   1.782  1.0218  0.0010  0.4614
 8886SOL     OW27227   5.018   3.624   1.349 -0.5232 -0.1597 -0.2923
 8886SOL    HW127228   5.077   3.583   1.285 -1.4989 -1.0098 -0.6714
 8886SOL    HW227229   4.936   3.576   1.341 -1.2223  0.8760  0.3718
 8887SOL     OW27230   5.318   7.015   2.122 -0.0088  0.2294 -0.1760
 8887SOL    HW127231   5.247   6.952   2.113  0.6304 -0.5494  0.1447
 8887SOL    HW227232   5.322   7.033   2.216  0.6642 -0.2581 -0.1081
 8888SOL     OW27233   7.209   0.090   1.924 -0.3544  0.0828  0.0910
 8888SOL    HW127234   7.188   0.178   1.893  1.4466  0.6066  0.2692
 8888SOL    HW227235   7.210   0.099   2.020 -1.7337 -0.5363  0.1899
 8889SOL     OW27236   4.400   0.193   0.473 -0.0442  0.4828  0.2663
 8889SOL    HW127237   4.405   0.238   0.389 -3.2147  1.6287  0.5701
 8889SOL    HW227238   4.347   0.115   0.455 -0.2824  0.4514  1.0743
 8890SOL     OW27239   2.888   5.219   2.922 -0.8176  0.0873  0.0405
 8890SOL    HW127240   2.854   5.136   2.954  0.4478 -0.1075  0.9738
 8890SOL    HW227241   2.929   5.260   2.999  0.0146  0.8092 -0.7565
 8891SOL     OW27242   3.373   7.369   4.888 -0.0372  0.0083 -0.3572
 8891SOL    HW127243   3.300   7.310   4.909 -0.9093  1.1538 -0.0147
 8891SOL    HW227244   3.412   7.332   4.809  0.6577 -2.0737  0.8889
 8892SOL     OW27245   2.741   5.850   7.202 -0.0257  0.0305 -0.7219
 8892SOL    HW127246   2.783   5.766   7.220  1.3524  0.9595  0.7225
 8892SOL    HW227247   2.757   5.866   7.109  0.2285 -1.0078 -0.8660
 8893SOL     OW27248   2.937   4.380   3.988  0.0909  0.0372  0.2281
 8893SOL    HW127249   3.024   4.384   4.028  1.1265  0.7926 -1.9196
 8893SOL    HW227250   2.884   4.332   4.051  1.7322  0.6172  2.1713
 8894SOL     OW27251   4.585   5.269   0.990  0.1748 -0.7239 -0.1444
 8894SOL    HW127252   4.495   5.251   1.016  1.1547 -1.4818  3.2956
 8894SOL    HW227253   4.605   5.204   0.922 -1.5960 -1.0320 -0.4097
 8895SOL     OW27254   5.783   4.263   5.569  0.1038  0.3372 -0.1678
 8895SOL    HW127255   5.744   4.213   5.641  1.4799  1.0937  1.1688
 8895SOL    HW227256   5.791   4.201   5.497 -4.0084  0.2647 -0.7827
 8896SOL     OW27257   1.260   5.324   3.859  0.1999 -0.0590 -0.3462
 8896SOL    HW127258   1.203   5.292   3.788 -0.2877  1.3709 -0.6221
 8896SOL    HW227259   1.333   5.262   3.860 -1.2765 -1.8800 -0.0558
 8897SOL     OW27260   0.312   2.801   1.154 -0.4048  0.2940  0.0117
 8897SOL    HW127261   0.404   2.810   1.126 -0.9948  1.3178 -1.7758
 8897SOL    HW227262   0.287   2.713   1.125  0.0348 -0.0383  0.6191
 8898SOL     OW27263   0.679   1.782   1.292  0.0502 -0.5827  0.4395
 8898SOL    HW127264   0.686   1.867   1.248 -1.9954  1.2062  3.1433
 8898SOL    HW227265   0.586   1.774   1.313  0.6478 -1.9684  2.9868
 8899SOL     OW27266   6.075   5.942   3.293  0.0925  0.4302 -0.1050
 8899SOL    HW127267   6.031   5.994   3.361  0.6628 -0.4033  0.9347
 8899SOL    HW227268   6.165   5.976   3.292 -0.0196  0.7157 -0.7403
 8900SOL     OW27269   6.818   1.482   5.461 -0.2727  0.5918  0.2643
 8900SOL    HW127270   6.769   1.412   5.417  0.8239  0.4693 -0.7992
 8900SOL    HW227271   6.794   1.562   5.413 -0.6340  0.7871  0.7543
 8901SOL     OW27272   2.707   2.576   1.231  0.3758  0.0971 -0.3028
 8901SOL    HW127273   2.642   2.506   1.245 -0.2249  0.2891 -1.9857
 8901SOL    HW227274   2.784   2.531   1.198 -0.1347  0.2274 -1.7433
 8902SOL     OW27275   0.989   5.008   0.040  0.0331 -0.1777 -0.4334
 8902SOL    HW127276   1.013   5.059   0.118  1.0764 -1.2604 -0.0078
 8902SOL    HW227277   1.016   4.919   0.062 -0.7609 -0.7116 -1.5846
 8903SOL     OW27278   7.169   5.683   0.040  0.7447 -0.2330 -0.3622
 8903SOL    HW127279   7.260   5.679   0.011  0.2206  1.2512 -2.4370
 8903SOL    HW227280   7.170   5.749   0.110  0.9737  1.5707 -1.9690
 8904SOL     OW27281   2.558   2.677   6.938 -0.0100 -0.5279  0.0798
 8904SOL    HW127282   2.569   2.583   6.950 -0.6558 -0.7605 -1.0733
 8904SOL    HW227283   2.521   2.708   7.021  0.2376 -1.2761  0.4745
 8905SOL     OW27284   5.487   1.623   0.729  0.4826 -0.1563 -0.2227
 8905SOL    HW127285   5.580   1.640   0.714  0.7134  0.6661  1.8739
 8905SOL    HW227286   5.484   1.534   0.766  0.1859 -1.0160 -2.1732
 8906SOL     OW27287   2.712   0.448   6.283 -0.2314 -0.1806  0.6344
 8906SOL    HW127288   2.675   0.485   6.203 -0.8835  0.5009  1.2396
 8906SOL    HW227289   2.754   0.521   6.328  2.8601 -1.0986 -0.5115
 8907SOL     OW27290   3.039   6.559   2.569  0.0720 -0.1874  0.8624
 8907SOL    HW127291   3.029   6.483   2.627  0.6748 -0.9686 -0.0148
 8907SOL    HW227292   2.980   6.541   2.496 -1.0056  0.9946  1.4104
 8908SOL     OW27293   6.225   2.025   4.324 -0.2193 -0.0722 -0.0566
 8908SOL    HW127294   6.186   2.074   4.252 -0.5824 -0.4432 -0.1129
 8908SOL    HW227295   6.318   2.046   4.319 -0.1575 -0.5453 -0.9764
 8909SOL     OW27296   4.963   2.211   5.233 -0.1613  0.5382  0.1266
 8909SOL    HW127297   4.976   2.254   5.318 -0.2425 -0.1043  0.4727
 8909SOL    HW227298   4.868   2.196   5.229 -0.2098  0.9511 -0.2686
 8910SOL     OW27299   5.925   7.240   5.536  0.1426 -0.2127 -0.0206
 8910SOL    HW127300   5.894   7.154   5.564  0.1562 -1.1554 -2.6718
 8910SOL    HW227301   5.998   7.259   5.596 -0.6411 -1.4475  1.3923
 8911SOL     OW27302   2.576   5.668   0.452 -0.2637 -0.2261 -0.4583
 8911SOL    HW127303   2.590   5.732   0.522  0.8128 -0.5908 -0.3187
 8911SOL    HW227304   2.649   5.683   0.391 -0.9624 -0.1827 -1.3053
 8912SOL     OW27305   5.168   7.061   1.354  0.0384 -0.5330 -0.0568
 8912SOL    HW127306   5.207   7.127   1.297  0.3585 -0.3181  0.4054
 8912SOL    HW227307   5.242   7.009   1.384 -0.3101 -1.8007 -1.2642
 8913SOL     OW27308   0.472   6.289   1.038  0.1184 -0.0532 -0.0457
 8913SOL    HW127309   0.444   6.198   1.038 -1.0242  0.2741  0.7010
 8913SOL    HW227310   0.551   6.290   0.984  0.2731 -1.5123  0.1101
 8914SOL     OW27311   5.750   2.880   2.279 -0.2463  0.0925  0.9880
 8914SOL    HW127312   5.812   2.902   2.349  1.4781 -0.6294 -0.2534
 8914SOL    HW227313   5.777   2.793   2.251 -2.5339 -0.7099  1.1109
 8915SOL     OW27314   7.275   2.970   0.767 -0.0002 -0.1417  0.2993
 8915SOL    HW127315   7.305   2.929   0.848  1.6072 -0.4389 -0.3958
 8915SOL    HW227316   7.342   3.036   0.748 -0.3921 -0.0220 -0.7259
 8916SOL     OW27317   0.874   3.838   1.414 -0.1064 -0.2460 -0.4007
 8916SOL    HW127318   0.834   3.896   1.479  0.9394  1.2670 -1.0651
 8916SOL    HW227319   0.933   3.783   1.465 -0.3227 -0.0235  0.1008
 8917SOL     OW27320   3.050   6.075   6.197  0.2065 -0.2335  0.1579
 8917SOL    HW127321   3.012   6.142   6.253  1.0764 -1.2245  2.0331
 8917SOL    HW227322   2.990   6.000   6.204  0.7866 -0.6757  0.5077
 8918SOL     OW27323   7.284   3.335   5.481  1.0067 -0.3077 -0.0826
 8918SOL    HW127324   7.266   3.313   5.390 -1.1684  0.1654  0.1765
 8918SOL    HW227325   7.212   3.392   5.507  2.7591  1.4111  1.3214
 8919SOL     OW27326   5.375   1.861   3.649 -0.2221  0.5251 -0.1899
 8919SOL    HW127327   5.398   1.919   3.577 -1.8225  0.9710 -0.3898
 8919SOL    HW227328   5.334   1.918   3.714 -0.1137 -0.0956  0.4383
 8920SOL     OW27329   1.672   5.876   0.820  0.1439 -0.2957  0.1483
 8920SOL    HW127330   1.730   5.943   0.856 -0.6810  0.0362  0.9000
 8920SOL    HW227331   1.688   5.799   0.874 -0.2121 -0.1625  0.4451
 8921SOL     OW27332   4.576   0.676   6.115  0.1343  0.3023 -0.1752
 8921SOL    HW127333   4.629   0.715   6.184  1.9867 -2.1474 -0.0846
 8921SOL    HW227334   4.582   0.738   6.042  1.4120  1.0705  0.5519
 8922SOL     OW27335   7.214   4.017   7.181 -0.3033  0.2262  0.0552
 8922SOL    HW127336   7.176   4.095   7.221  1.0868  0.8988  0.1115
 8922SOL    HW227337   7.254   4.048   7.100 -0.4469 -0.5824 -0.3330
 8923SOL     OW27338   7.330   5.145   2.055 -0.2026 -0.0492  0.0431
 8923SOL    HW127339   7.238   5.156   2.031  0.0575  0.9096 -0.5724
 8923SOL    HW227340   7.350   5.221   2.109 -0.4569 -1.5769  2.4549
 8924SOL     OW27341   4.779   1.569   3.309 -0.4020 -0.2941 -0.0270
 8924SOL    HW127342   4.735   1.506   3.252 -1.3962 -0.7589  1.2021
 8924SOL    HW227343   4.725   1.648   3.304 -0.1132 -0.1098 -0.2466
 8925SOL     OW27344   4.485   3.168   6.821  0.5139  0.1614  0.6088
 8925SOL    HW127345   4.479   3.228   6.746  2.6837 -0.1525  0.1278
 8925SOL    HW227346   4.412   3.107   6.808  0.9405  0.0043 -1.3656
 8926SOL     OW27347   5.328   3.649   5.536 -0.1964  0.2724 -0.1590
 8926SOL    HW127348   5.401   3.711   5.538 -0.2656  0.3407  1.3085
 8926SOL    HW227349   5.253   3.700   5.565 -0.7893  0.1175 -1.3512
 8927SOL     OW27350   2.073   3.115   2.645 -0.1008 -0.3432 -0.3074
 8927SOL    HW127351   2.062   3.085   2.736 -1.1769  0.8182 -0.0309
 8927SOL    HW227352   2.018   3.057   2.594  0.7602 -1.2117 -0.2810
 8928SOL     OW27353   1.436   4.232   7.004  0.4025 -0.3151 -0.8392
 8928SOL    HW127354   1.351   4.232   6.961 -1.2165  0.5239  2.1297
 8928SOL    HW227355   1.446   4.143   7.037  0.3882 -0.2505 -0.6604
 8929SOL     OW27356   5.461   1.677   5.896 -0.1192 -0.2438 -0.0938
 8929SOL    HW127357   5.555   1.678   5.917  0.2887 -0.1239 -1.8082
 8929SOL    HW227358   5.443   1.586   5.871 -0.8116 -0.6013  1.5517
 8930SOL     OW27359   6.377   1.181   2.791 -0.0115  0.3542  0.5841
 8930SOL    HW127360   6.297   1.199   2.741  0.8498  1.2353 -0.5322
 8930SOL    HW227361   6.424   1.116   2.739  0.3602  0.4206  0.8334
 8931SOL     OW27362   4.537   0.016   2.059 -0.4802 -0.0106  0.4002
 8931SOL    HW127363   4.632   0.007   2.053 -0.4082  1.1832 -0.6187
 8931SOL    HW227364   4.503  -0.030   1.983 -0.6950 -0.1720  0.5932
 8932SOL     OW27365   4.784   2.519   3.309 -0.3662  0.1736 -0.4720
 8932SOL    HW127366   4.827   2.456   3.251 -0.3903 -0.6115  0.3559
 8932SOL    HW227367   4.843   2.594   3.310  0.8047 -0.7333  0.3346
 8933SOL     OW27368   5.461   1.087   4.942  0.0987 -0.1622  0.0131
 8933SOL    HW127369   5.486   1.001   4.909 -0.0664 -0.3974  0.4989
 8933SOL    HW227370   5.543   1.138   4.940  0.2550 -0.4128 -0.0102
 8934SOL     OW27371   4.260   4.226   3.578  0.1028  0.0153  0.0102
 8934SOL    HW127372   4.306   4.143   3.567  0.2954  0.0413  0.5578
 8934SOL    HW227373   4.242   4.231   3.672 -1.5525 -0.2572 -0.2669
 8935SOL     OW27374   2.885   5.115   1.289 -0.5348 -0.0862 -0.5764
 8935SOL    HW127375   2.835   5.034   1.289 -2.1730  0.8833 -0.8307
 8935SOL    HW227376   2.934   5.112   1.371 -1.3988 -0.8464 -0.0652
 8936SOL     OW27377   2.714   2.262   2.532 -0.0967 -0.5984  0.0672
 8936SOL    HW127378   2.785   2.228   2.479  0.9514  1.1912  0.2417
 8936SOL    HW227379   2.634   2.237   2.485  0.7321 -0.5660 -1.4091
 8937SOL     OW27380   0.552   3.716   7.412 -0.6790  0.0760  0.0309
 8937SOL    HW127381   0.605   3.650   7.366 -1.4851  0.1751 -1.0866
 8937SOL    HW227382   0.462   3.694   7.390 -1.0306  0.7505  0.7571
 8938SOL     OW27383   6.505   4.728   0.255  0.6911  0.4917  0.4174
 8938SOL    HW127384   6.421   4.766   0.227  0.8087  0.0498 -0.5715
 8938SOL    HW227385   6.562   4.804   0.266 -0.0292  0.8509  1.7966
 8939SOL     OW27386   1.392   7.247   1.875 -0.1695  0.1174 -0.2618
 8939SOL    HW127387   1.466   7.263   1.818  1.0280 -0.1266  1.1555
 8939SOL    HW227388   1.375   7.330   1.918  2.1126 -0.6973  2.5591
 8940SOL     OW27389   1.546   4.187   4.376 -0.4427  0.2381  0.0252
 8940SOL    HW127390   1.630   4.153   4.407  0.3752  0.8693 -1.4099
 8940SOL    HW227391   1.505   4.225   4.454 -0.6623 -2.4501  1.3508
 8941SOL     OW27392   6.178   5.212   6.282  0.2557 -0.4400 -0.2793
 8941SOL    HW127393   6.179   5.189   6.189 -2.4566  0.2048 -0.5459
 8941SOL    HW227394   6.135   5.298   6.285 -0.7078 -0.9262  1.6275
 8942SOL     OW27395   2.255   4.681   4.061 -0.0641 -0.3026 -0.5068
 8942SOL    HW127396   2.170   4.701   4.021  0.0515  0.1393 -0.5452
 8942SOL    HW227397   2.237   4.612   4.125 -0.8582  1.2955  1.0700
 8943SOL     OW27398   0.015   1.869   0.483 -0.0405  0.0165  0.2987
 8943SOL    HW127399   0.053   1.782   0.483  0.5798  0.2782 -0.0266
 8943SOL    HW227400   0.071   1.920   0.424 -1.1950  0.2888 -0.6141
 8944SOL     OW27401   1.216   3.349   2.936  0.5047 -0.3499 -0.2879
 8944SOL    HW127402   1.169   3.303   2.866 -2.0092 -0.1862  1.1509
 8944SOL    HW227403   1.300   3.304   2.942  0.5932 -0.7444 -2.9709
 8945SOL     OW27404   7.031   0.213   1.216 -0.3535  0.4302 -0.3918
 8945SOL    HW127405   7.114   0.260   1.224 -0.8088  1.1024  0.5405
 8945SOL    HW227406   6.965   0.282   1.208 -0.8945 -0.0891 -0.4761
 8946SOL     OW27407   6.604   3.458   4.365 -0.0240 -0.2411  0.0237
 8946SOL    HW127408   6.509   3.465   4.379 -0.2317 -1.6729 -0.4502
 8946SOL    HW227409   6.614   3.464   4.270  0.0733 -2.3745 -0.1619
 8947SOL     OW27410   5.513   3.911   4.800 -0.1114 -0.5885  0.2622
 8947SOL    HW127411   5.420   3.918   4.819 -0.4175 -2.0383 -0.5853
 8947SOL    HW227412   5.527   3.965   4.722 -0.0197  0.4472  0.9730
 8948SOL     OW27413   6.364   1.268   5.919  0.3473  0.7619  0.1848
 8948SOL    HW127414   6.320   1.258   5.834 -0.3076 -0.0260  0.5930
 8948SOL    HW227415   6.409   1.184   5.932  0.3550  0.8389  0.6685
 8949SOL     OW27416   1.473   6.127   1.148 -0.2995  0.2069  0.8420
 8949SOL    HW127417   1.521   6.053   1.185  0.6528  0.4817  0.2154
 8949SOL    HW227418   1.539   6.175   1.098 -1.4826 -0.1084 -1.1401
 8950SOL     OW27419   2.895   6.031   1.575  0.0193  0.0890  0.0212
 8950SOL    HW127420   2.826   6.048   1.639  0.3439 -1.5118  0.8440
 8950SOL    HW227421   2.910   5.937   1.580  0.7538  0.0742 -1.7162
 8951SOL     OW27422   6.503   5.181   4.345 -0.3958 -0.8893  0.3461
 8951SOL    HW127423   6.577   5.123   4.361 -1.3101 -2.6225 -1.2879
 8951SOL    HW227424   6.432   5.143   4.397 -0.6373 -0.4038  0.3703
 8952SOL     OW27425   3.991   4.519   1.621  0.3245  0.6391  0.1782
 8952SOL    HW127426   4.023   4.431   1.641  1.8715  1.2862  0.7243
 8952SOL    HW227427   3.909   4.505   1.574  0.3234 -1.0799  0.6297
 8953SOL     OW27428   3.230   7.405   2.247  0.7372 -0.2263 -0.2218
 8953SOL    HW127429   3.289   7.380   2.318 -0.0266 -1.9901 -0.1490
 8953SOL    HW227430   3.258   7.351   2.173  0.2849  0.1595 -0.6847
 8954SOL     OW27431   4.112   3.286   0.083 -0.1155 -0.2051 -0.0473
 8954SOL    HW127432   4.159   3.211   0.120  0.6602  0.5983  0.6439
 8954SOL    HW227433   4.033   3.293   0.137  1.0929  1.0668  1.6937
 8955SOL     OW27434   4.803   3.190   4.781 -0.5032 -0.5291  0.0335
 8955SOL    HW127435   4.812   3.103   4.742 -1.5483 -1.4435  1.7270
 8955SOL    HW227436   4.724   3.227   4.740 -0.0822 -0.3898 -0.6560
 8956SOL     OW27437   1.051   1.697   1.148  0.0874  0.2767  0.2447
 8956SOL    HW127438   0.958   1.677   1.158  0.0294 -1.5852 -2.6469
 8956SOL    HW227439   1.053   1.787   1.117 -0.9318 -0.0381 -0.8493
 8957SOL     OW27440   1.565   6.196   3.163  0.0031 -0.3394  0.4764
 8957SOL    HW127441   1.517   6.195   3.246 -0.2960  0.6868  0.3389
 8957SOL    HW227442   1.498   6.213   3.097  0.2142 -1.3221 -0.0023
 8958SOL     OW27443   3.671   5.629   2.785  0.0324  0.1567  0.1116
 8958SOL    HW127444   3.710   5.574   2.717  0.4345 -1.1817  1.3606
 8958SOL    HW227445   3.716   5.713   2.777  0.9553 -0.3739 -0.4866
 8959SOL     OW27446   1.360   3.690   6.361 -0.0146  0.2270  0.1100
 8959SOL    HW127447   1.421   3.764   6.356  0.6040 -0.2315  0.6447
 8959SOL    HW227448   1.417   3.613   6.364 -0.6301 -0.2118  0.6866
 8960SOL     OW27449   2.649   0.437   4.771 -0.0693 -0.2518  1.0644
 8960SOL    HW127450   2.641   0.532   4.756  0.4694 -0.7733 -4.2976
 8960SOL    HW227451   2.559   0.409   4.789 -0.1780  1.2172  3.2111
 8961SOL     OW27452   3.252   2.225   5.755  0.3108 -0.1273 -0.8041
 8961SOL    HW127453   3.211   2.158   5.811  0.2281  0.5685 -0.0071
 8961SOL    HW227454   3.343   2.198   5.749  0.4908  0.1951  0.3096
 8962SOL     OW27455   4.158   5.919   4.660 -0.4334 -0.0697 -0.0212
 8962SOL    HW127456   4.204   5.865   4.595  0.5710  0.6858  0.0215
 8962SOL    HW227457   4.225   5.937   4.726 -0.9956  0.5133  0.3910
 8963SOL     OW27458   6.565   0.825   7.356 -0.2565 -0.4690 -0.0203
 8963SOL    HW127459   6.560   0.832   7.452 -3.2014  1.4661 -0.1890
 8963SOL    HW227460   6.628   0.755   7.341  0.0049 -1.1546  3.3332
 8964SOL     OW27461   0.650   6.716   5.234 -0.2137  0.4317  0.5162
 8964SOL    HW127462   0.606   6.791   5.275  0.3958  0.2284  1.5860
 8964SOL    HW227463   0.674   6.660   5.307  1.4344  0.3322 -0.0552
 8965SOL     OW27464   2.404   3.529   1.831  0.0736 -0.0623  0.1556
 8965SOL    HW127465   2.450   3.446   1.838  1.6070  0.8228  1.0942
 8965SOL    HW227466   2.443   3.573   1.756  0.3590  0.4373  0.5857
 8966SOL     OW27467   0.314   6.360   4.026  0.0470  0.4646 -0.6374
 8966SOL    HW127468   0.231   6.316   4.045 -0.1068  1.0022 -0.0595
 8966SOL    HW227469   0.378   6.314   4.079  0.1759 -0.1083 -1.2638
 8967SOL     OW27470   2.353   5.401   3.073  0.1410  0.4047  0.1462
 8967SOL    HW127471   2.438   5.359   3.087  0.3849  0.7094 -0.3927
 8967SOL    HW227472   2.298   5.368   3.144  0.7437  0.2980  0.5708
 8968SOL     OW27473   4.945   4.168   1.932  0.2629  1.0394 -0.3743
 8968SOL    HW127474   4.850   4.170   1.933  0.2503  1.4792  1.5414
 8968SOL    HW227475   4.968   4.093   1.986  1.0501 -0.3327 -2.4820
 8969SOL     OW27476   4.957   5.565   0.313  0.3366  0.1165  0.2884
 8969SOL    HW127477   5.037   5.617   0.315  2.4245 -2.8367  0.2447
 8969SOL    HW227478   4.895   5.615   0.366  2.1545  2.5465  0.3163
 8970SOL     OW27479   2.439   3.067   2.996  1.3898  0.1981 -0.3911
 8970SOL    HW127480   2.407   3.154   3.022 -1.1626 -0.4484 -1.1010
 8970SOL    HW227481   2.457   3.023   3.079  1.3381  0.9214  0.0167
 8971SOL     OW27482   5.666   0.383   4.254  0.8324 -0.4279  0.5015
 8971SOL    HW127483   5.669   0.308   4.195  2.4379 -0.4845  0.5951
 8971SOL    HW227484   5.587   0.431   4.229  0.4160 -1.5074 -0.3408
 8972SOL     OW27485   6.030   5.150   1.862  0.0522 -0.5170  0.0687
 8972SOL    HW127486   6.113   5.183   1.896  0.5861 -0.9062 -0.8189
 8972SOL    HW227487   5.988   5.226   1.822  0.9204 -0.7364 -1.2833
 8973SOL     OW27488   0.734   2.102   2.832  0.8588  0.0882  0.4400
 8973SOL    HW127489   0.678   2.164   2.785  2.0510 -0.2590 -1.5920
 8973SOL    HW227490   0.674   2.042   2.875 -0.3787 -0.1016 -1.4407
 8974SOL     OW27491   3.928   5.791   1.962 -0.5313  0.1874  0.1178
 8974SOL    HW127492   3.867   5.863   1.977 -1.1227  0.6206 -3.4624
 8974SOL    HW227493   4.014   5.833   1.956 -0.7657  0.5498 -1.0815
 8975SOL     OW27494   0.928   0.386   3.748  0.6218 -0.1268  0.0273
 8975SOL    HW127495   1.001   0.328   3.727  1.1586  0.3001  0.6887
 8975SOL    HW227496   0.853   0.347   3.703  1.0763 -1.0454  0.0470
 8976SOL     OW27497   5.372   3.389   1.556  0.1391 -0.2112  0.1888
 8976SOL    HW127498   5.444   3.384   1.619 -0.4385 -0.5149  0.8396
 8976SOL    HW227499   5.395   3.324   1.489  0.0856 -0.8903  0.8120
 8977SOL     OW27500   0.138   3.753   2.827  0.1982 -0.1452 -0.4220
 8977SOL    HW127501   0.153   3.706   2.909 -1.3432 -0.7766 -0.4703
 8977SOL    HW227502   0.113   3.841   2.854 -0.9048 -0.5213 -0.1705
 8978SOL     OW27503   6.648   2.882   7.026  0.0674 -0.2484  0.2565
 8978SOL    HW127504   6.605   2.928   7.097 -0.7956 -1.3367  0.4615
 8978SOL    HW227505   6.629   2.934   6.948  0.1919  0.4138  0.6613
 8979SOL     OW27506   5.725   0.993   2.297  0.4049 -0.3206  0.2155
 8979SOL    HW127507   5.679   1.075   2.276  1.1293  0.2437  0.7988
 8979SOL    HW227508   5.712   0.938   2.219 -0.1415  0.3230 -0.1577
 8980SOL     OW27509   6.622   7.325   1.645 -0.1358  0.8138  0.1014
 8980SOL    HW127510   6.608   7.358   1.734  2.0632 -0.6001  1.0721
 8980SOL    HW227511   6.707   7.360   1.620 -0.0950  0.0616 -0.8649
 8981SOL     OW27512   3.185   6.298   6.750  0.2055 -0.4625  0.5454
 8981SOL    HW127513   3.186   6.380   6.700  1.9928  0.0332  1.3246
 8981SOL    HW227514   3.232   6.235   6.696 -0.4753 -0.7659  0.2984
 8982SOL     OW27515   3.982   4.982   3.132  0.0287  0.2039 -0.7628
 8982SOL    HW127516   4.058   5.037   3.112  0.5411 -0.4768 -0.7454
 8982SOL    HW227517   3.998   4.900   3.084 -1.7812  0.8218 -2.5944
 8983SOL     OW27518   4.007   0.839   7.357 -0.3635  0.2816  0.0786
 8983SOL    HW127519   4.102   0.854   7.357 -0.7167  2.9848 -0.9474
 8983SOL    HW227520   3.992   0.782   7.281  0.4795 -0.9137  0.7710
 8984SOL     OW27521   4.050   5.215   6.436 -0.1483 -0.1792 -0.1563
 8984SOL    HW127522   3.984   5.169   6.487 -0.5029  0.1802 -0.2868
 8984SOL    HW227523   4.126   5.156   6.436 -0.5895 -0.7595 -0.3193
 8985SOL     OW27524   1.841   3.906   5.968  0.7039 -0.0459  0.1605
 8985SOL    HW127525   1.769   3.924   5.908  1.1570  0.9758 -0.0865
 8985SOL    HW227526   1.915   3.955   5.932  1.2263 -0.1760  1.0436
 8986SOL     OW27527   2.206   2.445   4.039 -0.0050 -0.9622  0.0978
 8986SOL    HW127528   2.180   2.353   4.048 -0.8148 -0.7724 -0.1519
 8986SOL    HW227529   2.203   2.461   3.944  0.0431 -0.6591  0.1466
 8987SOL     OW27530   6.859   2.305   6.813 -0.4193  0.1359  0.2647
 8987SOL    HW127531   6.817   2.317   6.898  0.0898 -0.1874  0.5681
 8987SOL    HW227532   6.791   2.268   6.758 -0.3565 -1.0312  0.9440
 8988SOL     OW27533   1.902   4.317   4.203 -0.5464  0.1396 -0.3806
 8988SOL    HW127534   1.851   4.315   4.284 -1.5612 -2.5856 -0.9847
 8988SOL    HW227535   1.907   4.225   4.175  0.0712  0.9339 -3.2268
 8989SOL     OW27536   0.585   1.421   2.633 -0.0119 -0.1028 -0.0888
 8989SOL    HW127537   0.549   1.368   2.704 -0.7183  2.3557  1.5058
 8989SOL    HW227538   0.634   1.490   2.676 -1.0530  1.9019 -1.9095
 8990SOL     OW27539   6.921   5.269   5.131  0.1478  0.2077 -0.3235
 8990SOL    HW127540   6.942   5.292   5.040 -1.5995  0.8725 -0.5830
 8990SOL    HW227541   6.827   5.251   5.131  0.4251 -1.5296  1.0151
 8991SOL     OW27542   4.110   4.679   6.026  0.1296  0.5541  0.1265
 8991SOL    HW127543   4.129   4.770   6.004  1.9094  0.1959 -0.0108
 8991SOL    HW227544   4.157   4.628   5.959  0.4913 -0.4622  1.1218
 8992SOL     OW27545   5.840   5.336   3.730  0.3126  0.1852  0.3359
 8992SOL    HW127546   5.802   5.324   3.643  1.1479  0.3858 -0.0641
 8992SOL    HW227547   5.922   5.382   3.715 -0.0014  1.1170  1.3298
 8993SOL     OW27548   0.779   4.339   4.793  0.1898 -0.0146 -0.0069
 8993SOL    HW127549   0.826   4.421   4.780 -0.1469  0.4977  1.7563
 8993SOL    HW227550   0.688   4.358   4.769 -0.0403  0.3696  1.1137
 8994SOL     OW27551   3.166   0.910   4.744  0.4802  0.2769  0.0175
 8994SOL    HW127552   3.251   0.880   4.711  0.8370 -1.2092  2.0791
 8994SOL    HW227553   3.163   0.878   4.834 -1.5475  1.8134  0.5702
 8995SOL     OW27554   7.304   4.513   4.740  0.0132 -0.0022  0.6613
 8995SOL    HW127555   7.270   4.438   4.690 -0.0185  0.0862  0.5509
 8995SOL    HW227556   7.230   4.574   4.744  0.2276  0.2900  0.2260
 8996SOL     OW27557   4.051   2.826   4.574  0.2723  0.3718  0.3842
 8996SOL    HW127558   4.078   2.910   4.611 -0.3543  0.9280 -0.3799
 8996SOL    HW227559   4.008   2.849   4.491 -0.5285 -0.6495  0.4953
 8997SOL     OW27560   6.474   3.538   4.717 -0.5091  0.1775  0.0460
 8997SOL    HW127561   6.415   3.564   4.647 -1.2127 -2.4693 -0.4403
 8997SOL    HW227562   6.427   3.470   4.764  2.0597 -1.9731 -0.2839
 8998SOL     OW27563   5.080   3.743   5.654  0.0705  0.2356  0.0934
 8998SOL    HW127564   5.058   3.791   5.574  1.5041 -0.2970 -0.6500
 8998SOL    HW227565   5.067   3.807   5.724  0.5236  1.2639 -0.7341
 8999SOL     OW27566   4.390   1.726   2.692 -0.6710 -0.2684  0.2429
 8999SOL    HW127567   4.482   1.702   2.702 -1.0153 -1.0211  1.8833
 8999SOL    HW227568   4.342   1.644   2.700 -1.5542  0.2528  0.4571
 9000SOL     OW27569   6.564   6.719   3.291 -0.0184  0.0481 -0.4761
 9000SOL    HW127570   6.623   6.672   3.231 -0.2808 -0.5839 -0.2527
 9000SOL    HW227571   6.620   6.783   3.335  0.6589 -0.9681  0.1943
 9001SOL     OW27572   6.562   7.075   2.064 -0.5193  0.4247 -0.2970
 9001SOL    HW127573   6.612   7.093   1.984 -1.9418 -1.6842 -1.7537
 9001SOL    HW227574   6.586   6.985   2.088 -4.2284 -1.1237 -1.6928
 9002SOL     OW27575   3.040   2.795   2.485 -0.4119  0.6314  0.2860
 9002SOL    HW127576   3.048   2.817   2.392 -1.6114  1.2294  0.3066
 9002SOL    HW227577   2.975   2.857   2.519 -1.5810 -0.9491  1.0435
 9003SOL     OW27578   6.958   0.305   7.020 -0.0742  0.2535  0.1381
 9003SOL    HW127579   6.921   0.231   6.973  0.6486  0.9666 -1.6093
 9003SOL    HW227580   6.913   0.304   7.105 -2.0709 -0.5556 -0.8600
 9004SOL     OW27581   2.000   3.316   5.186  0.2714  0.3624 -0.0154
 9004SOL    HW127582   2.029   3.294   5.098 -0.5113 -1.1275  0.0707
 9004SOL    HW227583   1.905   3.316   5.182  0.2101 -0.5637  1.0094
 9005SOL     OW27584   4.923   3.094   6.192 -0.0081  0.1003 -0.5628
 9005SOL    HW127585   4.959   3.005   6.188  0.3497  0.2718 -1.6224
 9005SOL    HW227586   5.000   3.151   6.185 -0.3327  0.4782 -1.2011
 9006SOL     OW27587   2.243   6.347   6.060  0.0147  0.4346  0.3225
 9006SOL    HW127588   2.333   6.320   6.041  0.4408  1.4755  0.7393
 9006SOL    HW227589   2.238   6.347   6.155 -1.1078 -1.6508  0.3080
 9007SOL     OW27590   6.730   7.122   5.206 -0.2602 -0.0260  0.0883
 9007SOL    HW127591   6.805   7.165   5.246  0.3889 -1.1183  0.0742
 9007SOL    HW227592   6.670   7.194   5.184 -0.1004  0.7027  1.8651
 9008SOL     OW27593   4.256   3.747   5.062 -0.1243  0.2580  0.1954
 9008SOL    HW127594   4.167   3.725   5.033  0.1730  0.4866 -0.9568
 9008SOL    HW227595   4.245   3.818   5.125 -0.8159 -0.3968  0.8332
 9009SOL     OW27596   5.297   1.113   0.120  0.2464  0.2799 -0.2734
 9009SOL    HW127597   5.274   1.187   0.176  0.1403 -0.1135  0.2106
 9009SOL    HW227598   5.392   1.104   0.129  0.4117  1.0020 -1.1483
 9010SOL     OW27599   5.679   2.397   4.076  0.2334 -0.3518 -0.1647
 9010SOL    HW127600   5.736   2.361   4.144 -0.0601 -0.5217 -0.0060
 9010SOL    HW227601   5.610   2.442   4.124  0.2205 -0.1634 -0.3574
 9011SOL     OW27602   3.071   6.539   6.637  0.3070  0.2832 -0.1173
 9011SOL    HW127603   3.058   6.616   6.581 -0.0473 -0.6571 -1.3954
 9011SOL    HW227604   2.985   6.497   6.639  0.4548  0.0177  0.7209
 9012SOL     OW27605   2.832   1.327   4.149  0.7555  0.1677 -0.5121
 9012SOL    HW127606   2.768   1.303   4.082  0.4245  1.0803 -0.5370
 9012SOL    HW227607   2.915   1.334   4.101  0.2244  2.5747 -1.2395
 9013SOL     OW27608   5.473   1.633   3.045  0.2989 -0.0893 -0.0462
 9013SOL    HW127609   5.507   1.722   3.052  1.0106 -0.4245  1.0482
 9013SOL    HW227610   5.382   1.644   3.018  0.4119  0.9669 -0.0316
 9014SOL     OW27611   3.078   3.676   5.867 -0.1244 -0.1756  0.0804
 9014SOL    HW127612   3.119   3.625   5.796 -0.3371  1.9782 -1.7181
 9014SOL    HW227613   3.020   3.615   5.911  0.4664 -1.7548 -1.2399
 9015SOL     OW27614   2.984   3.968   4.221 -0.3310  0.1743 -0.0586
 9015SOL    HW127615   3.011   3.919   4.299 -1.8202 -0.1615  0.2767
 9015SOL    HW227616   3.067   3.990   4.177  0.6512  1.5310  2.2733
 9016SOL     OW27617   5.083   3.933   5.423 -0.5286  0.1731  0.2237
 9016SOL    HW127618   5.021   3.999   5.452  0.2285  1.5693 -1.1618
 9016SOL    HW227619   5.169   3.973   5.436 -0.0636 -0.3831 -0.9611
 9017SOL     OW27620   2.139   0.156   3.517  0.2120  0.2517  0.2987
 9017SOL    HW127621   2.227   0.187   3.537  0.0153  1.0177  0.0060
 9017SOL    HW227622   2.147   0.114   3.432  0.5592 -0.8855  0.8674
 9018SOL     OW27623   3.071   1.023   7.365 -0.2392  0.1460  0.8822
 9018SOL    HW127624   3.061   0.929   7.349 -0.9381  0.2543  0.6352
 9018SOL    HW227625   2.990   1.062   7.331 -0.0157  0.8227  1.1035
 9019SOL     OW27626   5.808   2.158   2.068 -0.1731  0.5577 -0.1105
 9019SOL    HW127627   5.808   2.074   2.115 -0.2260  0.8392  0.4069
 9019SOL    HW227628   5.795   2.135   1.976  1.0640 -0.0856 -0.1407
 9020SOL     OW27629   0.908   5.039   6.698  0.1953 -0.3888 -0.2116
 9020SOL    HW127630   0.850   4.966   6.718 -1.9149  1.3737  0.5494
 9020SOL    HW227631   0.850   5.106   6.660  1.9262  1.0812 -0.4087
 9021SOL     OW27632   4.583   2.725   2.735  0.0702 -0.1866  0.2371
 9021SOL    HW127633   4.592   2.707   2.829 -1.6581 -1.4556  0.2064
 9021SOL    HW227634   4.634   2.656   2.692 -0.2929 -0.4615  0.2393
 9022SOL     OW27635   1.130   7.326   1.482  0.2256  0.3808 -0.4834
 9022SOL    HW127636   1.048   7.366   1.454  0.0752  0.7345  0.4247
 9022SOL    HW227637   1.125   7.325   1.577  1.1271  0.0928 -0.4267
 9023SOL     OW27638   3.865   0.945   1.852 -0.0421  1.0354 -0.2148
 9023SOL    HW127639   3.845   1.028   1.808 -1.8304 -0.0143 -1.5704
 9023SOL    HW227640   3.779   0.908   1.873  0.7405  0.2427  1.8296
 9024SOL     OW27641   1.960   6.308   2.610  0.1580  0.2996 -0.9554
 9024SOL    HW127642   1.894   6.340   2.548  0.1721 -0.3157 -1.2932
 9024SOL    HW227643   1.913   6.243   2.663  0.6582 -0.6572 -1.6564
 9025SOL     OW27644   4.634   5.156   4.596  0.0814 -0.1922 -0.5380
 9025SOL    HW127645   4.555   5.191   4.637  0.0952  1.1737 -1.6127
 9025SOL    HW227646   4.701   5.222   4.613  0.0853  0.4383 -2.6999
 9026SOL     OW27647   1.884   0.975   1.611  0.4288  0.2628 -0.1721
 9026SOL    HW127648   1.877   0.960   1.706  1.1108  1.1806  0.0355
 9026SOL    HW227649   1.854   1.065   1.599 -0.2306 -0.0518 -0.9170
 9027SOL     OW27650   1.879   7.249   7.331  0.0096  0.0789 -0.6374
 9027SOL    HW127651   1.870   7.344   7.329 -0.7030  0.0456  0.0982
 9027SOL    HW227652   1.945   7.232   7.398 -1.2868  0.0112  0.6808
 9028SOL     OW27653   5.721   4.504   2.883 -0.4463  0.0301 -0.0830
 9028SOL    HW127654   5.712   4.565   2.956  1.1346 -0.8108  0.8651
 9028SOL    HW227655   5.796   4.449   2.905 -0.6207 -1.0180 -1.8079
 9029SOL     OW27656   6.920   4.712   6.738 -0.3754 -0.2831  0.5550
 9029SOL    HW127657   6.832   4.678   6.753  0.4100 -1.9905  1.7743
 9029SOL    HW227658   6.977   4.636   6.752  1.2124  0.4171 -1.6658
 9030SOL     OW27659   5.789   0.062   2.947 -0.0074  0.5559 -0.8707
 9030SOL    HW127660   5.697   0.041   2.932 -0.0608 -1.2848  1.5286
 9030SOL    HW227661   5.830  -0.021   2.971  1.8366  1.6612  0.1202
 9031SOL     OW27662   5.039   4.379   3.407 -0.0809 -0.1524  0.4137
 9031SOL    HW127663   4.976   4.438   3.448  0.2519  0.7377 -0.3209
 9031SOL    HW227664   5.042   4.406   3.315 -0.2682 -1.6192 -0.0600
 9032SOL     OW27665   5.825   0.779   7.243 -0.0024  0.0812  0.9248
 9032SOL    HW127666   5.799   0.871   7.252  3.0787  1.3089 -1.2355
 9032SOL    HW227667   5.883   0.763   7.317  0.1652  0.1557  0.8098
 9033SOL     OW27668   0.580   1.816   5.677 -0.2804  0.0500  0.6696
 9033SOL    HW127669   0.613   1.741   5.726  1.1071 -0.9766 -1.6339
 9033SOL    HW227670   0.488   1.824   5.703 -0.7634 -3.1210  0.3197
 9034SOL     OW27671   6.468   3.653   2.458  0.0800  0.5678  0.8396
 9034SOL    HW127672   6.433   3.601   2.386 -0.3194 -1.2006  2.2642
 9034SOL    HW227673   6.559   3.671   2.432 -1.3493  4.5887 -2.5512
 9035SOL     OW27674   3.399   3.070   3.288  0.1299  0.0260 -0.2919
 9035SOL    HW127675   3.454   3.023   3.350 -0.8299  1.9695  2.1932
 9035SOL    HW227676   3.309   3.051   3.315 -0.3365  3.7270  1.4332
 9036SOL     OW27677   4.983   0.532   1.734 -0.2168  0.0530  0.2731
 9036SOL    HW127678   4.927   0.490   1.669  1.7336  0.4377 -1.7897
 9036SOL    HW227679   5.063   0.553   1.686  1.0700  0.9775  2.6732
 9037SOL     OW27680   2.891   3.309   0.201 -0.0470 -0.1881  0.0933
 9037SOL    HW127681   2.879   3.252   0.125 -0.5475  1.2348 -0.9446
 9037SOL    HW227682   2.807   3.353   0.212  0.2312  0.1361  1.0590
 9038SOL     OW27683   0.018   3.182   6.253  0.2892  0.5094 -0.1432
 9038SOL    HW127684   0.083   3.252   6.242 -0.0119  0.4615 -2.7790
 9038SOL    HW227685  -0.061   3.227   6.282  0.4793  1.0715 -0.4833
 9039SOL     OW27686   6.341   5.833   4.432  0.2472  0.2254  0.2777
 9039SOL    HW127687   6.415   5.779   4.405  0.7874  0.1641  1.8117
 9039SOL    HW227688   6.370   5.923   4.416  1.6780  0.3573  3.1105
 9040SOL     OW27689   3.649   2.288   4.387  0.5962  0.0266  0.1214
 9040SOL    HW127690   3.637   2.380   4.408  1.5488  0.0463  0.6662
 9040SOL    HW227691   3.718   2.287   4.320  0.1477 -0.2560 -0.3411
 9041SOL     OW27692   2.140   6.118   6.243  0.1121 -0.1855  0.0568
 9041SOL    HW127693   2.188   6.193   6.275  0.8777 -0.5018 -0.3299
 9041SOL    HW227694   2.081   6.094   6.315  2.7880 -1.7811  1.8606
 9042SOL     OW27695   1.846   4.463   1.140  0.2654 -0.4242  0.1272
 9042SOL    HW127696   1.909   4.479   1.210  0.7566 -0.5389 -0.2877
 9042SOL    HW227697   1.891   4.486   1.059 -0.1534 -0.6874 -0.1943
 9043SOL     OW27698   2.635   2.703   2.979 -0.8291 -0.0521  0.2116
 9043SOL    HW127699   2.665   2.743   2.897 -3.4837  0.5032 -0.6001
 9043SOL    HW227700   2.604   2.776   3.032 -1.8838 -0.6355  0.4421
 9044SOL     OW27701   4.699   6.283   6.314  0.1875 -0.7177 -0.3869
 9044SOL    HW127702   4.726   6.315   6.228 -0.6831  1.5295  0.1015
 9044SOL    HW227703   4.619   6.331   6.333  0.4124 -1.0868  1.7307
 9045SOL     OW27704   5.833   7.235   4.387  0.0579 -0.0715  0.2797
 9045SOL    HW127705   5.843   7.328   4.410  0.1492 -0.1169  0.4260
 9045SOL    HW227706   5.918   7.196   4.410 -0.1716 -0.2995  0.7405
 9046SOL     OW27707   1.746   5.203   0.977 -0.7367  0.3102  0.4365
 9046SOL    HW127708   1.711   5.118   0.949 -1.7848  0.7779  0.2978
 9046SOL    HW227709   1.798   5.233   0.903  0.0816 -0.4407  0.6843
 9047SOL     OW27710   4.789   0.455   7.287  0.1223  0.1490  0.4391
 9047SOL    HW127711   4.831   0.474   7.370 -0.1072 -0.3203  0.6650
 9047SOL    HW227712   4.696   0.458   7.305  0.0443  1.0860 -0.0381
 9048SOL     OW27713   3.844   3.040   3.078  0.1408 -0.1062  0.0164
 9048SOL    HW127714   3.939   3.039   3.091  0.3920 -0.6534 -1.5640
 9048SOL    HW227715   3.816   3.123   3.115  1.4731  0.7579 -0.8072
 9049SOL     OW27716   0.512   5.720   3.175 -0.5671  0.0086 -0.0307
 9049SOL    HW127717   0.602   5.688   3.176  0.4182  2.3972 -1.9025
 9049SOL    HW227718   0.459   5.641   3.183  1.6579 -1.5913  0.0606
 9050SOL     OW27719   3.830   1.846   3.570  0.2441  0.3736 -0.2680
 9050SOL    HW127720   3.848   1.803   3.654  0.7722 -0.6662 -0.8873
 9050SOL    HW227721   3.887   1.922   3.570 -1.2235  1.5434  1.1555
 9051SOL     OW27722   6.615   0.457   6.359  0.1312  0.8060  0.0582
 9051SOL    HW127723   6.677   0.521   6.395  2.1170 -1.9832  1.9777
 9051SOL    HW227724   6.661   0.418   6.285 -0.2390  0.2087  0.1399
 9052SOL     OW27725   4.032   1.212   6.049  0.1542  0.7071  0.2878
 9052SOL    HW127726   3.988   1.170   6.123 -0.0077  1.6306  0.7164
 9052SOL    HW227727   4.024   1.306   6.065 -0.1390  0.9360 -1.0463
 9053SOL     OW27728   0.615   3.425   2.873  0.2752 -0.1347  0.4190
 9053SOL    HW127729   0.632   3.504   2.822 -0.2104 -0.9503 -1.0875
 9053SOL    HW227730   0.541   3.384   2.829  0.1834 -1.1662  1.4871
 9054SOL     OW27731   6.981   7.084   3.944 -0.2341  0.1664 -0.0919
 9054SOL    HW127732   7.026   7.048   3.867 -0.2780  1.2995 -0.6582
 9054SOL    HW227733   6.888   7.080   3.922 -0.3162 -0.4561  0.3325
 9055SOL     OW27734   5.507   3.619   2.608 -0.1615  0.6250  0.6717
 9055SOL    HW127735   5.575   3.632   2.674  0.8341  0.1672 -0.2206
 9055SOL    HW227736   5.527   3.685   2.541  0.6140 -0.7508 -0.5140
 9056SOL     OW27737   3.153   6.934   4.294 -0.5514  0.0688  0.9575
 9056SOL    HW127738   3.072   6.955   4.246  0.4344  1.1407 -0.3150
 9056SOL    HW227739   3.196   6.868   4.240 -0.3001 -0.0813  1.3417
 9057SOL     OW27740   7.169   2.815   2.713 -0.2431  0.3983  0.0689
 9057SOL    HW127741   7.122   2.866   2.646 -0.8371  2.7224  2.1124
 9057SOL    HW227742   7.193   2.733   2.669 -1.8234  1.2333 -2.5359
 9058SOL     OW27743   5.341   4.756   6.749 -0.0114 -0.2636  0.6186
 9058SOL    HW127744   5.329   4.661   6.752  2.2402 -1.0815 -4.9888
 9058SOL    HW227745   5.432   4.770   6.775  0.1448  0.1659 -0.1534
 9059SOL     OW27746   1.941   5.492   2.606 -0.1268 -0.0264  0.0097
 9059SOL    HW127747   1.988   5.556   2.553  0.0521  0.4864  0.7676
 9059SOL    HW227748   1.927   5.417   2.548  1.5578 -0.1684 -0.2505
 9060SOL     OW27749   6.251   6.034   6.815 -0.2564  0.1128 -0.3541
 9060SOL    HW127750   6.196   5.958   6.796  1.4221 -0.7832 -1.9701
 9060SOL    HW227751   6.239   6.050   6.909 -2.7839 -0.3539 -0.5222
 9061SOL     OW27752   6.614   3.131   5.731 -0.6369 -0.1977 -0.1977
 9061SOL    HW127753   6.532   3.107   5.775 -1.5021  1.7705 -0.6160
 9061SOL    HW227754   6.587   3.184   5.656  0.9889 -0.1987 -0.8283
 9062SOL     OW27755   4.001   4.012   0.983 -0.1985  0.0873  0.2916
 9062SOL    HW127756   4.010   4.042   0.892  0.2759  1.9149  0.8988
 9062SOL    HW227757   3.908   3.987   0.990 -0.5861  1.2619 -0.3401
 9063SOL     OW27758   3.064   0.449   7.119  0.4000 -0.1275 -0.3819
 9063SOL    HW127759   3.121   0.526   7.115  1.5037 -0.9567 -1.2776
 9063SOL    HW227760   3.057   0.429   7.213  1.8860 -0.2055 -0.2637
 9064SOL     OW27761   1.384   2.317   5.188 -0.5412  0.4465  0.6954
 9064SOL    HW127762   1.405   2.410   5.194  0.5931  0.2238  0.3673
 9064SOL    HW227763   1.400   2.295   5.097  1.6830 -0.6298  1.3007
 9065SOL     OW27764   0.032   1.742   5.079  0.1566  0.6098  0.0381
 9065SOL    HW127765   0.073   1.829   5.082  0.8115  0.3168 -0.1295
 9065SOL    HW227766  -0.045   1.754   5.023  0.6352  0.9296 -0.5690
 9066SOL     OW27767   6.494   4.645   2.688 -0.0864  0.1662 -0.1888
 9066SOL    HW127768   6.585   4.638   2.716  0.5186 -0.5320 -2.2033
 9066SOL    HW227769   6.481   4.739   2.674  0.4197  0.2388 -0.1878
 9067SOL     OW27770   7.107   0.816   2.175 -0.1449 -0.3374  0.2976
 9067SOL    HW127771   7.077   0.855   2.092 -0.3927  0.9576  0.9668
 9067SOL    HW227772   7.114   0.723   2.156 -2.9069 -0.4919 -0.4250
 9068SOL     OW27773   1.336   0.883   3.828  0.3710 -0.0992 -0.4581
 9068SOL    HW127774   1.421   0.885   3.785  0.0308  1.0103 -1.1185
 9068SOL    HW227775   1.279   0.936   3.772 -0.3103  0.6350  0.8718
 9069SOL     OW27776   1.878   2.155   2.630  0.5230 -0.0912 -0.1330
 9069SOL    HW127777   1.859   2.199   2.547  1.8337  0.8935  0.0636
 9069SOL    HW227778   1.953   2.099   2.612  0.0665 -0.7963  0.1041
 9070SOL     OW27779   3.329   1.429   4.111  0.1199  0.0953  0.2361
 9070SOL    HW127780   3.394   1.359   4.118  0.7117  0.5504 -0.5068
 9070SOL    HW227781   3.292   1.419   4.023  2.0882  2.2499 -0.9670
 9071SOL     OW27782   0.529   0.161   5.566 -0.6213 -0.2070  0.0112
 9071SOL    HW127783   0.618   0.178   5.535  0.5233 -0.0580  3.0139
 9071SOL    HW227784   0.538   0.085   5.623 -2.1819  0.4948  1.2588
 9072SOL     OW27785   0.744   5.126   2.720 -0.6198  0.1084  0.2150
 9072SOL    HW127786   0.784   5.047   2.684 -1.6858  0.4723 -1.9105
 9072SOL    HW227787   0.817   5.187   2.729 -0.1382 -0.3879 -0.2437
 9073SOL     OW27788   0.996   6.670   2.337 -0.3457  0.6300 -0.5346
 9073SOL    HW127789   0.957   6.752   2.309 -1.4854  0.7241  1.2143
 9073SOL    HW227790   0.922   6.614   2.360  0.4631 -0.2292  0.0596
 9074SOL     OW27791   4.024   6.616   0.341 -0.5878 -0.0757  0.3600
 9074SOL    HW127792   4.041   6.576   0.426 -1.5813  1.0337  1.1130
 9074SOL    HW227793   3.973   6.694   0.361 -1.4904 -0.1919 -1.3326
 9075SOL     OW27794   1.923   0.173   2.821  0.1332 -0.0853 -0.1358
 9075SOL    HW127795   1.996   0.123   2.785 -0.2063 -1.2999  0.8030
 9075SOL    HW227796   1.959   0.215   2.899  0.9304  2.7225 -1.8428
 9076SOL     OW27797   3.699   2.064   2.240 -0.5355 -0.2352  0.1680
 9076SOL    HW127798   3.698   1.981   2.191  0.5339 -1.3811  1.9593
 9076SOL    HW227799   3.745   2.125   2.183 -1.3525 -0.8609 -1.1996
 9077SOL     OW27800   2.898   2.807   1.532 -0.3737 -0.7559 -0.8036
 9077SOL    HW127801   2.973   2.815   1.474 -1.3306  2.3934 -1.7719
 9077SOL    HW227802   2.933   2.764   1.611  2.2268 -0.0915 -1.5261
 9078SOL     OW27803   2.534   6.301   6.056  0.1401  0.1038  0.4195
 9078SOL    HW127804   2.593   6.305   5.981  0.4079 -0.3326  0.5996
 9078SOL    HW227805   2.584   6.339   6.129  0.0949  0.0062  0.5029
 9079SOL     OW27806   1.618   3.730   1.867  0.0108 -0.1259  0.3355
 9079SOL    HW127807   1.705   3.768   1.878 -0.3754  0.5690  1.0448
 9079SOL    HW227808   1.610   3.716   1.772  0.6373  0.4016  0.1966
 9080SOL     OW27809   2.381   1.784   7.089 -0.0291  0.0485 -0.2982
 9080SOL    HW127810   2.404   1.863   7.138  0.1788 -0.5915  0.6633
 9080SOL    HW227811   2.285   1.786   7.085 -0.0361  0.2275 -0.0632
 9081SOL     OW27812   0.638   0.743   1.657 -0.7674 -0.2967  0.3316
 9081SOL    HW127813   0.567   0.725   1.719 -0.3240  0.4628  1.0703
 9081SOL    HW227814   0.659   0.836   1.670  1.0657 -0.7534  0.8528
 9082SOL     OW27815   0.933   5.096   2.280 -0.5091  0.0033  0.0685
 9082SOL    HW127816   0.958   5.017   2.327 -0.0580 -0.4188 -0.8602
 9082SOL    HW227817   0.929   5.070   2.188  0.7261  1.3068 -0.3959
 9083SOL     OW27818   4.375   1.199   5.667 -0.1039  0.9686 -0.3373
 9083SOL    HW127819   4.289   1.229   5.697 -0.7616  0.9134 -2.0057
 9083SOL    HW227820   4.382   1.235   5.578  2.1821  2.0652  0.2211
 9084SOL     OW27821   4.015   5.643   3.723 -0.3084 -0.2743 -0.1129
 9084SOL    HW127822   4.066   5.569   3.691  1.5733  1.8088 -2.3949
 9084SOL    HW227823   3.964   5.672   3.647 -2.0686 -0.0263  1.1069
 9085SOL     OW27824   5.597   0.145   2.409  0.0665  0.0118 -0.0104
 9085SOL    HW127825   5.690   0.163   2.403 -0.0793  1.0559  0.7188
 9085SOL    HW227826   5.557   0.229   2.432 -0.8715 -0.7678  1.3390
 9086SOL     OW27827   3.079   5.803   3.475  0.9684 -0.3775 -0.0680
 9086SOL    HW127828   3.032   5.727   3.509 -1.2724  0.0013 -2.0526
 9086SOL    HW227829   3.121   5.842   3.552 -2.3660 -0.5086  2.0061
 9087SOL     OW27830   2.070   4.628   5.418  0.0057 -0.3724 -0.0788
 9087SOL    HW127831   2.016   4.639   5.340  1.8365 -1.2770 -1.5625
 9087SOL    HW227832   2.094   4.716   5.444  0.1902 -0.0870 -1.1714
 9088SOL     OW27833   7.189   1.879   2.984  0.0517  0.3562  0.0682
 9088SOL    HW127834   7.141   1.907   2.906  0.7719  1.6869  0.0777
 9088SOL    HW227835   7.232   1.797   2.958  0.7054  1.0528 -1.1090
 9089SOL     OW27836   5.789   3.271   3.907 -0.3234 -0.3713  0.2609
 9089SOL    HW127837   5.724   3.261   3.976 -1.0825  0.0015 -0.3864
 9089SOL    HW227838   5.754   3.220   3.833 -0.6143  1.0001 -0.5806
 9090SOL     OW27839   3.922   5.069   4.880  0.1559 -0.1818 -0.2288
 9090SOL    HW127840   3.895   5.114   4.800 -2.6791 -0.0995  0.6890
 9090SOL    HW227841   3.851   5.008   4.899  1.0597 -0.6515  1.8953
 9091SOL     OW27842   6.727   2.661   0.708  0.4400  0.0727  0.4160
 9091SOL    HW127843   6.659   2.633   0.646  0.2421  1.3476  0.0151
 9091SOL    HW227844   6.705   2.617   0.790 -0.1772 -0.4605 -0.0281
 9092SOL     OW27845   5.731   4.429   4.607 -0.2425 -0.6250 -0.4405
 9092SOL    HW127846   5.667   4.474   4.552 -0.2812  0.3284  0.3455
 9092SOL    HW227847   5.680   4.394   4.680  0.3336  2.0648  1.3952
 9093SOL     OW27848   5.614   3.946   2.242  0.6687  0.4581  0.8864
 9093SOL    HW127849   5.628   4.007   2.169  0.8327  0.1604  0.6638
 9093SOL    HW227850   5.606   3.860   2.200  0.6092  0.3043  1.2081
 9094SOL     OW27851   3.087   4.746   6.932 -0.2534 -0.0000 -0.5483
 9094SOL    HW127852   3.094   4.814   6.864  0.2518 -0.3418 -0.8495
 9094SOL    HW227853   3.006   4.766   6.978 -0.0834  0.8515 -0.5884
 9095SOL     OW27854   0.317   0.934   0.719 -0.0765 -0.2448  0.2002
 9095SOL    HW127855   0.339   0.852   0.763 -1.2074  0.2503  1.7837
 9095SOL    HW227856   0.398   0.985   0.722  0.1655 -0.6471  0.7471
 9096SOL     OW27857   0.247   3.079   4.912 -0.0429 -0.3260  0.0336
 9096SOL    HW127858   0.331   3.085   4.866 -0.1692 -1.1854 -0.3301
 9096SOL    HW227859   0.237   3.164   4.954  0.7176  0.0077 -0.4283
 9097SOL     OW27860   1.757   0.938   4.394  0.1067  0.5712 -0.3034
 9097SOL    HW127861   1.751   0.970   4.484  0.3241  2.3861 -0.9002
 9097SOL    HW227862   1.679   0.884   4.382  0.1510  0.1869  0.9992
 9098SOL     OW27863   6.442   5.605   0.056  0.2174  0.3666  0.4923
 9098SOL    HW127864   6.464   5.538   0.121  0.9567  0.7917  0.6875
 9098SOL    HW227865   6.369   5.567   0.007 -0.4365  0.0931  1.6378
 9099SOL     OW27866   1.953   1.403   3.927  0.2398  0.0379 -0.1472
 9099SOL    HW127867   1.967   1.442   4.013  0.5866  0.6775 -0.4882
 9099SOL    HW227868   2.011   1.452   3.868  0.8065 -1.0947 -0.5612
 9100SOL     OW27869   0.413   1.034   5.111  0.4580 -0.2121 -0.1337
 9100SOL    HW127870   0.328   1.041   5.156 -0.3501 -1.1064 -1.4637
 9100SOL    HW227871   0.468   0.984   5.172  0.4356  1.3441  1.2442
 9101SOL     OW27872   3.034   6.203   6.959 -0.8347  0.1459 -1.0299
 9101SOL    HW127873   3.097   6.249   6.904  2.9085 -1.8361  1.2141
 9101SOL    HW227874   3.006   6.129   6.906  0.8157 -0.3847 -1.2175
 9102SOL     OW27875   0.579   3.097   5.788 -0.3377  0.3539  0.2680
 9102SOL    HW127876   0.630   3.037   5.841 -0.7477 -2.2583 -2.0404
 9102SOL    HW227877   0.495   3.106   5.834  0.4764  0.9254  1.6985
 9103SOL     OW27878   2.747   2.020   0.773  0.2850  0.2381  0.6218
 9103SOL    HW127879   2.770   2.095   0.718 -0.6901  1.3177  1.6336
 9103SOL    HW227880   2.828   1.969   0.778 -0.1753 -1.4251 -3.9608
 9104SOL     OW27881   1.936   6.007   4.105 -0.1037 -0.0853 -0.2226
 9104SOL    HW127882   1.907   5.916   4.114 -3.0352  0.9211  1.9212
 9104SOL    HW227883   1.904   6.035   4.020 -0.5754 -0.6129 -0.2249
 9105SOL     OW27884   2.609   1.144   3.080 -0.3060  0.5608  0.0082
 9105SOL    HW127885   2.678   1.081   3.060  0.0540  1.4998 -2.0093
 9105SOL    HW227886   2.652   1.213   3.130  0.7185  1.9359 -2.5746
 9106SOL     OW27887   5.366   4.035   6.981  0.1370 -0.0277  0.1638
 9106SOL    HW127888   5.302   3.972   7.015  1.2360 -0.9528  0.6179
 9106SOL    HW227889   5.384   4.005   6.892 -0.7137  0.7725 -0.2918
 9107SOL     OW27890   1.136   1.467   3.356 -0.7394  0.5929 -0.6451
 9107SOL    HW127891   1.125   1.545   3.303 -0.8502 -0.1765 -1.7783
 9107SOL    HW227892   1.068   1.407   3.327 -1.0333  0.2712  0.6199
 9108SOL     OW27893   5.070   0.170   3.888 -0.2910  0.4696 -0.1412
 9108SOL    HW127894   5.051   0.144   3.798  1.2953  2.2051 -1.0437
 9108SOL    HW227895   5.128   0.102   3.921 -1.7399 -0.7482 -0.0192
 9109SOL     OW27896   1.770   3.738   0.679 -0.3103 -0.4138 -0.1291
 9109SOL    HW127897   1.812   3.709   0.598 -0.1925  0.5900 -0.4403
 9109SOL    HW227898   1.706   3.669   0.699  0.4073 -1.2026 -0.4760
 9110SOL     OW27899   6.200   3.089   1.014  0.2673  0.3642  0.0900
 9110SOL    HW127900   6.138   3.031   0.969  1.0659  0.0075 -0.5866
 9110SOL    HW227901   6.224   3.154   0.948  1.1807  0.0546  0.1092
 9111SOL     OW27902   1.987   7.003   1.040  0.0274  0.3754  0.2457
 9111SOL    HW127903   1.958   6.935   1.101  0.9585 -0.4105 -0.1546
 9111SOL    HW227904   1.911   7.018   0.983 -0.9186  1.2646  1.6802
 9112SOL     OW27905   1.450   1.729   2.446  0.6540 -0.3098  0.1893
 9112SOL    HW127906   1.494   1.682   2.518  1.4667  0.6728  0.3705
 9112SOL    HW227907   1.380   1.671   2.418  0.9343 -1.1369  1.1414
 9113SOL     OW27908   4.867   2.116   0.850  0.3345  0.3730 -0.6312
 9113SOL    HW127909   4.931   2.104   0.921  0.8797 -1.3045 -1.3754
 9113SOL    HW227910   4.918   2.153   0.778  0.1057  0.6173 -0.6697
 9114SOL     OW27911   6.179   1.021   6.701 -0.1443  0.3877 -0.4137
 9114SOL    HW127912   6.204   0.955   6.765 -2.0091  0.4703  0.4664
 9114SOL    HW227913   6.216   0.990   6.619  1.6221 -0.1414  0.5357
 9115SOL     OW27914   5.193   5.503   4.024 -0.6448 -0.0280  0.3254
 9115SOL    HW127915   5.182   5.544   4.109 -0.3765 -1.8842  1.3063
 9115SOL    HW227916   5.127   5.433   4.022 -0.6163 -0.0429 -0.9663
 9116SOL     OW27917   7.344   5.666   4.035  0.0010 -0.3461 -0.6761
 9116SOL    HW127918   7.340   5.676   3.940  0.5297  1.3821 -0.5584
 9116SOL    HW227919   7.269   5.717   4.067  1.4475  1.5473 -0.0924
 9117SOL     OW27920   6.572   2.507   5.334 -0.0373 -0.3187 -0.1126
 9117SOL    HW127921   6.514   2.545   5.269  0.2082 -0.6997 -0.5603
 9117SOL    HW227922   6.659   2.515   5.297  0.4032  1.6319  1.2217
 9118SOL     OW27923   5.315   5.035   3.353 -0.1069  0.4909 -0.0273
 9118SOL    HW127924   5.252   5.104   3.331  1.6634  1.5916 -1.9796
 9118SOL    HW227925   5.361   5.070   3.429 -1.3860 -0.0665  1.0525
 9119SOL     OW27926   2.674   6.472   5.170 -0.0485 -0.6483 -0.4382
 9119SOL    HW127927   2.692   6.556   5.128 -0.3248 -0.4560 -0.1704
 9119SOL    HW227928   2.619   6.493   5.245  0.4358 -0.9951  0.0217
 9120SOL     OW27929   6.049   1.167   5.293  0.7764  0.2517  0.5731
 9120SOL    HW127930   5.978   1.231   5.289  0.5301 -0.0521 -0.0211
 9120SOL    HW227931   6.047   1.123   5.208  0.0404 -1.5317  1.4650
 9121SOL     OW27932   6.725   7.122   4.895 -0.2383 -0.0456 -0.4313
 9121SOL    HW127933   6.648   7.072   4.867 -3.1593  3.1340  1.0895
 9121SOL    HW227934   6.733   7.103   4.988  0.9379 -0.4239 -0.6015
 9122SOL     OW27935   5.790   3.545   5.126 -0.5783 -0.1999  0.3022
 9122SOL    HW127936   5.730   3.565   5.198 -2.4594  1.6638 -1.6457
 9122SOL    HW227937   5.838   3.627   5.111 -0.5358 -0.4132 -0.8399
 9123SOL     OW27938   7.435   5.956   4.275 -0.0251 -0.2071 -0.2836
 9123SOL    HW127939   7.398   5.882   4.227 -0.1913  0.8012 -1.7969
 9123SOL    HW227940   7.360   6.002   4.311 -0.0952  0.3330 -1.0769
 9124SOL     OW27941   2.803   5.482   6.643  0.1009  0.3694  0.0058
 9124SOL    HW127942   2.853   5.544   6.590  1.5431 -0.5890  0.2223
 9124SOL    HW227943   2.826   5.504   6.733 -1.9952  1.6932  0.3002
 9125SOL     OW27944   6.164   2.656   3.132  0.1376 -0.0367  0.2770
 9125SOL    HW127945   6.206   2.714   3.067  0.4880  0.6838  1.1249
 9125SOL    HW227946   6.089   2.707   3.163  0.0400 -0.3349  0.5255
 9126SOL     OW27947   4.122   3.251   7.027 -0.0050  0.4633  0.4618
 9126SOL    HW127948   4.095   3.201   6.951  2.8140 -1.6368  0.6862
 9126SOL    HW227949   4.154   3.334   6.991  2.6071 -1.0213 -0.9508
 9127SOL     OW27950   4.058   4.575   3.843  0.0357  0.2812 -0.1185
 9127SOL    HW127951   4.047   4.663   3.806  0.5390  0.1857 -0.4995
 9127SOL    HW227952   4.019   4.516   3.778  1.5169  0.0551 -0.8476
 9128SOL     OW27953   1.725   0.396   4.155 -0.1286 -0.3804 -0.5340
 9128SOL    HW127954   1.657   0.456   4.124 -0.5826 -0.8728 -0.5052
 9128SOL    HW227955   1.679   0.334   4.211  0.5681  0.0885  0.6021
 9129SOL     OW27956   2.686   6.318   7.198 -0.7648 -0.0904  0.2975
 9129SOL    HW127957   2.674   6.263   7.275 -2.4486  0.1994  0.2998
 9129SOL    HW227958   2.778   6.342   7.198 -0.0349 -2.6545  0.4499
 9130SOL     OW27959   3.895   3.529   7.413 -0.1222 -0.1381  0.3473
 9130SOL    HW127960   3.955   3.589   7.457 -0.3784  0.8897 -0.6387
 9130SOL    HW227961   3.937   3.510   7.329  0.0118 -1.4709  0.6845
 9131SOL     OW27962   6.719   3.433   4.620 -0.0438 -0.1215  0.1890
 9131SOL    HW127963   6.650   3.451   4.683 -0.4971 -1.1030 -0.0081
 9131SOL    HW227964   6.675   3.425   4.536  0.3976 -0.0799 -0.0528
 9132SOL     OW27965   3.801   5.114   2.613 -0.3934  0.0150 -0.5765
 9132SOL    HW127966   3.710   5.096   2.638 -0.7844  0.7422 -1.3916
 9132SOL    HW227967   3.817   5.058   2.537 -0.0531 -0.3549 -0.2298
 9133SOL     OW27968   3.065   2.680   3.040  0.4708  0.3618  0.0373
 9133SOL    HW127969   3.160   2.675   3.032  0.6656  3.0351 -0.2752
 9133SOL    HW227970   3.048   2.660   3.132  1.1665 -1.4205 -0.1936
 9134SOL     OW27971   0.939   0.769   0.472 -0.9011  0.3031 -0.4006
 9134SOL    HW127972   0.874   0.764   0.542  0.0713 -1.8027  0.4212
 9134SOL    HW227973   1.022   0.785   0.517 -0.3976 -0.0765 -1.1743
 9135SOL     OW27974   6.754   6.190   1.811 -0.1854 -0.2427 -0.4763
 9135SOL    HW127975   6.726   6.188   1.719 -0.8210  0.3184 -0.2977
 9135SOL    HW227976   6.830   6.248   1.812 -0.1987 -0.2229 -0.6376
 9136SOL     OW27977   2.131   2.671   4.714 -0.0153 -0.0348 -0.5140
 9136SOL    HW127978   2.049   2.666   4.664 -0.4678 -1.1673  0.2975
 9136SOL    HW227979   2.158   2.580   4.724  1.7587  0.3577 -1.3930
 9137SOL     OW27980   4.399   6.546   3.371  0.5205  0.5102  0.2261
 9137SOL    HW127981   4.351   6.609   3.423 -0.4030  0.7599 -0.8683
 9137SOL    HW227982   4.460   6.598   3.319  0.8219  0.3497  0.4146
 9138SOL     OW27983   5.856   0.671   0.046  0.0298 -0.2016  0.5141
 9138SOL    HW127984   5.852   0.730   0.122 -1.9578  0.6213 -0.1551
 9138SOL    HW227985   5.772   0.624   0.048  1.2041 -2.4156  0.5196
 9139SOL     OW27986   0.093   0.725   0.416 -0.4611  0.2338 -0.4117
 9139SOL    HW127987   0.013   0.675   0.430 -0.6642  0.3711 -1.0421
 9139SOL    HW227988   0.163   0.660   0.429 -0.5602  0.5457  2.0361
 9140SOL     OW27989   4.082   3.010   3.619 -0.0264 -0.6581 -0.0893
 9140SOL    HW127990   4.115   3.097   3.595 -1.3403 -0.1842 -0.2608
 9140SOL    HW227991   4.159   2.964   3.652  1.3863 -0.5123 -2.8946
 9141SOL     OW27992   6.101   7.107   6.127 -0.0631 -0.4910 -0.1697
 9141SOL    HW127993   6.023   7.161   6.142  0.4252  0.6067 -1.4165
 9141SOL    HW227994   6.104   7.095   6.032  0.5990 -1.5928 -0.0247
 9142SOL     OW27995   1.172   6.931   2.050  0.7521  0.1890 -0.0106
 9142SOL    HW127996   1.168   7.018   2.090 -1.1541  0.6064 -0.9890
 9142SOL    HW227997   1.201   6.947   1.961  0.5165 -0.1956 -0.1579
 9143SOL     OW27998   3.052   6.416   3.542  0.3542  0.2259  0.0644
 9143SOL    HW127999   2.996   6.493   3.537 -0.6322 -0.5118 -0.9605
 9143SOL    HW228000   3.103   6.427   3.622 -0.2325  1.6153  0.2616
 9144SOL     OW28001   1.854   0.270   6.735 -0.2142  0.0141  0.4326
 9144SOL    HW128002   1.795   0.221   6.677  0.0354 -0.7306  0.7910
 9144SOL    HW228003   1.863   0.214   6.812  2.1247 -0.5949 -0.2084
 9145SOL     OW28004   0.037   3.675   3.072  0.2912  0.1251 -0.5377
 9145SOL    HW128005  -0.050   3.714   3.069  0.4452  0.6293  0.8796
 9145SOL    HW228006   0.062   3.678   3.164  0.4084 -3.1906 -0.3332
 9146SOL     OW28007   5.086   0.150   5.833  0.2679 -0.6279 -0.1137
 9146SOL    HW128008   5.167   0.109   5.804  0.4868 -1.5806  1.6500
 9146SOL    HW228009   5.060   0.099   5.910 -1.2033  0.5908  0.2505
 9147SOL     OW28010   1.245   2.987   1.450  0.0244  0.0306 -0.2089
 9147SOL    HW128011   1.297   3.031   1.384  1.3705 -0.6629  0.3468
 9147SOL    HW228012   1.156   2.989   1.416  0.6572 -0.1844 -1.9817
 9148SOL     OW28013   5.995   1.296   0.834  0.3226 -0.7977 -0.1876
 9148SOL    HW128014   5.900   1.287   0.835  0.4817 -2.9880  0.1646
 9148SOL    HW228015   6.023   1.273   0.922  1.1594  0.6821 -0.0284
 9149SOL     OW28016   6.680   2.276   6.606 -0.3453 -0.2036 -0.4211
 9149SOL    HW128017   6.598   2.230   6.591  0.7224 -1.8358 -1.6081
 9149SOL    HW228018   6.693   2.329   6.527 -0.5136  0.5026  0.0106
 9150SOL     OW28019   6.856   2.261   0.227  0.0313  0.1459 -0.0523
 9150SOL    HW128020   6.940   2.239   0.267 -0.0332  1.4965  0.8999
 9150SOL    HW228021   6.843   2.194   0.159  1.5372 -0.4795  0.2386
 9151SOL     OW28022   3.338   5.189   4.457  0.2128  0.3364  1.1651
 9151SOL    HW128023   3.355   5.267   4.511 -0.4571  1.5481 -0.2930
 9151SOL    HW228024   3.267   5.143   4.502  0.5004  0.6525  1.9598
 9152SOL     OW28025   2.324   0.748   3.612 -0.9175  0.5521  0.0980
 9152SOL    HW128026   2.406   0.700   3.599 -0.3985  1.3442  0.3996
 9152SOL    HW228027   2.289   0.714   3.694  0.1417  1.6200  1.0377
 9153SOL     OW28028   0.611   4.023   3.388  0.3433  0.3808 -0.4747
 9153SOL    HW128029   0.543   3.956   3.377 -1.0910  1.5444  0.8601
 9153SOL    HW228030   0.669   4.011   3.313 -1.1504 -0.8825 -1.4916
 9154SOL     OW28031   4.343   2.493   0.558 -0.1676 -0.1363  0.1352
 9154SOL    HW128032   4.369   2.560   0.621 -2.4779 -1.1834  2.3623
 9154SOL    HW228033   4.369   2.410   0.599 -0.9649 -0.8172 -0.6886
 9155SOL     OW28034   0.588   3.500   2.371 -0.3538  0.5761 -0.1507
 9155SOL    HW128035   0.547   3.441   2.308 -1.3901  0.0042  1.0151
 9155SOL    HW228036   0.676   3.465   2.385 -0.1485  0.6617 -1.1900
 9156SOL     OW28037   6.158   0.237   6.096  0.2928 -0.0158 -0.1663
 9156SOL    HW128038   6.210   0.188   6.033 -1.0585 -0.9076 -0.6294
 9156SOL    HW228039   6.082   0.268   6.046 -0.5160 -0.2378  0.8814
 9157SOL     OW28040   6.240   1.949   1.883  0.3542 -0.2142  0.2660
 9157SOL    HW128041   6.179   2.005   1.834  1.0066 -0.5344 -0.9556
 9157SOL    HW228042   6.238   1.865   1.838 -0.1176 -0.9938  1.6940
 9158SOL     OW28043   2.850   4.585   0.169  0.6174  0.1233 -0.0661
 9158SOL    HW128044   2.813   4.505   0.132  1.7047  0.2926 -1.6496
 9158SOL    HW228045   2.813   4.591   0.257 -0.8498 -1.1745 -0.5517
 9159SOL     OW28046   0.496   5.241   1.743 -0.3456 -0.0383 -0.0024
 9159SOL    HW128047   0.534   5.306   1.685 -0.2272  0.0701  0.1964
 9159SOL    HW228048   0.544   5.250   1.825  0.9668 -1.6376 -0.5461
 9160SOL     OW28049   3.434   5.409   2.629 -0.1077 -0.1678 -0.9336
 9160SOL    HW128050   3.462   5.382   2.716  0.2443 -0.2987 -1.0880
 9160SOL    HW228051   3.358   5.466   2.645 -0.8687 -1.2564 -0.6056
 9161SOL     OW28052   4.168   5.176   1.466 -0.5818  0.0744 -0.3753
 9161SOL    HW128053   4.201   5.239   1.530  0.8167 -1.0215  0.0310
 9161SOL    HW228054   4.213   5.201   1.384  0.2320 -0.5673 -0.1385
 9162SOL     OW28055   7.420   3.209   4.680 -0.0619  0.4835  0.1305
 9162SOL    HW128056   7.485   3.140   4.684 -0.1269  0.4288  0.2365
 9162SOL    HW228057   7.471   3.290   4.669  0.0062  0.4065 -0.1166
 9163SOL     OW28058   0.904   5.686   5.984  0.6383 -0.0204  0.1581
 9163SOL    HW128059   0.923   5.745   6.057 -0.7426 -0.0224  0.5410
 9163SOL    HW228060   0.860   5.612   6.023 -1.9407  0.8788 -0.8509
 9164SOL     OW28061   3.312   0.478   0.380  0.4889  0.5866  0.0917
 9164SOL    HW128062   3.341   0.532   0.306  1.9757  1.9840  1.6075
 9164SOL    HW228063   3.253   0.535   0.430 -0.1440 -0.1807  0.2456
 9165SOL     OW28064   2.491   6.371   4.884  0.4234 -0.4841 -0.0813
 9165SOL    HW128065   2.495   6.389   4.978  1.9074 -1.0186 -0.0248
 9165SOL    HW228066   2.547   6.436   4.844  1.3701 -1.4678 -0.3933
 9166SOL     OW28067   2.418   1.946   0.275  0.2403  0.1963  0.0754
 9166SOL    HW128068   2.488   2.009   0.293 -0.1549  0.9556 -0.9389
 9166SOL    HW228069   2.356   1.995   0.221  0.4196 -1.3822 -1.6304
 9167SOL     OW28070   1.944   1.708   1.427  0.3149 -0.0372  0.3695
 9167SOL    HW128071   1.879   1.742   1.365  0.7695  0.2044  0.0125
 9167SOL    HW228072   1.909   1.729   1.513  0.6558  1.5006  0.1632
 9168SOL     OW28073   4.817   2.612   1.898  0.0047 -0.6132  0.2593
 9168SOL    HW128074   4.911   2.625   1.892  0.1869 -2.1346 -4.6668
 9168SOL    HW228075   4.783   2.696   1.930  2.8342  1.4433 -1.6326
 9169SOL     OW28076   2.997   4.216   5.319 -0.6251  0.1441 -0.0138
 9169SOL    HW128077   3.022   4.163   5.394 -1.3498  0.9385  0.8236
 9169SOL    HW228078   3.046   4.180   5.246  0.1063 -0.6462  0.8445
 9170SOL     OW28079   5.504   5.660   2.145  0.3140 -0.1337  0.8441
 9170SOL    HW128080   5.455   5.742   2.140 -0.1339 -0.3048  2.2102
 9170SOL    HW228081   5.517   5.644   2.238 -0.4891 -2.1420  0.6611
 9171SOL     OW28082   4.657   1.952   1.818  0.5673 -0.0381  0.1420
 9171SOL    HW128083   4.586   1.994   1.768 -0.2489 -1.5932 -0.0583
 9171SOL    HW228084   4.650   1.989   1.906  2.3549  3.1484 -0.8896
 9172SOL     OW28085   1.541   6.167   6.445  0.2248  0.1263  0.3841
 9172SOL    HW128086   1.544   6.253   6.486  1.4277 -0.7399  2.2656
 9172SOL    HW228087   1.490   6.113   6.505  1.7729 -1.1033  0.6921
 9173SOL     OW28088   6.296   4.181   6.573  0.0460 -0.0777 -0.0296
 9173SOL    HW128089   6.310   4.102   6.521 -3.7763 -1.3027  0.4230
 9173SOL    HW228090   6.273   4.148   6.660  0.9549  1.7037  0.9334
 9174SOL     OW28091   7.107   4.347   0.146 -0.0914 -0.5537 -0.0573
 9174SOL    HW128092   7.152   4.398   0.079  0.8031 -2.4730 -0.9878
 9174SOL    HW228093   7.106   4.404   0.223 -1.1177  1.7094 -1.6308
 9175SOL     OW28094   6.960   3.529   0.314  0.5703 -0.2546  0.7163
 9175SOL    HW128095   6.987   3.486   0.233  0.2371  0.0202  0.4600
 9175SOL    HW228096   6.906   3.603   0.286 -2.1311 -1.8895  1.2418
 9176SOL     OW28097   3.042   0.050   0.075  0.3775  0.9511  0.4195
 9176SOL    HW128098   2.960   0.001   0.083  1.1203 -0.2580  0.8395
 9176SOL    HW228099   3.067   0.071   0.164  1.6528 -0.6578  0.4935
 9177SOL     OW28100   0.065   5.750   0.040 -0.4855  0.2795  0.1091
 9177SOL    HW128101   0.042   5.818   0.104 -2.3551  0.0179 -0.2350
 9177SOL    HW228102   0.156   5.770   0.016 -0.6524  2.0491  0.7753
 9178SOL     OW28103   5.952   0.390   4.328  0.4777 -1.1565 -0.2876
 9178SOL    HW128104   5.857   0.394   4.330  0.4309  3.6462 -0.4842
 9178SOL    HW228105   5.973   0.376   4.236 -0.1176 -0.6045 -0.5170
 9179SOL     OW28106   3.092   6.219   3.276  0.0470  0.3676  0.4694
 9179SOL    HW128107   3.185   6.234   3.288  0.3160 -1.4636  1.0487
 9179SOL    HW228108   3.049   6.286   3.329  1.0258  0.9576  0.5353
 9180SOL     OW28109   5.669   4.232   3.294  0.6743 -0.4235  0.2391
 9180SOL    HW128110   5.751   4.265   3.331  0.4755 -0.0447  0.3498
 9180SOL    HW228111   5.615   4.310   3.284  0.3766 -0.6542  0.0365
 9181SOL     OW28112   5.724   1.349   0.814  0.2870 -0.0740 -0.1492
 9181SOL    HW128113   5.698   1.290   0.744  0.5236 -0.8470  0.4023
 9181SOL    HW228114   5.644   1.395   0.838  0.4052  0.9604 -1.6182
 9182SOL     OW28115   2.506   2.647   4.404  0.4311  0.6479  0.1881
 9182SOL    HW128116   2.457   2.635   4.485 -3.5752 -1.0509 -2.1852
 9182SOL    HW228117   2.587   2.598   4.417  0.6763  1.6907  3.5612
 9183SOL     OW28118   6.568   3.161   0.372  0.3183 -0.0068 -0.5477
 9183SOL    HW128119   6.582   3.256   0.365  0.8200  0.1867  1.9384
 9183SOL    HW228120   6.629   3.123   0.309 -0.7874  1.3075 -2.5182
 9184SOL     OW28121   6.675   2.964   3.947  0.1035  0.3009  0.5567
 9184SOL    HW128122   6.676   2.940   4.040 -1.6556 -0.5509  0.3882
 9184SOL    HW228123   6.596   2.924   3.913  0.1693  1.4945 -1.0965
 9185SOL     OW28124   2.176   1.439   0.650 -0.1043 -0.3200 -0.0543
 9185SOL    HW128125   2.224   1.494   0.713 -3.1114  2.5970 -0.0198
 9185SOL    HW228126   2.202   1.473   0.564  1.1073 -1.7390 -0.2941
 9186SOL     OW28127   0.914   1.827   0.041 -0.5312 -0.6310  0.3431
 9186SOL    HW128128   0.968   1.749   0.048 -0.6106 -0.5786  1.7492
 9186SOL    HW228129   0.969   1.890  -0.007 -0.2081 -1.3015 -0.1841
 9187SOL     OW28130   6.967   2.905   1.902 -0.5165  0.0891 -0.1778
 9187SOL    HW128131   6.959   2.813   1.875 -0.9187  0.3319 -0.9137
 9187SOL    HW228132   7.055   2.931   1.875 -0.6528  0.1171 -0.6056
 9188SOL     OW28133   5.609   3.596   3.635 -0.1062 -0.1171 -0.0919
 9188SOL    HW128134   5.685   3.578   3.691 -0.6681  0.2146  0.8067
 9188SOL    HW228135   5.630   3.678   3.591  0.5822 -0.6646 -0.8289
 9189SOL     OW28136   0.488   1.962   1.673 -0.3120 -0.0586 -0.5074
 9189SOL    HW128137   0.415   1.957   1.612 -0.3505  1.0626 -0.5758
 9189SOL    HW228138   0.556   2.011   1.625 -0.3107  0.7673  0.3012
 9190SOL     OW28139   3.032   3.694   5.063  0.2228  0.1163 -0.3635
 9190SOL    HW128140   2.982   3.639   5.002  0.9498  0.7679 -1.5652
 9190SOL    HW228141   3.092   3.632   5.106  1.3642 -0.0094 -2.0451
 9191SOL     OW28142   1.845   1.524   7.221 -0.7267 -0.3340 -0.1170
 9191SOL    HW128143   1.803   1.488   7.299 -0.0737 -0.5387  0.1420
 9191SOL    HW228144   1.870   1.613   7.246  0.1731 -0.6571  0.1712
 9192SOL     OW28145   6.624   1.298   1.262 -0.1010 -0.0067 -0.1617
 9192SOL    HW128146   6.562   1.341   1.204  0.1607 -0.0592 -0.4807
 9192SOL    HW228147   6.596   1.324   1.350 -1.1910 -0.8506 -0.2453
 9193SOL     OW28148   2.087   6.973   5.142 -0.3258  0.8909  0.1674
 9193SOL    HW128149   2.068   6.895   5.194  1.1576  1.5482  1.7723
 9193SOL    HW228150   2.001   7.007   5.118 -1.0080 -0.8826 -0.0475
 9194SOL     OW28151   7.078   2.178   6.896  0.6037 -1.0999 -0.5433
 9194SOL    HW128152   6.991   2.207   6.867  0.7993 -0.3071 -0.3516
 9194SOL    HW228153   7.084   2.087   6.866  0.6935 -0.4138 -2.8019
 9195SOL     OW28154   1.606   6.700   5.142 -0.2755 -0.3749  0.6632
 9195SOL    HW128155   1.578   6.610   5.156  0.7173 -0.3978  2.8379
 9195SOL    HW228156   1.699   6.701   5.162 -0.0962  0.9994 -0.0603
 9196SOL     OW28157   6.273   3.559   5.475 -0.3383  0.0651  0.1125
 9196SOL    HW128158   6.306   3.492   5.535 -1.4961 -1.0589 -0.4539
 9196SOL    HW228159   6.191   3.588   5.515 -2.2961 -2.2573 -1.8497
 9197SOL     OW28160   0.534   6.848   2.986  0.0007  0.1920 -0.0205
 9197SOL    HW128161   0.583   6.806   2.915 -0.3601 -1.5437  0.7104
 9197SOL    HW228162   0.591   6.839   3.063 -0.6620 -0.1748  0.4353
 9198SOL     OW28163   6.970   1.165   3.453  0.3897 -0.4063  0.2273
 9198SOL    HW128164   6.874   1.164   3.448  0.3510 -2.1500  0.6580
 9198SOL    HW228165   6.991   1.251   3.489 -1.0477 -0.2304  0.7198
 9199SOL     OW28166   7.340   5.363   7.350 -0.3292  0.4745  0.8737
 9199SOL    HW128167   7.293   5.342   7.270 -0.0833  1.0656  0.5662
 9199SOL    HW228168   7.390   5.442   7.328  0.7964 -0.1299  1.1867
 9200SOL     OW28169   3.095   4.623   3.941 -0.4130  0.2227  0.6829
 9200SOL    HW128170   3.031   4.552   3.936 -0.1533 -0.0582  1.1841
 9200SOL    HW228171   3.044   4.701   3.964 -0.6373  0.1013  0.5926
 9201SOL     OW28172   6.872   2.166   0.678 -0.4089 -0.4591 -0.4209
 9201SOL    HW128173   6.966   2.185   0.680 -0.6092  0.5184  0.0391
 9201SOL    HW228174   6.839   2.201   0.761 -1.2569 -0.4127 -0.7773
 9202SOL     OW28175   7.278   2.327   1.178  0.4611  0.0844  0.9014
 9202SOL    HW128176   7.285   2.232   1.182  0.8389  0.0444 -0.2023
 9202SOL    HW228177   7.367   2.357   1.164  0.0556  0.4029 -1.3513
 9203SOL     OW28178   3.699   2.251   7.376 -0.3831  0.2764 -0.2385
 9203SOL    HW128179   3.751   2.309   7.320  0.8025 -0.3985  0.1288
 9203SOL    HW228180   3.685   2.301   7.456 -0.6391  0.6073 -0.4883
 9204SOL     OW28181   0.053   0.451   3.656 -0.1430  0.5556 -0.0887
 9204SOL    HW128182  -0.014   0.391   3.625  0.1609  0.1082  0.1104
 9204SOL    HW228183   0.087   0.410   3.736  1.7130 -0.2126 -1.1995
 9205SOL     OW28184   4.336   6.887   4.393 -0.5782  0.1121 -0.2460
 9205SOL    HW128185   4.292   6.877   4.477  0.7768 -0.1593  0.4599
 9205SOL    HW228186   4.392   6.809   4.385 -0.5394  0.2243 -1.3077
 9206SOL     OW28187   2.472   0.459   2.804  0.3432  0.7031 -0.2060
 9206SOL    HW128188   2.506   0.395   2.867 -1.6517 -0.6041 -0.3713
 9206SOL    HW228189   2.529   0.451   2.728 -0.0463 -1.1637 -0.3564
 9207SOL     OW28190   4.687   3.172   7.279 -0.0548 -0.0379 -0.0574
 9207SOL    HW128191   4.622   3.176   7.349  0.8983 -0.9604  0.9134
 9207SOL    HW228192   4.736   3.254   7.287  0.5058 -0.4421  0.8362
 9208SOL     OW28193   4.316   0.298   5.569 -0.5037  0.1623  0.5568
 9208SOL    HW128194   4.304   0.380   5.617  0.0476  0.3625  0.3636
 9208SOL    HW228195   4.299   0.321   5.478  3.3750  1.0572 -0.1438
 9209SOL     OW28196   3.782   2.153   4.588  0.1078  0.2343 -0.2113
 9209SOL    HW128197   3.736   2.191   4.513 -1.4363 -1.6065 -0.2786
 9209SOL    HW228198   3.712   2.114   4.641  1.3736 -0.3707  1.0677
 9210SOL     OW28199   0.289   0.026   3.088  0.1739 -0.1233  0.6048
 9210SOL    HW128200   0.217  -0.026   3.124 -1.4288  1.1185 -0.6491
 9210SOL    HW228201   0.267   0.117   3.111  2.0290  0.2143  1.2769
 9211SOL     OW28202   6.069   7.428   3.739 -0.0246 -0.1092  0.2777
 9211SOL    HW128203   6.015   7.353   3.765  0.1353 -0.0495  0.7846
 9211SOL    HW228204   6.079   7.418   3.644  0.2530 -0.9057  0.3806
 9212SOL     OW28205   4.127   6.630   2.722  0.6816 -0.9328 -0.2336
 9212SOL    HW128206   4.090   6.542   2.737  0.9354 -1.1574 -0.9000
 9212SOL    HW228207   4.113   6.647   2.629  0.2157 -0.0624 -0.0143
 9213SOL     OW28208   3.950   5.629   2.608 -0.0292  0.9677  0.5430
 9213SOL    HW128209   3.989   5.636   2.695  1.3115  3.8636 -0.1573
 9213SOL    HW228210   3.885   5.559   2.616 -0.3168  1.4473  3.9955
 9214SOL     OW28211   0.972   3.188   0.501  0.1662 -0.1611  0.4616
 9214SOL    HW128212   0.906   3.146   0.445  0.1961  1.0651 -0.5084
 9214SOL    HW228213   0.921   3.242   0.561  0.2806  0.8442 -0.3361
 9215SOL     OW28214   5.682   5.373   2.459  1.1313  0.4524 -0.2022
 9215SOL    HW128215   5.622   5.448   2.453 -0.7455 -0.4427  3.8750
 9215SOL    HW228216   5.767   5.412   2.477  0.2026  1.7465  1.8118
 9216SOL     OW28217   6.439   3.332   2.464 -0.8081  0.1908 -0.0018
 9216SOL    HW128218   6.376   3.381   2.517 -2.2966 -2.1413  0.5338
 9216SOL    HW228219   6.414   3.241   2.476  0.3667 -0.5902 -2.8095
 9217SOL     OW28220   1.182   4.283   7.314  0.3533  0.0009 -0.1293
 9217SOL    HW128221   1.163   4.283   7.220  1.3639 -1.4418 -0.3633
 9217SOL    HW228222   1.099   4.309   7.355  0.1727  1.6942 -1.4234
 9218SOL     OW28223   7.368   1.124   4.287 -0.1330 -0.3065 -0.0426
 9218SOL    HW128224   7.428   1.197   4.300 -1.4742  0.4788  2.2012
 9218SOL    HW228225   7.329   1.139   4.201  1.6674  0.0166 -0.8391
 9219SOL     OW28226   6.713   3.675   6.198  0.3249  0.0800  0.2214
 9219SOL    HW128227   6.789   3.618   6.210 -0.6209 -0.6937  3.3187
 9219SOL    HW228228   6.738   3.757   6.242  0.3403  0.8255 -1.1272
 9220SOL     OW28229   4.024   6.335   0.835 -0.2445 -0.0474  0.0555
 9220SOL    HW128230   3.939   6.359   0.870 -1.8102 -1.3965 -2.4827
 9220SOL    HW228231   4.073   6.418   0.831 -2.3567  1.2359 -0.6942
 9221SOL     OW28232   5.445   5.613   5.672 -0.3526  1.0068 -0.2703
 9221SOL    HW128233   5.414   5.686   5.726  2.4813  1.7005  0.6193
 9221SOL    HW228234   5.489   5.656   5.598  0.1428  0.1810 -0.4679
 9222SOL     OW28235   5.249   6.916   3.995 -0.2408  0.5468  0.3949
 9222SOL    HW128236   5.277   6.891   4.083 -0.8791  0.2794  0.5263
 9222SOL    HW228237   5.274   6.841   3.940  1.8472  1.4601 -0.0094
 9223SOL     OW28238   4.428   0.047   6.133 -0.7024  0.0423 -0.0110
 9223SOL    HW128239   4.520   0.070   6.120 -0.3059 -0.6856  1.3801
 9223SOL    HW228240   4.382   0.131   6.130  0.3107  0.7000  1.6669
 9224SOL     OW28241   6.276   4.291   1.764 -1.1070  0.8492  0.1805
 9224SOL    HW128242   6.226   4.314   1.842 -0.9946  0.4265  0.3853
 9224SOL    HW228243   6.362   4.265   1.798  0.1902  4.0319 -0.3302
 9225SOL     OW28244   7.036   3.970   6.855  0.3378 -0.1368  0.0435
 9225SOL    HW128245   7.111   3.999   6.907 -0.7824  0.6803  1.2745
 9225SOL    HW228246   6.993   4.051   6.828 -1.0381 -0.5844  0.8034
 9226SOL     OW28247   0.405   6.685   7.098 -0.0356 -0.3168  0.6184
 9226SOL    HW128248   0.310   6.696   7.096 -0.0313 -0.3780 -0.0655
 9226SOL    HW228249   0.424   6.627   7.025  0.2845 -2.2397  2.1263
 9227SOL     OW28250   6.311   5.310   5.426  0.1494 -0.6554 -0.0758
 9227SOL    HW128251   6.346   5.232   5.383  2.7645 -0.0624  0.7884
 9227SOL    HW228252   6.298   5.373   5.355  2.1813 -0.4696 -0.3348
 9228SOL     OW28253   1.320   4.673   2.185  0.0035  0.2544 -0.5772
 9228SOL    HW128254   1.361   4.664   2.099  1.2552  0.2456 -0.0073
 9228SOL    HW228255   1.346   4.594   2.232 -1.0705  0.0301 -0.3342
 9229SOL     OW28256   3.174   1.777   7.159  0.2415  0.5736  0.4414
 9229SOL    HW128257   3.165   1.841   7.229 -1.2748 -0.1578  0.9340
 9229SOL    HW228258   3.085   1.757   7.132  0.7748  0.3565 -1.2663
 9230SOL     OW28259   0.067   2.892   2.298  0.4681 -0.0125  0.1094
 9230SOL    HW128260   0.028   2.887   2.385  0.0707 -0.5050 -0.0923
 9230SOL    HW228261   0.039   2.977   2.263 -1.9796 -1.0900 -0.7521
 9231SOL     OW28262   4.622   2.261   1.202  0.1984  0.0008 -0.2228
 9231SOL    HW128263   4.609   2.180   1.154  0.6004 -0.4255  0.3744
 9231SOL    HW228264   4.572   2.326   1.153  1.4032 -0.1984 -1.7780
 9232SOL     OW28265   1.637   0.360   1.855  0.1476  0.2636 -0.1294
 9232SOL    HW128266   1.635   0.451   1.824  1.9116  0.3635 -0.0511
 9232SOL    HW228267   1.596   0.310   1.784 -0.6646  1.0905 -0.2619
 9233SOL     OW28268   2.403   0.255   3.520 -0.1210 -0.0986  0.3835
 9233SOL    HW128269   2.459   0.298   3.456 -1.9018  0.8272 -0.6098
 9233SOL    HW228270   2.444   0.275   3.605 -0.0975  2.3635 -0.1600
 9234SOL     OW28271   5.036   6.712   2.153 -0.0457  0.5160 -0.6728
 9234SOL    HW128272   5.010   6.736   2.242 -3.1924 -0.8173 -1.1007
 9234SOL    HW228273   5.119   6.664   2.165 -0.8196 -0.4146  1.6783
 9235SOL     OW28274   0.923   0.544   0.797 -0.3865 -0.3503  0.2408
 9235SOL    HW128275   0.839   0.519   0.761 -0.5370  2.0087 -1.2674
 9235SOL    HW228276   0.987   0.512   0.733 -0.3147 -0.0866  0.1809
 9236SOL     OW28277   6.520   0.367   1.238  0.3628  0.1191 -0.0407
 9236SOL    HW128278   6.467   0.305   1.289 -1.1117  0.0028 -1.6226
 9236SOL    HW228279   6.519   0.448   1.289 -0.3850 -0.2402  0.5293
 9237SOL     OW28280   3.446   3.978   4.955  0.4577  0.3498  0.3981
 9237SOL    HW128281   3.377   3.939   5.007 -0.3370  0.8700 -0.2262
 9237SOL    HW228282   3.478   4.052   5.007 -0.2209  0.7692  0.2334
 9238SOL     OW28283   5.270   6.083   0.677 -0.0570 -0.2271 -0.1972
 9238SOL    HW128284   5.273   5.987   0.673  1.7871 -0.1758 -2.1430
 9238SOL    HW228285   5.269   6.110   0.585 -0.9942  1.6588  0.3137
 9239SOL     OW28286   4.506   0.335   3.874  0.2890  0.5185  0.2921
 9239SOL    HW128287   4.422   0.355   3.832  0.3088 -1.4058 -0.7898
 9239SOL    HW228288   4.563   0.311   3.801  1.3557  0.3788  1.1535
 9240SOL     OW28289   4.326   0.994   1.642 -0.0098  0.3096 -0.6258
 9240SOL    HW128290   4.300   0.907   1.614 -0.1134  0.2486 -0.3395
 9240SOL    HW228291   4.379   0.979   1.721  1.0293  0.4135 -1.2795
 9241SOL     OW28292   6.992   3.784   5.286 -0.2086  0.3140 -0.0446
 9241SOL    HW128293   7.076   3.825   5.307  1.2536 -2.0024 -1.0061
 9241SOL    HW228294   6.957   3.757   5.371  0.8276 -0.1580  0.2448
 9242SOL     OW28295   5.428   0.315   5.875  0.0878 -0.7787  0.7946
 9242SOL    HW128296   5.430   0.295   5.969 -2.3835  0.3820  1.1741
 9242SOL    HW228297   5.348   0.272   5.843 -0.3848  0.7707 -0.2438
 9243SOL     OW28298   6.784   2.070   0.011 -0.0452 -0.1093 -0.1082
 9243SOL    HW128299   6.857   2.036  -0.041  1.9814  0.1583  2.3683
 9243SOL    HW228300   6.734   1.992   0.036 -0.4261 -0.3379 -1.5127
 9244SOL     OW28301   2.780   7.173   5.458 -0.1912 -0.3123 -0.2374
 9244SOL    HW128302   2.711   7.137   5.403 -0.7927 -1.1094  0.9864
 9244SOL    HW228303   2.850   7.107   5.454 -0.7741 -1.0579  0.9657
 9245SOL     OW28304   1.352   3.107   6.460 -0.3707 -0.2601  0.0234
 9245SOL    HW128305   1.341   3.185   6.514 -2.2443 -0.7833  0.4793
 9245SOL    HW228306   1.266   3.091   6.423  0.7663 -0.0932 -2.9798
 9246SOL     OW28307   1.327   6.247   6.781 -0.5882  0.6111 -0.0943
 9246SOL    HW128308   1.303   6.188   6.853 -1.6874  0.3210 -0.6752
 9246SOL    HW228309   1.364   6.190   6.714 -0.5114  0.7450 -0.1657
 9247SOL     OW28310   5.336   0.463   5.326 -0.4954  0.4757  0.5612
 9247SOL    HW128311   5.265   0.418   5.372 -1.6352  0.3456 -1.2162
 9247SOL    HW228312   5.405   0.471   5.391 -1.7928 -0.2126  2.1039
 9248SOL     OW28313   5.282   7.325   6.182 -0.1906  0.0641  0.0459
 9248SOL    HW128314   5.214   7.266   6.214  0.0689 -0.5454 -0.4971
 9248SOL    HW228315   5.235   7.394   6.136 -0.4465 -0.4365 -0.4587
 9249SOL     OW28316   7.315   5.118   1.423  0.9442  0.1445 -0.2627
 9249SOL    HW128317   7.336   5.199   1.375 -1.2415  0.7195 -0.3565
 9249SOL    HW228318   7.225   5.098   1.398 -0.5606  0.7131  3.8090
 9250SOL     OW28319   0.232   3.014   3.817 -0.0046  0.5246  0.0251
 9250SOL    HW128320   0.199   2.931   3.783 -0.3432  0.0725  1.4091
 9250SOL    HW228321   0.162   3.046   3.874  0.4748  1.3525  0.1660
 9251SOL     OW28322   4.363   0.349   5.123  0.4069 -0.2887 -0.5051
 9251SOL    HW128323   4.341   0.391   5.206  0.6091 -1.5213  0.1978
 9251SOL    HW228324   4.298   0.383   5.061 -0.1768  0.1149  0.3157
 9252SOL     OW28325   5.661   4.158   5.785 -0.7193 -0.3258  0.6327
 9252SOL    HW128326   5.626   4.072   5.809  0.0313 -0.7241  0.3501
 9252SOL    HW228327   5.732   4.174   5.847 -1.5663  0.6151  1.3941
 9253SOL     OW28328   5.922   5.287   6.946  0.1001 -0.3851  0.4302
 9253SOL    HW128329   5.863   5.252   7.012  1.2426 -0.3697  1.5080
 9253SOL    HW228330   6.002   5.236   6.956  0.7479  0.4952 -0.0498
 9254SOL     OW28331   1.043   1.269   5.387 -0.0741 -0.0692  0.1933
 9254SOL    HW128332   1.103   1.343   5.377 -0.0419  0.2311  2.1739
 9254SOL    HW228333   0.963   1.308   5.424 -0.8745 -0.7213 -0.7871
 9255SOL     OW28334   1.246   4.898   3.093 -0.9805  0.5004  0.2430
 9255SOL    HW128335   1.304   4.973   3.108 -0.7021  0.4672 -0.6140
 9255SOL    HW228336   1.204   4.882   3.178 -0.4924  1.1633  0.6135
 9256SOL     OW28337   0.183   7.361   6.304  0.4114 -0.6100  0.5505
 9256SOL    HW128338   0.239   7.311   6.245  2.8851  2.8200 -0.3065
 9256SOL    HW228339   0.222   7.347   6.391  0.7194 -0.6338  0.4096
 9257SOL     OW28340   5.103   1.179   2.898  0.0680 -0.5343 -0.4084
 9257SOL    HW128341   5.114   1.188   2.803 -1.1635 -2.5097 -0.7981
 9257SOL    HW228342   5.009   1.187   2.912  0.3119  0.5427  0.7872
 9258SOL     OW28343   0.552   1.750   3.801  0.8079  0.1418  0.5475
 9258SOL    HW128344   0.592   1.813   3.860  0.5992  1.7576 -0.9604
 9258SOL    HW228345   0.619   1.733   3.735 -0.0296  0.8504 -0.5240
 9259SOL     OW28346   5.091   4.063   3.867  0.5412 -0.2233  0.2644
 9259SOL    HW128347   5.023   4.023   3.922  0.1978  0.2873  0.2172
 9259SOL    HW228348   5.151   3.991   3.848  0.7169 -0.3886  1.3833
 9260SOL     OW28349   0.843   2.538   0.589 -0.3317 -0.4335  0.0457
 9260SOL    HW128350   0.841   2.530   0.684  1.7224 -0.6157  0.1056
 9260SOL    HW228351   0.912   2.478   0.560 -1.6667 -1.2366 -1.6848
 9261SOL     OW28352   0.987   0.191   6.969  0.1216  0.0716  0.2908
 9261SOL    HW128353   0.986   0.258   6.900 -2.6964 -0.5329 -0.3741
 9261SOL    HW228354   1.010   0.240   7.049  1.0145  1.2445 -0.6456
 9262SOL     OW28355   1.647   6.985   3.201  0.5560 -0.1469  0.0951
 9262SOL    HW128356   1.732   6.969   3.242  0.9151 -0.3845 -0.7273
 9262SOL    HW228357   1.615   7.066   3.242  1.8796  0.8018 -0.6754
 9263SOL     OW28358   0.709   3.953   0.980  0.3776  0.4663 -0.2418
 9263SOL    HW128359   0.726   4.026   0.920  1.7355 -0.1994 -0.7043
 9263SOL    HW228360   0.638   3.904   0.938 -1.8611  2.4733  0.9733
 9264SOL     OW28361   0.216   2.886   0.605  0.3347 -0.4136  0.0841
 9264SOL    HW128362   0.201   2.791   0.603  0.4062 -0.4217 -0.0553
 9264SOL    HW228363   0.129   2.923   0.616 -0.0627 -0.3873 -2.4784
 9265SOL     OW28364   0.235   7.208   1.450  0.2222  0.2747  0.1964
 9265SOL    HW128365   0.278   7.222   1.534  0.9498 -0.6557  0.0031
 9265SOL    HW228366   0.246   7.290   1.403  2.1127 -0.0234  0.0396
 9266SOL     OW28367   1.437   0.694   5.880 -0.0998  0.0663 -0.2137
 9266SOL    HW128368   1.425   0.756   5.951 -0.5064 -1.0028  0.6769
 9266SOL    HW228369   1.358   0.640   5.881  0.7651 -1.2508 -0.1548
 9267SOL     OW28370   1.869   6.531   0.871  0.0329  0.7351  0.4193
 9267SOL    HW128371   1.805   6.481   0.820  0.4877  1.1400 -0.5662
 9267SOL    HW228372   1.858   6.498   0.961  0.3780 -1.2107 -0.2031
 9268SOL     OW28373   0.430   4.155   5.534  0.2696 -0.1508  0.6083
 9268SOL    HW128374   0.425   4.060   5.525  0.2784 -0.1026  0.0908
 9268SOL    HW228375   0.479   4.184   5.458 -0.9989  0.4040 -0.0255
 9269SOL     OW28376   4.022   0.257   4.871 -0.1090  0.0450 -0.0079
 9269SOL    HW128377   3.939   0.229   4.909 -0.7855  0.4905 -1.1129
 9269SOL    HW228378   4.063   0.175   4.842  0.4749 -0.3189  1.7102
 9270SOL     OW28379   2.475   3.687   7.430  0.3577  0.1289  0.3779
 9270SOL    HW128380   2.439   3.599   7.435 -0.1438  0.2490 -0.7654
 9270SOL    HW228381   2.413   3.742   7.477 -1.6535  0.5097 -2.4843
 9271SOL     OW28382   5.115   3.478   5.716 -0.2897  0.3768 -0.2548
 9271SOL    HW128383   5.102   3.571   5.698 -2.2050  0.3935  0.9134
 9271SOL    HW228384   5.091   3.434   5.635 -1.9325  0.8005 -0.0428
 9272SOL     OW28385   7.434   6.272   4.764 -0.4867  0.1117  0.0323
 9272SOL    HW128386   7.524   6.248   4.745 -0.1219  2.5577 -1.9011
 9272SOL    HW228387   7.414   6.229   4.847  2.2552 -0.9576  0.2232
 9273SOL     OW28388   5.214   6.298   5.738 -0.0875 -0.7775 -0.1645
 9273SOL    HW128389   5.169   6.334   5.661  1.1146  0.8148 -0.1590
 9273SOL    HW228390   5.305   6.288   5.711  0.4348  0.1736  1.1538
 9274SOL     OW28391   1.805   2.556   6.074 -0.3208 -0.0519 -0.8035
 9274SOL    HW128392   1.871   2.545   6.006  0.6509 -0.0640  0.1125
 9274SOL    HW228393   1.852   2.541   6.156 -1.0398  1.6807 -0.0166
 9275SOL     OW28394   2.362   7.342   2.558  0.0480 -0.4869 -0.4007
 9275SOL    HW128395   2.294   7.334   2.490 -0.4972  0.0111  0.0826
 9275SOL    HW228396   2.408   7.424   2.537 -0.9360  0.3329  0.5461
 9276SOL     OW28397   1.493   6.312   3.565 -0.0761  0.3814 -0.0384
 9276SOL    HW128398   1.577   6.267   3.551  1.0342  2.2121  0.3943
 9276SOL    HW228399   1.431   6.264   3.511  1.2654 -0.9595 -0.4696
 9277SOL     OW28400   1.132   3.146   2.225  0.0595  0.2711 -0.0510
 9277SOL    HW128401   1.072   3.077   2.255 -0.0343  1.1206  1.8485
 9277SOL    HW228402   1.099   3.171   2.139  0.1562 -2.0910 -0.8574
 9278SOL     OW28403   5.930   4.291   6.354 -0.5531  0.5517  0.2618
 9278SOL    HW128404   5.934   4.333   6.269 -0.1969 -0.0645 -0.0326
 9278SOL    HW228405   6.021   4.283   6.382 -0.6784  0.9308  0.7925
 9279SOL     OW28406   2.774   6.101   3.462 -0.7976 -0.3611 -0.0251
 9279SOL    HW128407   2.773   6.006   3.456  3.0025 -0.5470  0.0156
 9279SOL    HW228408   2.856   6.122   3.506 -0.7619  2.9972 -1.3851
 9280SOL     OW28409   1.959   4.787   1.087 -0.1187 -0.2655 -0.6599
 9280SOL    HW128410   2.046   4.828   1.088  0.3519 -0.9943  2.9996
 9280SOL    HW228411   1.972   4.706   1.036  1.2497 -0.1762 -0.5020
 9281SOL     OW28412   6.208   2.972   1.960 -0.0481  0.4797  0.1230
 9281SOL    HW128413   6.166   2.897   2.002  0.2350  0.0386 -0.3670
 9281SOL    HW228414   6.267   2.933   1.895  0.7684  1.1044  0.4757
 9282SOL     OW28415   1.742   6.476   5.905 -0.5662  0.1563 -0.8735
 9282SOL    HW128416   1.800   6.415   5.860 -1.1489  0.6061 -2.2899
 9282SOL    HW228417   1.801   6.533   5.954  0.1299 -0.0740 -1.4277
 9283SOL     OW28418   1.409   3.743   3.049 -0.1994  0.2072  0.1925
 9283SOL    HW128419   1.321   3.713   3.026 -0.5905 -0.3047  2.1376
 9283SOL    HW228420   1.456   3.746   2.966 -2.1967  1.0259 -0.9758
 9284SOL     OW28421   4.747   2.688   1.616  0.2177 -0.4126 -0.4980
 9284SOL    HW128422   4.815   2.664   1.680  1.3059 -0.0132 -1.4685
 9284SOL    HW228423   4.717   2.774   1.644  0.2549 -0.4996 -0.1837
 9285SOL     OW28424   3.111   3.570   0.328  0.4142  0.3112 -0.3677
 9285SOL    HW128425   3.111   3.529   0.414  1.4852 -0.2536 -0.6146
 9285SOL    HW228426   3.179   3.637   0.334 -0.0778  0.8338 -0.5282
 9286SOL     OW28427   1.606   4.087   0.845 -0.2006 -0.6262  0.7024
 9286SOL    HW128428   1.664   4.048   0.911  3.7504  0.7922 -1.5711
 9286SOL    HW228429   1.602   4.022   0.775  0.0814 -0.0236  0.1186
 9287SOL     OW28430   1.461   5.042   5.082 -0.0797  0.2083 -0.4022
 9287SOL    HW128431   1.403   4.966   5.078 -1.6290  1.3442 -0.4668
 9287SOL    HW228432   1.425   5.096   5.152  1.2774  0.6703 -0.0397
 9288SOL     OW28433   0.666   0.381   5.776 -0.2849 -0.0252  0.4536
 9288SOL    HW128434   0.649   0.470   5.808 -1.2022  0.6048 -1.6261
 9288SOL    HW228435   0.672   0.390   5.681  0.3654 -2.0872  0.2455
 9289SOL     OW28436   2.118   0.805   1.672 -0.3475 -0.6710  0.0177
 9289SOL    HW128437   2.032   0.838   1.644 -0.5515 -1.2541 -0.0623
 9289SOL    HW228438   2.100   0.718   1.706  0.3863 -1.3569 -1.2508
 9290SOL     OW28439   6.323   5.062   4.534 -0.6433  0.3589 -0.6338
 9290SOL    HW128440   6.315   5.082   4.628  0.3844 -0.5911 -0.3111
 9290SOL    HW228441   6.270   4.983   4.523 -1.0215  0.6542 -0.9233
 9291SOL     OW28442   2.758   6.234   5.609 -0.6874  0.0559 -0.2592
 9291SOL    HW128443   2.800   6.292   5.546  0.6021 -0.2328  0.2999
 9291SOL    HW228444   2.768   6.278   5.693  3.0416 -2.1601  0.7176
 9292SOL     OW28445   1.492   2.526   0.876 -0.7802  0.1693 -0.1172
 9292SOL    HW128446   1.572   2.577   0.883  0.1963 -1.4738  1.5426
 9292SOL    HW228447   1.522   2.436   0.859 -2.3053 -0.3632 -0.1872
 9293SOL     OW28448   1.660   3.556   4.190 -0.5825  0.5630 -0.7882
 9293SOL    HW128449   1.620   3.592   4.270  1.7061  0.0736  0.6681
 9293SOL    HW228450   1.606   3.480   4.168 -0.1094 -0.5589  1.5743
 9294SOL     OW28451   1.814   3.000   0.038  0.5015  0.1107  0.1724
 9294SOL    HW128452   1.756   2.926   0.058  0.8002  0.2544  1.7060
 9294SOL    HW228453   1.895   2.959   0.010  0.7118 -0.1710  1.1487
 9295SOL     OW28454   4.319   4.856   4.160 -1.1477  0.2160  0.4118
 9295SOL    HW128455   4.353   4.779   4.114 -1.5993 -0.8267  1.7397
 9295SOL    HW228456   4.227   4.861   4.134 -0.9009  0.8773 -0.3801
 9296SOL     OW28457   0.107   5.096   4.490  0.2854 -0.2112 -0.4005
 9296SOL    HW128458   0.139   5.122   4.576 -0.6334 -2.1889  0.6002
 9296SOL    HW228459   0.014   5.079   4.503  0.1912 -0.8280 -1.7074
 9297SOL     OW28460   0.236   1.076   2.086  0.2631  0.4713  0.1029
 9297SOL    HW128461   0.267   1.007   2.144  0.8190 -1.5013 -2.3374
 9297SOL    HW228462   0.287   1.154   2.111  1.4043 -0.6330  1.3606
 9298SOL     OW28463   2.105   0.709   7.170  0.4801  0.0517 -0.1591
 9298SOL    HW128464   2.137   0.651   7.101  0.1966 -0.1167 -0.1530
 9298SOL    HW228465   2.040   0.764   7.126  0.5501  0.1783 -0.1040
 9299SOL     OW28466   1.184   1.029   2.676  0.2115 -0.1497 -0.3761
 9299SOL    HW128467   1.258   0.970   2.692  1.6651  1.2580 -1.5872
 9299SOL    HW228468   1.132   0.985   2.609 -1.1495 -2.0101  1.7675
 9300SOL     OW28469   2.541   3.393   4.485 -0.0889  0.2585 -0.3370
 9300SOL    HW128470   2.577   3.480   4.469  0.5212  0.3508  1.3732
 9300SOL    HW228471   2.617   3.337   4.495 -0.3936  0.0798  1.3245
 9301SOL     OW28472   2.450   1.782   1.410  0.6735 -0.2044  0.0714
 9301SOL    HW128473   2.366   1.770   1.366  1.0233 -2.5619 -0.0850
 9301SOL    HW228474   2.497   1.845   1.356 -0.2164 -0.4417 -1.0171
 9302SOL     OW28475   4.323   2.023   2.659  0.1388 -0.5865  0.0852
 9302SOL    HW128476   4.295   1.995   2.746  1.3724 -0.4471  0.5385
 9302SOL    HW228477   4.332   1.942   2.609 -1.8232 -0.5970 -0.3316
 9303SOL     OW28478   4.972   4.273   0.593 -0.3530  0.7522 -0.4773
 9303SOL    HW128479   5.050   4.264   0.539 -0.4489 -2.5192 -0.2584
 9303SOL    HW228480   4.899   4.265   0.532 -0.4571 -1.1377 -0.1577
 9304SOL     OW28481   0.077   3.690   6.936 -0.0886  0.0963  0.6947
 9304SOL    HW128482   0.003   3.677   6.995 -0.5807  1.8418  0.5438
 9304SOL    HW228483   0.038   3.690   6.848 -0.1025  1.9450  0.6642
 9305SOL     OW28484   2.422   6.857   1.602  0.1373 -0.6259 -0.4498
 9305SOL    HW128485   2.413   6.902   1.518 -0.2254 -1.3626 -0.8128
 9305SOL    HW228486   2.469   6.776   1.581  0.7232 -0.4653  0.1842
 9306SOL     OW28487   6.828   3.906   3.986 -0.3224  0.0902  0.1647
 9306SOL    HW128488   6.877   3.909   4.069 -1.0673  2.4720  0.5734
 9306SOL    HW228489   6.832   3.814   3.960  2.3506 -0.2404  1.3721
 9307SOL     OW28490   2.972   2.381   0.906  0.1052 -0.1955 -0.2829
 9307SOL    HW128491   2.965   2.395   1.001 -1.6070 -2.2351 -0.0386
 9307SOL    HW228492   2.882   2.393   0.874  0.4309 -0.7944 -1.4684
 9308SOL     OW28493   5.883   6.635   5.068  0.1797  0.3754  0.2820
 9308SOL    HW128494   5.935   6.554   5.061  1.4695  1.2795 -1.2320
 9308SOL    HW228495   5.803   6.607   5.113  1.4023 -1.3357  1.5794
 9309SOL     OW28496   0.376   6.967   3.188 -0.6887  0.1108 -0.4427
 9309SOL    HW128497   0.454   7.019   3.207 -0.9106  0.1275  0.4598
 9309SOL    HW228498   0.377   6.957   3.093  0.5435 -0.1089 -0.4221
 9310SOL     OW28499   6.467   6.180   2.733 -0.2836  0.4551 -0.0196
 9310SOL    HW128500   6.486   6.100   2.683  0.6217 -1.0075  2.4664
 9310SOL    HW228501   6.393   6.220   2.687 -1.6139 -2.4955 -0.6776
 9311SOL     OW28502   5.740   2.087   1.374 -0.0356  0.4035  0.0075
 9311SOL    HW128503   5.691   2.063   1.296  0.1841  0.3607 -0.1190
 9311SOL    HW228504   5.726   2.016   1.436 -0.0380  0.3365 -0.0714
 9312SOL     OW28505   6.196   4.290   0.502  0.0187 -0.7722 -0.1458
 9312SOL    HW128506   6.224   4.324   0.418 -0.7729  0.6819  0.1433
 9312SOL    HW228507   6.273   4.296   0.558  0.7723 -2.4758 -0.9285
 9313SOL     OW28508   2.425   5.773   1.300 -0.5284  0.3694  0.3297
 9313SOL    HW128509   2.423   5.801   1.208 -2.4100 -0.9677 -0.0891
 9313SOL    HW228510   2.462   5.685   1.297  1.5652  1.1577  1.1746
 9314SOL     OW28511   4.922   6.728   5.646  0.3405  0.9795 -0.4988
 9314SOL    HW128512   4.891   6.811   5.609 -4.2245 -0.2817 -0.0642
 9314SOL    HW228513   4.852   6.701   5.706  2.8676 -1.9536  1.4186
 9315SOL     OW28514   5.414   3.918   1.502 -0.0132 -0.2218  0.4943
 9315SOL    HW128515   5.363   3.840   1.522 -0.6199  0.0812  0.1442
 9315SOL    HW228516   5.351   3.980   1.467 -0.0766  1.4166  3.2112
 9316SOL     OW28517   3.650   1.106   1.157 -0.4037  0.3760 -0.3224
 9316SOL    HW128518   3.600   1.059   1.223 -1.9856  1.9167 -0.3661
 9316SOL    HW228519   3.715   1.042   1.126 -2.4123 -1.7795 -0.3866
 9317SOL     OW28520   5.799   3.522   4.849  0.9379 -0.1210 -0.1847
 9317SOL    HW128521   5.844   3.605   4.840 -0.7787  1.2135  2.1991
 9317SOL    HW228522   5.772   3.519   4.941 -3.0855 -1.1012 -1.1762
 9318SOL     OW28523   6.907   6.863   0.906 -0.0319 -0.4019  0.5209
 9318SOL    HW128524   6.875   6.890   0.992  2.5902  0.6620  1.2601
 9318SOL    HW228525   6.969   6.792   0.924  0.7785  0.0384 -0.4401
 9319SOL     OW28526   4.667   3.099   1.132 -0.1261  0.1147 -0.4475
 9319SOL    HW128527   4.624   3.162   1.075 -1.0536 -0.8203 -0.8336
 9319SOL    HW228528   4.663   3.138   1.219  0.9673  1.3900 -0.9318
 9320SOL     OW28529   4.860   4.935   3.581  0.4960  0.4703  0.1406
 9320SOL    HW128530   4.894   5.019   3.552 -0.6120  1.0560  0.4727
 9320SOL    HW228531   4.924   4.902   3.644  1.9313  0.1136 -1.4285
 9321SOL     OW28532   1.471   3.571   3.240  0.0632 -0.1723  0.2531
 9321SOL    HW128533   1.564   3.590   3.244  0.0233 -0.1035  0.8902
 9321SOL    HW228534   1.439   3.623   3.166  0.3904  0.3779  0.4950
 9322SOL     OW28535   2.869   0.658   0.432 -0.1947  0.4990 -0.1265
 9322SOL    HW128536   2.937   0.718   0.400 -1.2995  1.8833 -0.0024
 9322SOL    HW228537   2.790   0.685   0.385 -0.8073 -0.6327  0.2261
 9323SOL     OW28538   4.711   3.129   6.952 -0.6737  0.6142 -0.2003
 9323SOL    HW128539   4.617   3.132   6.934 -0.8202  1.7281  0.6689
 9323SOL    HW228540   4.718   3.133   7.048  0.2971  1.9363 -0.3033
 9324SOL     OW28541   0.058   7.026   4.798  0.5928 -0.3007 -0.1714
 9324SOL    HW128542   0.093   7.114   4.809  0.0615 -0.0848 -0.2109
 9324SOL    HW228543  -0.026   7.027   4.844  0.4227 -0.6827 -0.4671
 9325SOL     OW28544   6.646   7.083   7.310 -0.1272 -0.2556  0.1042
 9325SOL    HW128545   6.562   7.111   7.347  0.0181 -0.7421  0.8030
 9325SOL    HW228546   6.627   7.066   7.218 -0.4347  1.2163 -0.1331
 9326SOL     OW28547   0.886   3.489   6.898 -0.2687  0.9055 -0.1574
 9326SOL    HW128548   0.834   3.443   6.964 -1.3961  3.0769  0.5526
 9326SOL    HW228549   0.855   3.454   6.815 -1.2377  0.5602  0.3366
 9327SOL     OW28550   4.921   1.701   2.582  0.1461  0.0297  0.4774
 9327SOL    HW128551   4.932   1.650   2.662  1.8428  1.6586  1.3480
 9327SOL    HW228552   5.004   1.747   2.570  1.0464 -2.1385 -3.7212
 9328SOL     OW28553   2.539   2.932   5.353 -0.0454  0.2197 -0.1251
 9328SOL    HW128554   2.462   2.926   5.410  0.7187  0.3336  0.9695
 9328SOL    HW228555   2.592   2.856   5.377  0.4493  0.4610 -0.4385
 9329SOL     OW28556   7.018   0.663   2.522  0.1094  0.6586  0.0988
 9329SOL    HW128557   7.008   0.633   2.432 -0.6203  0.6090  0.1902
 9329SOL    HW228558   7.058   0.750   2.514 -1.1270  1.2090 -0.3426
 9330SOL     OW28559   1.139   7.037   4.814 -0.2753  0.4955 -0.1499
 9330SOL    HW128560   1.135   7.048   4.909  0.4431  0.1291 -0.0706
 9330SOL    HW228561   1.066   6.978   4.794 -0.9561  1.2450  0.0593
 9331SOL     OW28562   5.162   3.779   5.198 -0.4965 -0.3622  0.7828
 9331SOL    HW128563   5.137   3.847   5.260 -2.7136 -1.1270  0.7914
 9331SOL    HW228564   5.145   3.817   5.112 -0.2706 -0.3779  0.7288
 9332SOL     OW28565   7.257   5.387   1.280  0.2181  0.0688 -0.5629
 9332SOL    HW128566   7.280   5.477   1.256  0.8539 -0.1711 -0.8841
 9332SOL    HW228567   7.196   5.396   1.353  0.2281  0.7616 -0.6342
 9333SOL     OW28568   4.244   7.171   6.573 -0.1620  0.0221  0.1835
 9333SOL    HW128569   4.284   7.233   6.512  0.6694  1.3826  2.0094
 9333SOL    HW228570   4.166   7.140   6.528 -0.8364  2.6893 -0.6951
 9334SOL     OW28571   3.391   3.049   5.067  0.4610  0.0119 -0.1398
 9334SOL    HW128572   3.300   3.026   5.085 -0.1472  1.6235 -0.9882
 9334SOL    HW228573   3.398   3.049   4.972  0.3167  3.3869 -0.2511
 9335SOL     OW28574   5.959   2.965   2.794  0.6178  0.1010 -0.0385
 9335SOL    HW128575   5.886   2.982   2.854  1.0027 -0.1384  0.5046
 9335SOL    HW228576   5.968   3.046   2.744  0.3635  0.3388  0.3008
 9336SOL     OW28577   5.019   4.017   1.176 -0.2456 -0.8007 -0.0818
 9336SOL    HW128578   5.026   4.088   1.113  1.8262 -1.4113 -0.6123
 9336SOL    HW228579   5.053   4.053   1.258  0.3250 -1.0194 -0.2193
 9337SOL     OW28580   1.645   1.621   1.916  0.1637 -0.8448  0.1988
 9337SOL    HW128581   1.651   1.681   1.841 -1.0526 -0.8992  0.0496
 9337SOL    HW228582   1.713   1.652   1.976  1.9528 -1.4899 -1.3894
 9338SOL     OW28583   4.514   6.852   7.060 -0.0810  0.0024  0.5410
 9338SOL    HW128584   4.492   6.802   7.139  2.0133 -0.0294  1.1499
 9338SOL    HW228585   4.444   6.829   6.998 -0.6538 -1.5910  1.6960
 9339SOL     OW28586   3.274   6.588   6.360 -0.4132  0.0068  0.6000
 9339SOL    HW128587   3.216   6.648   6.407  0.0598 -0.1266  1.3568
 9339SOL    HW228588   3.253   6.602   6.267 -0.8799  0.7499  0.8160
 9340SOL     OW28589   4.217   3.575   0.025 -0.4495  0.8567 -0.0913
 9340SOL    HW128590   4.211   3.504  -0.039 -0.4895  0.2867  0.5283
 9340SOL    HW228591   4.305   3.567   0.062 -0.7198  0.6241  0.5331
 9341SOL     OW28592   6.775   3.761   1.226  0.3645  0.3946 -0.3795
 9341SOL    HW128593   6.735   3.844   1.252 -1.2572 -0.3914 -0.2964
 9341SOL    HW228594   6.716   3.724   1.161 -0.1602 -1.7327  1.1930
 9342SOL     OW28595   1.548   3.935   4.814 -0.3185 -0.4101  0.4094
 9342SOL    HW128596   1.527   4.025   4.835 -0.3623 -0.5159  0.8269
 9342SOL    HW228597   1.638   3.923   4.846  0.2097 -0.1143 -0.8814
 9343SOL     OW28598   0.049   2.767   0.869 -0.0076  0.1444  0.3178
 9343SOL    HW128599  -0.018   2.711   0.831  0.4876 -1.8331  2.1270
 9343SOL    HW228600   0.001   2.828   0.925 -0.4275  0.1163 -0.0137
 9344SOL     OW28601   5.783   0.810   5.973 -0.0446  0.5376  0.2366
 9344SOL    HW128602   5.732   0.766   6.041 -0.4298 -0.6486 -0.7858
 9344SOL    HW228603   5.725   0.813   5.897 -0.3086  3.5323  0.4621
 9345SOL     OW28604   2.567   4.882   1.271  0.6268 -0.5523  0.0944
 9345SOL    HW128605   2.598   4.886   1.362  0.9482  3.8325  0.0114
 9345SOL    HW228606   2.496   4.945   1.267 -0.3931 -1.7305 -2.4348
 9346SOL     OW28607   4.049   0.495   0.106 -0.1976 -0.6215 -0.2350
 9346SOL    HW128608   3.970   0.507   0.053 -1.7335 -0.8559  1.8665
 9346SOL    HW228609   4.017   0.487   0.196  2.3742  1.1074  0.9586
 9347SOL     OW28610   0.743   2.887   1.698 -0.5610 -0.0711  0.6809
 9347SOL    HW128611   0.808   2.821   1.724 -1.0298 -1.2860 -1.0337
 9347SOL    HW228612   0.659   2.847   1.719 -0.8161  0.7915  1.3423
 9348SOL     OW28613   6.827   5.357   7.211  0.3422  0.2349  0.0465
 9348SOL    HW128614   6.851   5.428   7.271  0.2994  0.4109 -0.1442
 9348SOL    HW228615   6.909   5.311   7.196  0.1602 -0.4603  1.0818
 9349SOL     OW28616   4.579   4.258   5.040 -0.0219 -0.3589  0.2301
 9349SOL    HW128617   4.604   4.165   5.036  0.5295 -0.1661 -1.6931
 9349SOL    HW228618   4.654   4.301   5.080  0.5810 -0.4846 -0.7443
 9350SOL     OW28619   6.855   0.914   0.601 -0.0450  0.0281  0.0145
 9350SOL    HW128620   6.886   0.892   0.689 -2.6178 -0.3044  0.9465
 9350SOL    HW228621   6.793   0.844   0.579 -1.9883  1.7977 -0.5763
 9351SOL     OW28622   6.947   6.043   6.376  0.5977 -0.0668 -0.3160
 9351SOL    HW128623   7.028   6.053   6.326  0.0485  0.0539 -1.2058
 9351SOL    HW228624   6.914   5.956   6.352 -0.0100  0.2558 -0.6935
 9352SOL     OW28625   1.426   0.907   6.163 -0.2629 -0.0818 -0.0045
 9352SOL    HW128626   1.380   0.839   6.213 -1.1868 -0.5319 -1.4052
 9352SOL    HW228627   1.360   0.976   6.151 -0.4189 -0.4630 -1.5140
 9353SOL     OW28628   6.004   6.511   4.092  0.7331 -0.2913 -0.0385
 9353SOL    HW128629   5.920   6.469   4.106 -0.0166  1.6659  1.9102
 9353SOL    HW228630   6.056   6.485   4.169  1.3744 -0.2443 -0.4546
 9354SOL     OW28631   0.794   3.806   6.261 -0.4867 -0.2179  0.2645
 9354SOL    HW128632   0.825   3.716   6.258 -1.7355 -0.6362 -1.2569
 9354SOL    HW228633   0.757   3.822   6.174  1.2380  2.3458 -0.1149
 9355SOL     OW28634   6.392   5.187   0.940  0.0691  0.4265 -0.2884
 9355SOL    HW128635   6.453   5.131   0.988 -1.5748 -0.6280  0.6577
 9355SOL    HW228636   6.376   5.261   1.000  1.3136  1.3446 -1.0428
 9356SOL     OW28637   5.316   5.290   5.239 -0.3451 -0.6662 -0.2128
 9356SOL    HW128638   5.391   5.318   5.187 -0.1206 -0.1624  0.3672
 9356SOL    HW228639   5.318   5.347   5.316 -1.8385 -0.0506 -0.6037
 9357SOL     OW28640   2.585   3.873   6.221 -0.3352 -0.5909  0.1872
 9357SOL    HW128641   2.546   3.961   6.221  0.0220 -0.4259  1.0305
 9357SOL    HW228642   2.515   3.816   6.253 -1.3193 -0.9900 -2.4453
 9358SOL     OW28643   1.806   5.791   5.871  0.3498 -0.2667 -0.0047
 9358SOL    HW128644   1.809   5.883   5.843  0.0954 -0.0699  0.6027
 9358SOL    HW228645   1.880   5.782   5.931 -1.3138  0.3372  2.2598
 9359SOL     OW28646   6.429   2.926   3.269 -0.1794 -0.4757 -0.5435
 9359SOL    HW128647   6.408   2.948   3.178  0.9170 -0.6216 -0.8460
 9359SOL    HW228648   6.509   2.975   3.287 -0.3686 -0.4827  0.3373
 9360SOL     OW28649   0.215   6.370   6.774 -0.0629  0.5512  0.1748
 9360SOL    HW128650   0.211   6.293   6.718 -0.9163 -0.6858  1.8353
 9360SOL    HW228651   0.146   6.427   6.741 -0.1017  0.1549 -0.4508
 9361SOL     OW28652   1.712   2.737   4.012  0.3113 -0.3804 -0.1874
 9361SOL    HW128653   1.673   2.824   4.025  0.7007 -0.3106  0.5973
 9361SOL    HW228654   1.687   2.688   4.090 -0.9081 -1.3709 -1.1655
 9362SOL     OW28655   5.269   4.793   0.589 -0.3755  0.0585 -0.1387
 9362SOL    HW128656   5.293   4.703   0.567 -2.1964 -0.3544 -0.5873
 9362SOL    HW228657   5.209   4.785   0.664  1.0107  1.0616  1.1456
 9363SOL     OW28658   4.255   0.378   2.638 -0.1368 -0.4955 -0.0493
 9363SOL    HW128659   4.251   0.470   2.666  0.4741 -0.2066 -0.8503
 9363SOL    HW228660   4.166   0.346   2.648 -0.1357 -0.1424  1.2832
 9364SOL     OW28661   3.540   0.498   4.162  0.1465 -0.5555 -0.2890
 9364SOL    HW128662   3.528   0.592   4.151 -0.1097 -0.0093  3.5412
 9364SOL    HW228663   3.451   0.463   4.166  0.2421 -0.9754 -1.4506
 9365SOL     OW28664   6.628   1.243   3.861 -0.7145 -0.1044  0.3168
 9365SOL    HW128665   6.723   1.256   3.855 -0.9678  1.5440 -0.6934
 9365SOL    HW228666   6.609   1.178   3.793 -0.5321  1.0795 -0.9165
 9366SOL     OW28667   4.173   4.557   3.588  0.3998  0.0561  0.0110
 9366SOL    HW128668   4.235   4.520   3.650  0.9882 -1.2973 -1.3347
 9366SOL    HW228669   4.225   4.619   3.536  0.4362 -0.4502 -0.5634
 9367SOL     OW28670   7.253   0.255   4.318  0.0714  0.4068 -0.1117
 9367SOL    HW128671   7.310   0.308   4.374  0.9630 -0.2898 -0.3392
 9367SOL    HW228672   7.253   0.169   4.359  2.6299 -0.8036 -2.3637
 9368SOL     OW28673   5.890   0.850   4.958  0.1425 -0.0496  0.6928
 9368SOL    HW128674   5.881   0.780   5.022 -0.1937  0.3016  1.0372
 9368SOL    HW228675   5.936   0.920   5.005 -1.6074  0.8837  1.1140
 9369SOL     OW28676   0.993   1.205   0.267  0.2553 -0.2657  0.8106
 9369SOL    HW128677   0.985   1.184   0.360 -1.9902 -0.3375  0.6531
 9369SOL    HW228678   0.964   1.126   0.222 -0.1993  0.3059  0.0830
 9370SOL     OW28679   4.362   4.559   7.306 -0.1636  0.1659 -0.1186
 9370SOL    HW128680   4.431   4.622   7.284 -0.0321 -0.1378 -0.5774
 9370SOL    HW228681   4.280   4.604   7.284 -0.1450  0.7065  0.8637
 9371SOL     OW28682   2.328   2.879   7.160  0.2736 -0.5762 -0.1883
 9371SOL    HW128683   2.234   2.884   7.144 -0.2010  1.3273  2.5894
 9371SOL    HW228684   2.363   2.960   7.123  0.5086 -0.3787  0.4489
 9372SOL     OW28685   5.289   1.299   5.618  1.0535  0.5399 -1.1394
 9372SOL    HW128686   5.290   1.220   5.565  1.5165  0.4940 -1.0615
 9372SOL    HW228687   5.223   1.355   5.577 -1.4146 -0.9996  0.4239
 9373SOL     OW28688   5.331   0.069   5.750 -0.1847  0.5909  0.4748
 9373SOL    HW128689   5.376  -0.015   5.752 -0.5540  0.3950  0.7639
 9373SOL    HW228690   5.348   0.104   5.663  0.9986  0.7822  0.7591
 9374SOL     OW28691   1.693   0.330   5.018  0.6710 -0.2123 -0.1279
 9374SOL    HW128692   1.670   0.295   5.104 -2.1459 -2.1463 -1.5202
 9374SOL    HW228693   1.769   0.279   4.990 -1.4888 -3.3484 -0.7982
 9375SOL     OW28694   3.060   2.059   1.716  0.0157 -0.0259 -0.1223
 9375SOL    HW128695   3.141   2.109   1.699 -0.0828 -0.2429 -1.2877
 9375SOL    HW228696   3.047   2.007   1.638 -1.8214  0.7611 -0.3998
 9376SOL     OW28697   5.480   2.405   5.121  0.9145  0.0137 -0.8783
 9376SOL    HW128698   5.444   2.433   5.206  2.4482 -2.6104  0.7628
 9376SOL    HW228699   5.421   2.443   5.057 -1.0734  1.0638  1.4076
 9377SOL     OW28700   3.721   5.638   0.884 -0.4568 -0.2156  0.0288
 9377SOL    HW128701   3.767   5.622   0.966  1.1760 -2.3779 -1.2045
 9377SOL    HW228702   3.643   5.688   0.909  1.1316  1.1625  2.5617
 9378SOL     OW28703   1.910   6.438   6.468 -0.3168 -0.2527  0.2416
 9378SOL    HW128704   1.816   6.419   6.466  0.0875 -2.8472  1.5378
 9378SOL    HW228705   1.936   6.423   6.559  1.3625  0.3856 -0.1030
 9379SOL     OW28706   6.177   4.179   6.106 -0.1420  0.1654 -0.1844
 9379SOL    HW128707   6.208   4.189   6.195 -1.1581 -0.3197  0.2413
 9379SOL    HW228708   6.256   4.163   6.054  0.4112  0.0587  0.6805
 9380SOL     OW28709   1.171   6.268   4.258 -0.1331 -0.1237 -0.0240
 9380SOL    HW128710   1.186   6.189   4.207 -1.2411  0.1893 -0.8790
 9380SOL    HW228711   1.247   6.324   4.240  0.1557 -0.5809 -0.2260
 9381SOL     OW28712   0.634   4.612   3.446 -0.5057  0.5857  0.3403
 9381SOL    HW128713   0.634   4.693   3.497 -1.1183  1.4063 -0.9242
 9381SOL    HW228714   0.552   4.569   3.469 -0.9153  1.0913 -0.1322
 9382SOL     OW28715   7.270   4.442   3.300 -0.0856  0.3851  0.4336
 9382SOL    HW128716   7.281   4.414   3.209  2.6609 -0.3363  0.8902
 9382SOL    HW228717   7.232   4.365   3.343 -0.1662  0.2557  0.1374
 9383SOL     OW28718   1.441   2.671   7.316 -0.1291 -0.5772  0.2254
 9383SOL    HW128719   1.348   2.658   7.294  0.1113  0.0927 -1.2893
 9383SOL    HW228720   1.441   2.741   7.381 -0.5505  1.6912 -2.0574
 9384SOL     OW28721   4.455   5.167   5.525 -0.6912  0.0062  0.5435
 9384SOL    HW128722   4.456   5.114   5.445 -1.1925  0.5641  0.1610
 9384SOL    HW228723   4.543   5.156   5.561 -0.5791 -0.5659  0.1281
 9385SOL     OW28724   1.943   2.431   5.021 -0.3229 -0.8308  0.0380
 9385SOL    HW128725   1.987   2.413   5.104 -0.1467 -0.0517  0.1204
 9385SOL    HW228726   1.853   2.451   5.045 -0.0854  0.1901  0.1345
 9386SOL     OW28727   2.435   5.996   3.253  0.1577 -0.1216 -0.1710
 9386SOL    HW128728   2.476   6.067   3.204  2.2208 -0.7849  0.4904
 9386SOL    HW228729   2.427   5.925   3.190 -0.9351  0.3256 -0.5583
 9387SOL     OW28730   5.881   3.083   0.318  0.2609 -0.3781 -0.1113
 9387SOL    HW128731   5.945   3.031   0.366  0.8769  0.2149 -0.2607
 9387SOL    HW228732   5.934   3.139   0.261 -0.2878  1.4275  1.0546
 9388SOL     OW28733   1.059   1.018   4.295 -0.3166  0.1894 -0.1630
 9388SOL    HW128734   0.964   1.016   4.278 -0.3924 -0.8214  0.3192
 9388SOL    HW228735   1.099   1.005   4.209 -0.5659  2.2974 -0.6457
 9389SOL     OW28736   7.134   1.241   5.473  0.3459  0.1557  0.2999
 9389SOL    HW128737   7.134   1.307   5.543 -0.3403 -0.2208  0.6685
 9389SOL    HW228738   7.048   1.199   5.480  1.0539 -1.2966  0.5723
 9390SOL     OW28739   1.737   4.528   3.718 -0.2281 -0.1295  0.5587
 9390SOL    HW128740   1.801   4.480   3.771  1.2285 -0.0681 -1.0764
 9390SOL    HW228741   1.713   4.467   3.648 -0.1610  0.6910 -0.1934
 9391SOL     OW28742   4.075   6.409   0.163 -0.3185  0.0441 -0.0922
 9391SOL    HW128743   4.078   6.472   0.236 -0.3021 -0.3834  0.2779
 9391SOL    HW228744   4.166   6.404   0.133  0.0458 -1.2066  1.0972
 9392SOL     OW28745   5.384   2.423   0.105  0.2884 -0.3278 -0.1458
 9392SOL    HW128746   5.322   2.436   0.177  1.0260 -2.2038  0.8947
 9392SOL    HW228747   5.468   2.450   0.140  0.3866  0.4336 -0.9308
 9393SOL     OW28748   2.812   3.917   1.273 -0.0912 -0.0035  0.1980
 9393SOL    HW128749   2.818   4.007   1.243 -0.2074 -0.0445  0.0514
 9393SOL    HW228750   2.902   3.891   1.291  0.0959 -0.3312 -1.1335
 9394SOL     OW28751   5.317   6.664   4.534  0.1273 -0.3291  0.7189
 9394SOL    HW128752   5.285   6.593   4.477  0.3937  0.0568  0.0797
 9394SOL    HW228753   5.412   6.651   4.537  0.0826 -0.5232  1.3203
 9395SOL     OW28754   5.290   2.645   5.172 -0.0372  0.8211  0.2063
 9395SOL    HW128755   5.299   2.632   5.077 -0.4031  3.0924 -0.1818
 9395SOL    HW228756   5.241   2.568   5.201  0.4807 -0.1532 -1.3530
 9396SOL     OW28757   5.811   3.530   3.812 -0.3373  0.2603 -0.1901
 9396SOL    HW128758   5.809   3.596   3.881 -0.4282  0.2283 -0.1625
 9396SOL    HW228759   5.822   3.447   3.859  2.5917  0.4601 -0.3244
 9397SOL     OW28760   6.188   5.439   1.706  0.0034  0.1361 -0.0277
 9397SOL    HW128761   6.102   5.420   1.744 -0.0827 -0.7823 -0.6506
 9397SOL    HW228762   6.245   5.454   1.781 -0.8805  1.6934  0.3883
 9398SOL     OW28763   6.075   3.377   0.507  0.3215 -0.4694 -0.1742
 9398SOL    HW128764   6.042   3.299   0.551  1.1551 -0.7338 -0.0091
 9398SOL    HW228765   6.146   3.408   0.564  0.2133  0.2262 -0.4035
 9399SOL     OW28766   4.514   1.030   6.212 -0.1422 -0.2236 -0.1166
 9399SOL    HW128767   4.465   1.103   6.174  0.3155  0.9492  1.4220
 9399SOL    HW228768   4.598   1.031   6.166 -0.5296 -0.4892 -0.8481
 9400SOL     OW28769   6.528   0.299   4.093  0.3257  0.1469  0.3595
 9400SOL    HW128770   6.458   0.302   4.159  0.5364  0.9707  0.5643
 9400SOL    HW228771   6.483   0.309   4.009 -0.0224 -1.6768  0.2962
 9401SOL     OW28772   2.450   3.270   6.046  0.2838 -0.3429  0.3226
 9401SOL    HW128773   2.390   3.303   6.113  1.0843  1.2810  0.2893
 9401SOL    HW228774   2.522   3.232   6.095 -0.6266 -2.1573  0.3603
 9402SOL     OW28775   1.410   3.616   5.571  0.1511 -0.5457 -0.6813
 9402SOL    HW128776   1.346   3.602   5.501 -1.5549  3.9068 -0.3255
 9402SOL    HW228777   1.482   3.662   5.528 -1.1807  2.7888  0.3328
 9403SOL     OW28778   2.467   0.135   2.512 -0.0454 -0.7942 -0.7387
 9403SOL    HW128779   2.545   0.161   2.462 -0.4526 -1.3407 -1.6929
 9403SOL    HW228780   2.415   0.215   2.518  0.0425 -0.7038 -1.1395
 9404SOL     OW28781   2.825   4.289   6.174  0.8779  0.0158 -0.1417
 9404SOL    HW128782   2.842   4.218   6.237 -0.8277 -0.3261 -0.0113
 9404SOL    HW228783   2.819   4.245   6.089 -0.4588 -0.0939 -0.0261
 9405SOL     OW28784   2.324   5.428   6.844  0.1708 -0.3678  0.4480
 9405SOL    HW128785   2.264   5.459   6.776 -0.2040  1.3336  1.4740
 9405SOL    HW228786   2.392   5.496   6.848  1.5461 -1.6661  0.1235
 9406SOL     OW28787   4.141   6.804   4.546 -0.4346  0.2481 -0.2034
 9406SOL    HW128788   4.129   6.728   4.602  2.7930  0.2996  0.7853
 9406SOL    HW228789   4.151   6.768   4.458 -1.5821 -0.1930 -0.1651
 9407SOL     OW28790   3.987   6.040   2.719 -0.8206  0.5280  0.0538
 9407SOL    HW128791   3.936   6.113   2.757 -0.3182  1.5243 -1.1155
 9407SOL    HW228792   4.076   6.075   2.712 -0.4121 -0.4689  0.1240
 9408SOL     OW28793   4.021   6.003   5.551 -0.0900  0.0369  0.4535
 9408SOL    HW128794   4.061   5.919   5.533  0.2763  0.6759 -2.0943
 9408SOL    HW228795   3.963   6.019   5.476 -0.5769  1.7809  1.1421
 9409SOL     OW28796   5.741   0.222   5.024 -0.3015  0.2940 -0.0036
 9409SOL    HW128797   5.738   0.277   4.946 -0.3854 -0.9006 -0.8581
 9409SOL    HW228798   5.724   0.283   5.096 -0.5830  1.3552 -0.9338
 9410SOL     OW28799   2.653   6.613   2.679 -0.0954  0.4792  0.0404
 9410SOL    HW128800   2.630   6.601   2.587  0.3686 -1.5409  0.1502
 9410SOL    HW228801   2.584   6.568   2.728 -0.2539  1.3981  0.6949
 9411SOL     OW28802   4.186   6.351   5.673 -0.0535 -0.3604 -0.4530
 9411SOL    HW128803   4.163   6.345   5.766 -1.4340  0.9600 -0.6743
 9411SOL    HW228804   4.266   6.299   5.665  0.2484 -0.2822  1.5188
 9412SOL     OW28805   2.795   4.238   4.503  0.1203 -0.4386  0.4327
 9412SOL    HW128806   2.701   4.218   4.509  0.1862 -0.4033  2.2399
 9412SOL    HW228807   2.838   4.161   4.541  0.7982 -0.1866  0.1842
 9413SOL     OW28808   0.862   4.487   1.277  0.0995 -0.1124  0.4919
 9413SOL    HW128809   0.882   4.394   1.291  0.9833 -0.2815 -1.5449
 9413SOL    HW228810   0.932   4.518   1.219 -0.1786  1.8393  1.1361
 9414SOL     OW28811   3.923   6.352   5.561  0.1693  0.1705 -0.3012
 9414SOL    HW128812   3.870   6.273   5.566  0.6197 -0.1423 -0.3805
 9414SOL    HW228813   4.011   6.324   5.588  0.1706  0.8025  0.3913
 9415SOL     OW28814   5.387   2.174   1.168  0.2861 -0.1362  0.1318
 9415SOL    HW128815   5.401   2.105   1.104 -1.1326 -0.4086  0.0879
 9415SOL    HW228816   5.321   2.139   1.228  1.3380  0.2285  1.5894
 9416SOL     OW28817   2.381   5.972   0.582 -0.3046 -0.1174 -0.3000
 9416SOL    HW128818   2.390   6.054   0.532  1.6811 -0.6887 -0.9608
 9416SOL    HW228819   2.344   5.910   0.519 -0.3547 -0.1357 -0.2528
 9417SOL     OW28820   4.340   1.432   4.401  0.2946 -0.3308 -0.2294
 9417SOL    HW128821   4.329   1.508   4.458  0.8840 -0.3014 -0.1538
 9417SOL    HW228822   4.252   1.414   4.368  0.0638  0.0600  0.1665
 9418SOL     OW28823   3.642   0.233   5.848  0.5946  0.3989  0.1043
 9418SOL    HW128824   3.571   0.170   5.842  1.4084 -0.4802 -0.5054
 9418SOL    HW228825   3.629   0.276   5.932  0.6411 -1.3468  1.0483
 9419SOL     OW28826   0.762   3.507   4.050 -0.0834 -0.2070 -0.3395
 9419SOL    HW128827   0.829   3.495   4.118  0.2460  0.6388 -0.5046
 9419SOL    HW228828   0.810   3.537   3.973 -0.4430 -1.2760 -0.9937
 9420SOL     OW28829   7.237   6.022   6.063 -0.6889 -0.4151  0.8357
 9420SOL    HW128830   7.248   6.028   6.158  0.1102 -1.0490  0.7978
 9420SOL    HW228831   7.220   5.929   6.047  0.8963 -0.6317  0.2149
 9421SOL     OW28832   1.176   3.265   4.991 -0.2937 -0.0406  0.3909
 9421SOL    HW128833   1.128   3.183   4.997 -1.1709  0.3530 -0.9940
 9421SOL    HW228834   1.268   3.241   5.006 -0.7446 -0.9876  1.7523
 9422SOL     OW28835   0.798   5.616   3.287 -0.3095 -0.0881  0.2452
 9422SOL    HW128836   0.889   5.645   3.283 -1.0373  2.2522 -1.4523
 9422SOL    HW228837   0.798   5.531   3.243  0.9350  0.1813 -0.3120
 9423SOL     OW28838   3.262   3.093   4.221  0.1766 -0.4551 -0.1518
 9423SOL    HW128839   3.290   3.072   4.132  0.8894  0.8034 -0.2388
 9423SOL    HW228840   3.260   3.008   4.265  1.4278 -0.9204 -0.9232
 9424SOL     OW28841   1.194   5.444   4.083 -0.7290 -0.0609 -0.0094
 9424SOL    HW128842   1.185   5.395   4.001 -0.2936  0.5006 -0.4017
 9424SOL    HW228843   1.282   5.481   4.079 -0.8342  0.2634  0.5544
 9425SOL     OW28844   4.397   4.176   5.796 -0.1279 -0.0908 -0.4500
 9425SOL    HW128845   4.450   4.133   5.729  0.4028 -0.9016  0.4527
 9425SOL    HW228846   4.415   4.270   5.786 -0.0345 -0.2114 -1.4022
 9426SOL     OW28847   3.904   4.102   2.816  0.5958 -0.3859 -0.9103
 9426SOL    HW128848   3.877   4.013   2.797 -1.0503 -0.4382  1.2885
 9426SOL    HW228849   3.825   4.155   2.803  0.8091  0.3153  0.4039
 9427SOL     OW28850   5.560   4.271   0.566 -0.1858 -0.4184 -0.2526
 9427SOL    HW128851   5.594   4.345   0.517 -0.1483  0.8992  1.6437
 9427SOL    HW228852   5.627   4.252   0.631 -0.8392 -1.1619  0.2321
 9428SOL     OW28853   2.147   0.378   6.791 -0.3408  0.3061 -0.4566
 9428SOL    HW128854   2.239   0.402   6.777  0.3046 -0.5622  1.8481
 9428SOL    HW228855   2.144   0.284   6.771 -0.6803  0.2969 -0.3627
 9429SOL     OW28856   3.099   2.888   5.657  0.1669  0.0413  0.4071
 9429SOL    HW128857   3.080   2.973   5.616 -0.1238 -0.0602  0.3335
 9429SOL    HW228858   3.171   2.852   5.605  0.6485  0.4764  0.7560
 9430SOL     OW28859   5.268   5.860   4.980  0.1945 -0.2772  0.9023
 9430SOL    HW128860   5.293   5.772   5.007 -0.2891 -0.2209  1.5659
 9430SOL    HW228861   5.173   5.856   4.969  0.4563 -0.6078 -2.0265
 9431SOL     OW28862   6.464   1.510   1.251 -0.7600 -0.7131  0.5053
 9431SOL    HW128863   6.394   1.510   1.317 -0.7429 -0.6038  0.5254
 9431SOL    HW228864   6.438   1.579   1.190 -0.6019 -0.5797  0.5866
 9432SOL     OW28865   2.387   2.681   3.258  0.0613 -0.0745 -0.0427
 9432SOL    HW128866   2.346   2.624   3.193  0.9092 -1.7041  0.7984
 9432SOL    HW228867   2.339   2.663   3.339 -0.7413  1.6646 -0.0856
 9433SOL     OW28868   2.512   6.985   0.653  0.3255 -0.1796 -0.7666
 9433SOL    HW128869   2.562   6.920   0.604 -0.3073 -2.2255  1.1511
 9433SOL    HW228870   2.423   6.949   0.659  0.0887  0.5462  0.8101
 9434SOL     OW28871   2.399   5.475   6.522  0.4188 -0.5432  0.2993
 9434SOL    HW128872   2.308   5.487   6.549  0.3098  1.1426 -0.7070
 9434SOL    HW228873   2.424   5.391   6.560 -1.4799 -0.9326  0.7870
 9435SOL     OW28874   2.765   5.005   1.983  0.3777 -0.6567 -0.2789
 9435SOL    HW128875   2.686   5.024   2.034  1.3797  2.4462  0.3392
 9435SOL    HW228876   2.837   5.018   2.045  1.4793 -0.7652 -1.4881
 9436SOL     OW28877   6.095   1.564   1.156 -0.0309  0.5168  0.0429
 9436SOL    HW128878   6.134   1.632   1.101  0.6390 -0.1862 -0.3642
 9436SOL    HW228879   6.118   1.589   1.246 -0.0121  0.9658 -0.0860
 9437SOL     OW28880   6.284   2.714   3.355  0.4214  0.1942  0.0582
 9437SOL    HW128881   6.352   2.775   3.324  2.0398 -1.0250  1.0420
 9437SOL    HW228882   6.243   2.682   3.275  0.7961  1.1927 -0.5581
 9438SOL     OW28883   5.982   4.253   0.838  0.1037 -0.1697 -0.3177
 9438SOL    HW128884   6.047   4.323   0.852 -1.1649  1.1630 -0.8255
 9438SOL    HW228885   6.029   4.172   0.859  1.7682  0.7871 -0.1627
 9439SOL     OW28886   4.102   6.982   4.227  0.4645 -0.2343 -0.1672
 9439SOL    HW128887   4.160   7.015   4.158  1.8956 -2.0381  0.0746
 9439SOL    HW228888   4.162   6.948   4.293 -0.7724 -3.2392 -0.4079
 9440SOL     OW28889   7.389   0.274   4.070 -0.3126  0.4109  0.3454
 9440SOL    HW128890   7.394   0.199   4.011 -1.7270 -0.4377  1.2470
 9440SOL    HW228891   7.343   0.240   4.148  0.5044  1.7761  1.4647
 9441SOL     OW28892   6.905   3.079   1.678  0.1283  0.4792 -0.1802
 9441SOL    HW128893   6.906   3.047   1.769 -1.9937 -1.3522 -0.7050
 9441SOL    HW228894   6.992   3.058   1.644  0.3058 -0.5974  0.8778
 9442SOL     OW28895   5.513   4.615   6.513 -0.0787  0.2319  0.1272
 9442SOL    HW128896   5.608   4.603   6.508 -0.1357 -0.0310 -0.3723
 9442SOL    HW228897   5.478   4.555   6.448 -0.4490  2.2372 -1.6417
 9443SOL     OW28898   6.027   1.192   7.049 -0.5533 -0.0152 -0.4487
 9443SOL    HW128899   5.939   1.230   7.045 -0.2834  0.8022  0.6991
 9443SOL    HW228900   6.061   1.200   6.961 -2.8357 -3.4562 -1.8784
 9444SOL     OW28901   7.241   2.895   5.240 -0.6314  0.3509  0.3371
 9444SOL    HW128902   7.332   2.911   5.267 -0.6373 -0.9929  1.1988
 9444SOL    HW228903   7.249   2.866   5.149 -0.1280 -0.3552  0.5935
 9445SOL     OW28904   0.497   5.145   6.689  0.2549  0.7641 -0.0247
 9445SOL    HW128905   0.447   5.127   6.610  2.4310  1.4158 -1.6405
 9445SOL    HW228906   0.558   5.214   6.664  1.0016  1.0178  2.2462
 9446SOL     OW28907   0.486   1.187   4.899 -0.2139 -0.0994  0.5358
 9446SOL    HW128908   0.465   1.112   4.955 -2.1859  0.1330  0.1716
 9446SOL    HW228909   0.582   1.194   4.904 -0.0590 -2.0389  1.3277
 9447SOL     OW28910   5.993   3.443   1.812 -0.2885 -0.0345 -0.3293
 9447SOL    HW128911   5.995   3.349   1.833  0.3166 -0.3758 -1.7726
 9447SOL    HW228912   5.960   3.446   1.722  1.7802  0.9430 -1.1248
 9448SOL     OW28913   4.533   4.456   4.494  0.8826 -0.3224 -0.0981
 9448SOL    HW128914   4.539   4.516   4.568 -0.8035 -1.7888  1.3399
 9448SOL    HW228915   4.512   4.511   4.419  0.7438  0.9974  0.8844
 9449SOL     OW28916   6.748   1.949   7.073 -0.0741 -0.3099 -0.0100
 9449SOL    HW128917   6.808   2.009   7.118  0.8601 -0.4209 -1.0600
 9449SOL    HW228918   6.688   2.006   7.025 -0.5983 -0.2032  0.7547
 9450SOL     OW28919   5.852   0.936   5.354  0.3498 -0.2176  0.1250
 9450SOL    HW128920   5.932   0.965   5.310 -0.2179  1.4009  0.0737
 9450SOL    HW228921   5.782   0.981   5.306 -0.3576  0.7421  1.9879
 9451SOL     OW28922   6.336   7.082   1.783 -0.4896 -0.7691 -0.4568
 9451SOL    HW128923   6.388   7.075   1.703  2.7427  0.3049  1.3688
 9451SOL    HW228924   6.369   7.012   1.840 -0.3873  0.4972  1.1028
 9452SOL     OW28925   4.748   0.018   6.722 -0.5016  0.1715  0.1202
 9452SOL    HW128926   4.805   0.094   6.727 -0.6359  0.3975 -1.3585
 9452SOL    HW228927   4.683   0.032   6.792 -1.0737  1.8865 -0.6984
 9453SOL     OW28928   6.643   7.114   4.068  0.1856  0.3172 -0.8216
 9453SOL    HW128929   6.665   7.203   4.096  0.6196 -0.2036  0.5787
 9453SOL    HW228930   6.689   7.057   4.131 -3.6704 -0.8896  1.1933
 9454SOL     OW28931   2.127   5.917   1.193 -0.2956  0.0184 -0.1482
 9454SOL    HW128932   2.191   5.894   1.125  0.1786 -1.0983  0.6436
 9454SOL    HW228933   2.051   5.863   1.173 -0.5255  0.4172 -0.3583
 9455SOL     OW28934   6.980   1.200   2.654 -0.9168  0.3578 -0.1541
 9455SOL    HW128935   7.034   1.204   2.575  0.2324 -2.2155  0.3918
 9455SOL    HW228936   6.990   1.286   2.694  1.3630  0.5553 -1.0027
 9456SOL     OW28937   2.518   6.234   0.105 -0.0073 -0.7942  0.4826
 9456SOL    HW128938   2.554   6.189   0.181 -1.0872 -0.7774  1.0267
 9456SOL    HW228939   2.533   6.174   0.031 -0.5614 -1.6275  1.0299
 9457SOL     OW28940   7.227   1.269   6.729  0.0849  0.2020  0.7016
 9457SOL    HW128941   7.170   1.279   6.652  0.9720  0.1072  0.0092
 9457SOL    HW228942   7.209   1.346   6.783 -1.0192 -0.0514  0.7227
 9458SOL     OW28943   7.435   2.382   4.271  0.3880  0.5366 -1.3062
 9458SOL    HW128944   7.445   2.358   4.178  1.2803  1.6017 -1.5122
 9458SOL    HW228945   7.399   2.470   4.269 -0.7232  0.1164 -0.6010
 9459SOL     OW28946   2.890   4.069   6.298 -0.5825  0.1672  0.2352
 9459SOL    HW128947   2.824   4.037   6.359  0.7551  0.2758  1.7779
 9459SOL    HW228948   2.971   4.070   6.348  1.4308 -3.2899 -2.5091
 9460SOL     OW28949   1.043   5.940   2.208  0.1670  0.6487 -0.3584
 9460SOL    HW128950   1.136   5.954   2.186 -0.1403 -0.2259 -2.4917
 9460SOL    HW228951   0.998   6.016   2.171 -0.1188  0.3548 -0.6197
 9461SOL     OW28952   7.000   2.103   3.778 -0.6736  0.1182  0.5239
 9461SOL    HW128953   7.059   2.098   3.853 -0.4958  0.0682  0.3807
 9461SOL    HW228954   7.035   2.039   3.716  1.0201  2.3120 -0.9096
 9462SOL     OW28955   6.968   3.674   0.588  0.3920 -0.1467 -0.3697
 9462SOL    HW128956   7.010   3.626   0.660 -0.4420  0.4713  0.5707
 9462SOL    HW228957   6.967   3.612   0.515  0.0549 -1.2921  0.5725
 9463SOL     OW28958   3.313   5.141   3.614  0.0729 -0.6502  0.2610
 9463SOL    HW128959   3.344   5.136   3.704 -2.2049 -1.3024  1.0799
 9463SOL    HW228960   3.356   5.068   3.569  1.6800  0.0368  0.6422
 9464SOL     OW28961   3.239   0.780   3.716 -0.2530  0.3339  0.6156
 9464SOL    HW128962   3.224   0.840   3.643 -0.7770  0.1020  0.5239
 9464SOL    HW228963   3.152   0.765   3.753 -0.1441 -0.4080  0.5994
 9465SOL     OW28964   5.116   5.678   4.706 -0.5375 -0.0472  0.1778
 9465SOL    HW128965   5.030   5.655   4.671 -0.0167  0.9386 -1.8924
 9465SOL    HW228966   5.103   5.761   4.751 -0.1689  1.8790 -2.9707
 9466SOL     OW28967   4.769   1.413   3.525  0.2882  0.2941 -0.1306
 9466SOL    HW128968   4.762   1.452   3.438 -1.5799 -0.6622 -0.4699
 9466SOL    HW228969   4.839   1.348   3.517 -1.7917 -1.9112 -1.8617
 9467SOL     OW28970   5.466   3.983   6.441 -0.1012  0.4745  0.7002
 9467SOL    HW128971   5.495   3.911   6.384 -5.1810 -1.0509 -0.5015
 9467SOL    HW228972   5.483   4.062   6.390  0.9504 -0.3233 -0.2486
 9468SOL     OW28973   3.502   6.194   2.613 -0.0018 -0.7526  0.6566
 9468SOL    HW128974   3.492   6.102   2.637 -3.4805 -1.0265 -1.2633
 9468SOL    HW228975   3.477   6.242   2.691  0.5580 -1.3977  1.2568
 9469SOL     OW28976   7.050   2.377   1.318  0.1569  0.3402 -0.2358
 9469SOL    HW128977   6.985   2.362   1.250 -0.0829 -0.1025  0.0882
 9469SOL    HW228978   7.134   2.366   1.274  0.0030 -1.1580 -0.2054
 9470SOL     OW28979   2.007   2.550   4.455 -0.0093  0.1661 -0.2119
 9470SOL    HW128980   2.086   2.496   4.462  1.6951  2.4559 -0.5182
 9470SOL    HW228981   2.021   2.603   4.377 -1.3451  1.3803  0.3321
 9471SOL     OW28982   6.790   3.216   0.805 -0.0466 -0.3057  0.5251
 9471SOL    HW128983   6.877   3.246   0.831 -0.6039  0.9651  1.0370
 9471SOL    HW228984   6.778   3.248   0.716  0.4552 -1.5114  0.0101
 9472SOL     OW28985   1.298   1.273   1.650 -1.0051  0.5552  0.6492
 9472SOL    HW128986   1.256   1.188   1.660  0.4101 -0.2330  0.2108
 9472SOL    HW228987   1.336   1.290   1.737  2.1784 -1.2540 -0.2202
 9473SOL     OW28988   3.517   4.038   1.248 -0.6106 -0.1655 -0.2816
 9473SOL    HW128989   3.478   3.968   1.197 -1.4346 -0.8379  1.2085
 9473SOL    HW228990   3.591   3.998   1.293 -1.1650 -0.1456  0.6811
 9474SOL     OW28991   2.783   5.418   5.027 -0.2700  0.1207  0.3401
 9474SOL    HW128992   2.869   5.404   4.986 -1.0864  0.9486 -1.8028
 9474SOL    HW228993   2.741   5.333   5.024  0.3411 -0.2231  1.1258
 9475SOL     OW28994   1.483   1.550   4.728 -0.0469  0.3405  0.5896
 9475SOL    HW128995   1.513   1.620   4.669  0.6371  0.8843  1.5361
 9475SOL    HW228996   1.437   1.596   4.798 -0.8179 -0.2893  0.5023
 9476SOL     OW28997   3.887   6.197   3.592  0.2707 -0.5029 -0.0019
 9476SOL    HW128998   3.841   6.166   3.514  0.2487  0.8162 -0.5414
 9476SOL    HW228999   3.821   6.192   3.661 -0.1241 -0.4072 -0.3633
 9477SOL     OW29000   5.719   1.114   0.626 -0.4969  0.1649  0.1104
 9477SOL    HW129001   5.648   1.109   0.690  1.5240  0.5703  2.5618
 9477SOL    HW229002   5.762   1.029   0.630  1.1458  0.9719  1.2816
 9478SOL     OW29003   1.266   3.443   5.846 -0.0152  0.3391  0.2649
 9478SOL    HW129004   1.318   3.448   5.926  0.4147  0.0585  0.0051
 9478SOL    HW229005   1.311   3.379   5.791  0.1457  1.1006 -0.5282
 9479SOL     OW29006   7.320   1.308   3.583 -0.3130  0.1938 -1.0491
 9479SOL    HW129007   7.311   1.339   3.493 -0.9965  1.1751 -0.6646
 9479SOL    HW229008   7.415   1.301   3.597 -0.1978 -1.6079 -2.3527
 9480SOL     OW29009   6.274   3.787   6.895 -0.2603  0.3587  0.4085
 9480SOL    HW129010   6.259   3.706   6.847 -0.0998  0.6707 -0.1752
 9480SOL    HW229011   6.246   3.767   6.984 -0.0902 -0.3811  0.3073
 9481SOL     OW29012   4.747   7.415   3.789 -0.7240  0.1529  0.0614
 9481SOL    HW129013   4.793   7.349   3.841 -0.8968  0.3653  0.4887
 9481SOL    HW229014   4.779   7.498   3.824  0.1584  0.3076 -1.0544
 9482SOL     OW29015   4.556   4.895   5.709 -0.3606 -0.4163 -0.2256
 9482SOL    HW129016   4.599   4.937   5.635  0.8685  0.4574  0.9473
 9482SOL    HW229017   4.483   4.953   5.730 -0.4075 -0.4007 -0.4281
 9483SOL     OW29018   0.696   5.756   1.042 -0.3409 -0.2385  0.0718
 9483SOL    HW129019   0.714   5.695   1.113  1.0819 -0.0801 -0.1254
 9483SOL    HW229020   0.627   5.713   0.991  0.7531 -1.7922 -0.1762
 9484SOL     OW29021   7.019   0.887   6.053  0.5278 -0.0734  0.4468
 9484SOL    HW129022   6.981   0.857   6.135  1.1895 -1.0793  0.3990
 9484SOL    HW229023   6.961   0.958   6.024 -1.3553 -1.5578  0.3600
 9485SOL     OW29024   0.898   0.021   5.187  0.1550  0.3292  0.1107
 9485SOL    HW129025   0.957  -0.054   5.192 -2.5007 -1.9388 -0.5506
 9485SOL    HW229026   0.921   0.063   5.104  2.1986  0.8205  0.8551
 9486SOL     OW29027   6.729   1.933   3.795 -0.0473 -0.2356  0.1520
 9486SOL    HW129028   6.824   1.944   3.794 -0.0959  0.2384 -0.8861
 9486SOL    HW229029   6.712   1.875   3.870  0.7967  1.8860  2.1148
 9487SOL     OW29030   0.406   2.208   3.008 -0.7249 -0.8359  0.2409
 9487SOL    HW129031   0.331   2.175   3.057 -0.2951 -2.3115 -0.0228
 9487SOL    HW229032   0.374   2.287   2.965 -1.5134 -0.2994  1.7613
 9488SOL     OW29033   7.074   1.996   4.045  0.0188 -0.1414 -0.3791
 9488SOL    HW129034   7.108   1.910   4.020  1.3950  0.3653 -0.3394
 9488SOL    HW229035   7.069   1.994   4.140 -3.2923 -1.3559 -0.4484
 9489SOL     OW29036   2.891   1.894   1.851 -0.5106  0.1596 -0.2912
 9489SOL    HW129037   2.948   1.960   1.811 -0.9422  0.5036 -0.3480
 9489SOL    HW229038   2.871   1.929   1.938 -1.6669  0.6671 -0.7418
 9490SOL     OW29039   6.281   3.809   7.174 -0.5423  0.3291 -0.0123
 9490SOL    HW129040   6.375   3.821   7.156 -0.5171 -0.0088 -0.1055
 9490SOL    HW229041   6.258   3.884   7.229 -0.0244 -0.0466  0.7255
 9491SOL     OW29042   5.571   3.383   0.189  1.3071 -0.2694 -0.5712
 9491SOL    HW129043   5.537   3.472   0.181  0.3003 -0.4231  1.3779
 9491SOL    HW229044   5.646   3.391   0.248  0.5262 -0.8345  0.5355
 9492SOL     OW29045   5.173   0.576   2.192 -0.3428 -0.0084 -0.5689
 9492SOL    HW129046   5.142   0.512   2.128 -2.2811 -0.2966  0.5811
 9492SOL    HW229047   5.105   0.643   2.194  0.4142  0.7609  0.1211
 9493SOL     OW29048   1.067   3.448   1.999 -0.8475  0.6901 -0.1477
 9493SOL    HW129049   1.131   3.451   1.928 -1.3540  0.6390 -0.6113
 9493SOL    HW229050   1.104   3.502   2.068  0.9033 -1.3098  0.5926
 9494SOL     OW29051   1.194   6.063   3.681 -0.3550  0.6323 -0.3594
 9494SOL    HW129052   1.184   5.973   3.649 -0.8844  1.4652 -2.7606
 9494SOL    HW229053   1.116   6.078   3.735 -0.1051 -0.4279  0.3186
 9495SOL     OW29054   4.425   7.204   1.926 -0.0717  0.3641  0.1939
 9495SOL    HW129055   4.393   7.228   1.839  1.4855 -1.4116 -0.9315
 9495SOL    HW229056   4.511   7.164   1.910  1.1313  1.6725  2.7283
 9496SOL     OW29057   0.362   3.051   0.798 -0.5342 -0.7219  0.0625
 9496SOL    HW129058   0.330   3.041   0.887 -1.7997  1.9291  0.0132
 9496SOL    HW229059   0.324   2.978   0.750 -1.3705 -1.1391  1.3178
 9497SOL     OW29060   5.167   1.188   2.206  0.5395  0.2046 -0.3182
 9497SOL    HW129061   5.147   1.100   2.173 -0.1368 -0.0076  0.6414
 9497SOL    HW229062   5.190   1.238   2.127 -4.6410  0.7649 -1.8164
 9498SOL     OW29063   0.356   0.123   4.685 -0.5292 -0.1763  0.4067
 9498SOL    HW129064   0.368   0.101   4.777 -0.0360 -0.7707  0.2098
 9498SOL    HW229065   0.376   0.216   4.678  0.9678 -0.4689  0.6272
 9499SOL     OW29066   2.905   7.212   2.365 -0.2658 -0.1167  0.1749
 9499SOL    HW129067   2.889   7.225   2.271 -0.0732  1.1754  0.3075
 9499SOL    HW229068   2.957   7.132   2.369 -1.7178 -1.1450 -0.6856
 9500SOL     OW29069   0.680   6.454   3.209 -0.0573 -0.6769 -0.6556
 9500SOL    HW129070   0.585   6.465   3.198 -0.5137 -0.9811  2.0702
 9500SOL    HW229071   0.702   6.513   3.281  1.8543 -0.6133 -1.2433
 9501SOL     OW29072   5.962   0.931   0.928  0.1039  0.0960 -0.4791
 9501SOL    HW129073   5.911   1.010   0.908  0.3976  0.1796 -0.9052
 9501SOL    HW229074   5.955   0.922   1.023  2.1130  2.0685 -0.0590
 9502SOL     OW29075   2.525   0.244   6.355  0.2869 -0.1231  0.3595
 9502SOL    HW129076   2.539   0.232   6.449  1.1975 -1.0725  0.1153
 9502SOL    HW229077   2.576   0.321   6.333  1.3988 -0.8490  0.3537
 9503SOL     OW29078   5.790   1.750   2.497  0.1411  0.2939  0.3105
 9503SOL    HW129079   5.746   1.735   2.413 -0.2239 -0.6892  0.6552
 9503SOL    HW229080   5.877   1.713   2.485 -0.8452 -2.6936  1.2467
 9504SOL     OW29081   2.012   0.752   5.959 -0.2337  0.3740 -0.1648
 9504SOL    HW129082   2.053   0.690   6.020  2.4837  1.6721 -0.4971
 9504SOL    HW229083   2.015   0.836   6.006 -1.1032  0.7906 -0.8411
 9505SOL     OW29084   5.961   2.831   3.191 -0.1092 -0.0492 -0.6258
 9505SOL    HW129085   6.004   2.909   3.158  1.7559 -0.7899 -0.0690
 9505SOL    HW229086   5.967   2.838   3.287  0.1191 -0.8738 -0.5704
 9506SOL     OW29087   3.758   2.611   0.239 -0.7090  0.0372  0.0188
 9506SOL    HW129088   3.806   2.555   0.300 -1.3985  0.9455  1.4636
 9506SOL    HW229089   3.772   2.700   0.272 -1.3719  0.5346 -0.9668
 9507SOL     OW29090   7.006   6.868   2.364 -0.4411  0.1491  0.5219
 9507SOL    HW129091   7.052   6.844   2.284 -0.9967  0.7337  0.0226
 9507SOL    HW229092   7.038   6.805   2.429 -1.4399 -1.6058 -0.6057
 9508SOL     OW29093   7.172   0.762   5.076 -0.3672 -0.6132  0.3471
 9508SOL    HW129094   7.218   0.840   5.109 -1.8501  0.1021  0.8266
 9508SOL    HW229095   7.226   0.732   5.003  1.8717 -0.9541  2.0053
 9509SOL     OW29096   3.635   2.511   2.217 -0.7550 -0.3001  0.6339
 9509SOL    HW129097   3.581   2.445   2.173 -0.1908 -0.1112 -0.3811
 9509SOL    HW229098   3.604   2.512   2.308 -1.6384 -1.0365  0.3484
 9510SOL     OW29099   5.785   0.150   5.366 -0.0400 -0.6586  0.4584
 9510SOL    HW129100   5.721   0.187   5.304 -0.4723 -0.6747  0.8883
 9510SOL    HW229101   5.743   0.070   5.398  0.2153 -0.6860  0.7229
 9511SOL     OW29102   3.359   7.107   6.480 -0.1429 -0.7280 -0.8125
 9511SOL    HW129103   3.407   7.155   6.547 -2.9787  0.9020  0.2334
 9511SOL    HW229104   3.342   7.021   6.519 -1.7224  0.1866  0.6539
 9512SOL     OW29105   6.263   2.540   5.441 -0.3002 -0.2231 -0.2343
 9512SOL    HW129106   6.203   2.479   5.399  1.1715 -1.7098 -0.2915
 9512SOL    HW229107   6.345   2.531   5.393  0.6808 -0.0722  1.3162
 9513SOL     OW29108   2.571   1.714   2.612 -0.6743  0.1143 -0.3871
 9513SOL    HW129109   2.575   1.620   2.626 -1.5222 -0.1695 -1.8913
 9513SOL    HW229110   2.514   1.746   2.682  1.1054 -0.1816  1.2851
 9514SOL     OW29111   0.292   4.249   3.833 -0.0880  0.1855 -0.4099
 9514SOL    HW129112   0.380   4.214   3.842 -0.2343  0.1210  1.0318
 9514SOL    HW229113   0.257   4.249   3.923 -0.4330  3.1493 -0.4606
 9515SOL     OW29114   0.130   1.989   3.812 -0.0555  0.4209 -0.4371
 9515SOL    HW129115   0.174   1.975   3.728  1.4679 -0.0567  0.4116
 9515SOL    HW229116   0.116   2.084   3.816  1.1971  0.6289 -0.5929
 9516SOL     OW29117   3.185   5.370   3.911 -0.0844  0.0098 -0.0834
 9516SOL    HW129118   3.125   5.322   3.854  1.1645  0.1830 -1.6105
 9516SOL    HW229119   3.174   5.329   3.997 -0.6704 -1.5247 -0.8559
 9517SOL     OW29120   2.491   4.018   0.371 -0.6300  0.4307 -0.0444
 9517SOL    HW129121   2.526   4.009   0.283 -0.3089 -1.5890  0.2371
 9517SOL    HW229122   2.545   4.086   0.412  0.1464  0.3692 -0.9476
 9518SOL     OW29123   3.173   0.406   0.669  0.7924 -0.6931  0.4407
 9518SOL    HW129124   3.151   0.317   0.699  0.6736  0.3553  3.8082
 9518SOL    HW229125   3.238   0.438   0.731 -1.1264  2.5272  1.0242
 9519SOL     OW29126   4.975   2.144   6.237  0.0278 -0.7301 -0.3074
 9519SOL    HW129127   4.892   2.108   6.205  1.1371 -1.7993 -2.1395
 9519SOL    HW229128   5.013   2.073   6.289 -0.4032 -0.0484  0.9964
 9520SOL     OW29129   6.212   1.139   0.696  0.2405  0.6927  0.4846
 9520SOL    HW129130   6.191   1.069   0.634  0.3522  2.0552 -1.1964
 9520SOL    HW229131   6.128   1.181   0.714  0.4561  1.5991 -0.4650
 9521SOL     OW29132   4.647   3.994   5.047  0.4408  0.2303  0.4987
 9521SOL    HW129133   4.613   3.912   5.011  0.5726 -0.0239  0.9474
 9521SOL    HW229134   4.696   3.967   5.125 -3.3055  1.0547  3.4656
 9522SOL     OW29135   5.446   5.496   3.376 -0.0131 -0.3347 -0.1689
 9522SOL    HW129136   5.424   5.456   3.460  0.5635 -0.2968  0.0035
 9522SOL    HW229137   5.508   5.565   3.398  0.7876 -0.8687 -0.7161
 9523SOL     OW29138   6.230   4.696   0.780  0.1433  0.0757 -0.4154
 9523SOL    HW129139   6.268   4.777   0.814  2.0227  0.0964 -2.3775
 9523SOL    HW229140   6.246   4.699   0.686  2.3044 -3.5237 -0.3674
 9524SOL     OW29141   4.034   5.494   5.172 -0.3014  0.3891  0.1331
 9524SOL    HW129142   4.076   5.488   5.087 -1.0842 -1.6658 -0.1585
 9524SOL    HW229143   3.955   5.547   5.156 -1.0536 -0.9402 -0.7101
 9525SOL     OW29144   2.752   0.452   4.138 -0.2457 -0.3091  0.5022
 9525SOL    HW129145   2.688   0.468   4.207  0.7213 -0.8429  1.5525
 9525SOL    HW229146   2.702   0.411   4.067 -1.3371  0.6874  0.6780
 9526SOL     OW29147   4.088   0.411   5.167 -0.3874  0.3576 -0.4010
 9526SOL    HW129148   4.023   0.457   5.221 -0.9258 -0.9799  0.1302
 9526SOL    HW229149   4.049   0.326   5.150  1.1396 -0.3992 -0.2696
 9527SOL     OW29150   1.122   5.440   4.354  0.1740  0.5768 -0.5488
 9527SOL    HW129151   1.153   5.516   4.402  0.7794 -1.2229  2.0858
 9527SOL    HW229152   1.153   5.454   4.264  2.6164  2.1275  0.4415
 9528SOL     OW29153   0.336   6.540   6.073  0.2712 -0.3402 -0.1845
 9528SOL    HW129154   0.350   6.571   5.984  0.7537 -1.2685 -0.4424
 9528SOL    HW229155   0.422   6.548   6.115  0.4972 -1.6099 -0.3600
 9529SOL     OW29156   0.251   1.021   7.237  0.0072  0.7062 -0.4160
 9529SOL    HW129157   0.311   1.092   7.259  2.6202 -1.9513  1.8765
 9529SOL    HW229158   0.281   0.990   7.152 -0.0505  1.2004 -0.6241
 9530SOL     OW29159   4.580   4.941   0.343 -0.0667  0.0234 -0.6589
 9530SOL    HW129160   4.675   4.949   0.345 -0.1394  1.0054 -0.2954
 9530SOL    HW229161   4.562   4.879   0.272  0.9172 -1.8287  0.6342
 9531SOL     OW29162   7.429   4.950   2.224  0.2025 -0.1059 -0.4236
 9531SOL    HW129163   7.407   5.017   2.160 -1.1335  0.5749  0.7098
 9531SOL    HW229164   7.369   4.878   2.205 -1.7398  0.9444  1.3627
 9532SOL     OW29165   3.014   2.638   6.080  0.3611 -0.2811  0.9141
 9532SOL    HW129166   2.986   2.689   6.157 -0.5456 -0.8439  0.9711
 9532SOL    HW229167   2.977   2.685   6.005  4.5585  2.6429  0.3293
 9533SOL     OW29168   3.723   5.495   4.251 -0.0917  0.5441 -0.4216
 9533SOL    HW129169   3.707   5.440   4.174 -2.3745  1.4417 -0.6817
 9533SOL    HW229170   3.653   5.560   4.248  0.7004  1.5583  1.5786
 9534SOL     OW29171   3.794   2.993   2.149  0.5235  0.0692  0.3943
 9534SOL    HW129172   3.731   2.939   2.197 -1.0053  0.1995 -1.3765
 9534SOL    HW229173   3.876   2.944   2.154  0.3231 -0.1481  2.6759
 9535SOL     OW29174   6.137   7.046   4.034 -0.3930  0.0957 -0.0042
 9535SOL    HW129175   6.227   7.026   4.009 -0.6423 -0.6953 -0.2843
 9535SOL    HW229176   6.119   6.988   4.108 -0.2506  1.1760  0.9176
 9536SOL     OW29177   0.387   6.572   2.643  0.3982 -0.4543  0.6284
 9536SOL    HW129178   0.444   6.626   2.698  1.3153 -0.5586 -0.1920
 9536SOL    HW229179   0.392   6.485   2.682 -0.8728 -0.0416  1.7942
 9537SOL     OW29180   2.442   4.574   4.773 -0.3213 -0.1134 -0.3835
 9537SOL    HW129181   2.465   4.649   4.718 -0.0703  0.7735  0.8938
 9537SOL    HW229182   2.443   4.499   4.713  0.2078  0.7823 -1.5239
 9538SOL     OW29183   4.467   3.472   5.790 -0.4920  0.3361  0.3904
 9538SOL    HW129184   4.467   3.430   5.876  0.0343  0.2053  0.3285
 9538SOL    HW229185   4.517   3.553   5.804  2.4313 -1.1662 -0.4879
 9539SOL     OW29186   5.035   3.479   1.976  0.0752  0.0145 -0.3754
 9539SOL    HW129187   4.950   3.481   2.019  0.8910  1.0575  1.2933
 9539SOL    HW229188   5.081   3.406   2.017  0.4253  0.2408 -0.3605
 9540SOL     OW29189   2.925   2.176   2.371 -0.0603  0.5888 -0.3396
 9540SOL    HW129190   2.969   2.092   2.371  0.1091  0.6710  0.2388
 9540SOL    HW229191   2.879   2.180   2.287  1.2623  0.6302 -1.0875
 9541SOL     OW29192   5.053   1.156   4.577 -0.1652 -0.2465 -0.0043
 9541SOL    HW129193   5.083   1.090   4.640 -1.6755 -0.8473  0.1286
 9541SOL    HW229194   5.007   1.105   4.510  0.3557  0.5036 -0.9447
 9542SOL     OW29195   3.872   1.945   5.782  0.4931  0.5770 -0.1713
 9542SOL    HW129196   3.884   1.877   5.717 -0.4982 -0.5431  0.7673
 9542SOL    HW229197   3.777   1.957   5.787  0.6190  1.5767  0.1470
 9543SOL     OW29198   5.852   1.884   0.701  0.1961 -0.1920 -0.2728
 9543SOL    HW129199   5.813   1.877   0.614  0.1000 -1.6011 -0.1406
 9543SOL    HW229200   5.927   1.942   0.689 -0.5448  0.6405 -1.0225
 9544SOL     OW29201   7.318   0.281   5.858  0.5500  0.0694  0.0189
 9544SOL    HW129202   7.264   0.347   5.902  1.9920  1.3766 -0.0956
 9544SOL    HW229203   7.406   0.317   5.860  1.1443 -1.2167 -1.3375
 9545SOL     OW29204   1.344   6.878   2.630  0.1572  0.0868 -0.2018
 9545SOL    HW129205   1.379   6.967   2.628 -0.0369  0.2137  1.2908
 9545SOL    HW229206   1.255   6.888   2.664  0.3073 -0.7326  0.4528
 9546SOL     OW29207   0.297   1.050   1.263 -0.1164 -0.0568 -0.0241
 9546SOL    HW129208   0.328   1.140   1.263  1.7166 -0.6291  0.3038
 9546SOL    HW229209   0.283   1.029   1.355 -1.2433  0.1029 -0.1523
 9547SOL     OW29210   2.069   3.239   3.436  0.9425 -0.7727  0.0615
 9547SOL    HW129211   2.130   3.227   3.363  1.5602  0.8527  0.2706
 9547SOL    HW229212   2.123   3.226   3.514  0.7376 -0.5532  0.2396
 9548SOL     OW29213   5.249   6.887   4.789 -0.0351  0.3297  0.1156
 9548SOL    HW129214   5.278   6.814   4.843 -1.0925  0.6235  1.1395
 9548SOL    HW229215   5.324   6.909   4.734  0.8297 -0.4593  0.9626
 9549SOL     OW29216   4.485   3.883   0.836  0.6851 -0.1176  0.5064
 9549SOL    HW129217   4.495   3.823   0.910  0.2550  0.3201  0.9299
 9549SOL    HW229218   4.573   3.919   0.822  1.2603 -1.8611 -0.6561
 9550SOL     OW29219   4.043   3.512   7.175  0.1778 -0.0153 -0.3753
 9550SOL    HW129220   4.082   3.574   7.113 -0.2853 -1.2145 -1.9416
 9550SOL    HW229221   4.046   3.428   7.129 -1.1074 -0.7562  0.8377
 9551SOL     OW29222   3.704   4.256   0.697  1.1765 -0.6587  0.0500
 9551SOL    HW129223   3.692   4.238   0.791  1.4388  0.5369  0.3295
 9551SOL    HW229224   3.731   4.348   0.694  0.8730 -0.5992 -1.2278
 9552SOL     OW29225   6.597   3.147   2.010  0.6740  0.2401  0.2727
 9552SOL    HW129226   6.557   3.217   2.062 -1.2047 -0.0940 -0.6283
 9552SOL    HW229227   6.630   3.191   1.932 -0.3807  0.1734 -0.2279
 9553SOL     OW29228   1.065   0.939   2.954 -0.2935 -1.1205 -0.0086
 9553SOL    HW129229   1.159   0.921   2.947 -0.6080 -3.3491  0.5730
 9553SOL    HW229230   1.025   0.877   2.893 -1.4183 -0.6828  0.2737
 9554SOL     OW29231   6.225   5.262   1.984 -0.3643 -0.3168  0.4647
 9554SOL    HW129232   6.238   5.285   2.076 -0.1764 -0.6272  0.5196
 9554SOL    HW229233   6.314   5.261   1.947 -0.4801  0.3126  0.1523
 9555SOL     OW29234   0.345   3.720   7.021  0.2404 -0.3035 -0.0848
 9555SOL    HW129235   0.314   3.682   7.103  0.4369  1.4022  0.8384
 9555SOL    HW229236   0.265   3.742   6.973  0.1134 -0.7310 -0.0692
 9556SOL     OW29237   4.022   2.413   2.806 -0.4056 -0.3593 -0.3607
 9556SOL    HW129238   3.972   2.436   2.728  1.0973  1.0541 -0.9835
 9556SOL    HW229239   4.039   2.319   2.797 -2.4873 -0.7875 -0.3401
 9557SOL     OW29240   2.524   2.891   4.705 -0.3296  0.0646 -0.2958
 9557SOL    HW129241   2.564   2.809   4.732  0.2392  0.2800 -0.4857
 9557SOL    HW229242   2.597   2.952   4.695 -0.8094  0.8492  0.7093
 9558SOL     OW29243   2.289   0.304   3.163  0.4056  0.7318  0.1473
 9558SOL    HW129244   2.286   0.395   3.193  1.9853  0.8897 -0.0989
 9558SOL    HW229245   2.219   0.260   3.211 -0.2489  2.0218  0.4211
 9559SOL     OW29246   2.697   1.854   7.227 -0.0711 -0.5264 -0.1485
 9559SOL    HW129247   2.663   1.928   7.277 -2.1670 -0.1615 -1.9501
 9559SOL    HW229248   2.641   1.780   7.253 -2.4029  0.0364 -3.0070
 9560SOL     OW29249   6.126   3.811   6.502 -0.4214  0.0420 -0.5006
 9560SOL    HW129250   6.193   3.862   6.456 -0.9244 -0.1682 -1.4913
 9560SOL    HW229251   6.065   3.877   6.536  0.3906  0.2469  0.5976
 9561SOL     OW29252   2.912   4.066   2.030 -0.1812  0.0799  0.3490
 9561SOL    HW129253   2.872   4.021   1.956  0.3567 -1.4381  0.9486
 9561SOL    HW229254   2.998   4.026   2.039  0.1731  0.9738  1.1638
 9562SOL     OW29255   7.315   6.697   6.876  0.5495  0.2470 -0.2226
 9562SOL    HW129256   7.345   6.787   6.885  0.2497  0.1668  2.0942
 9562SOL    HW229257   7.279   6.674   6.962 -1.6939 -1.2717 -1.4503
 9563SOL     OW29258   4.508   3.767   3.327 -0.3086 -0.4799  0.2056
 9563SOL    HW129259   4.422   3.794   3.295 -0.8487 -2.0256  0.2941
 9563SOL    HW229260   4.531   3.692   3.274  1.1813  0.1354 -0.0648
 9564SOL     OW29261   2.433   6.462   3.491 -0.1594  0.5457  0.3150
 9564SOL    HW129262   2.495   6.526   3.525  0.8128 -0.9609  1.5024
 9564SOL    HW229263   2.487   6.394   3.451 -1.0799 -0.4172  0.6490
 9565SOL     OW29264   4.480   5.276   6.668 -0.0590  0.4859 -0.2804
 9565SOL    HW129265   4.464   5.329   6.590 -2.2152 -0.0393 -0.2517
 9565SOL    HW229266   4.575   5.275   6.677  0.1945  1.4442 -2.2762
 9566SOL     OW29267   2.527   2.549   0.005  0.1944  0.0163  0.2584
 9566SOL    HW129268   2.443   2.506   0.013  0.2860 -0.0623  0.8622
 9566SOL    HW229269   2.559   2.557   0.095  1.2452 -0.7777 -0.0221
 9567SOL     OW29270   4.376   2.965   3.685  0.0295  0.0325  0.0286
 9567SOL    HW129271   4.376   2.989   3.592 -1.3960  1.3507  0.3279
 9567SOL    HW229272   4.461   2.922   3.698  1.2321  1.7587 -1.4012
 9568SOL     OW29273   2.252   3.315   5.582  0.1399  0.0909 -0.0546
 9568SOL    HW129274   2.259   3.231   5.537 -2.6857 -0.8165  0.9978
 9568SOL    HW229275   2.236   3.379   5.513 -2.0594 -0.9630 -0.6001
 9569SOL     OW29276   5.654   7.394   5.466 -0.8248 -0.2189  0.0685
 9569SOL    HW129277   5.583   7.331   5.453 -0.1980 -1.3592  1.7667
 9569SOL    HW229278   5.709   7.354   5.534  0.6945  1.2635 -0.2175
 9570SOL     OW29279   3.706   4.493   3.926  0.2785  0.4045 -0.5003
 9570SOL    HW129280   3.641   4.515   3.859  0.2818 -1.1675 -1.0790
 9570SOL    HW229281   3.665   4.516   4.009 -0.4398  0.7441 -0.9436
 9571SOL     OW29282   2.358   5.944   3.722  0.1416  0.2604 -0.0615
 9571SOL    HW129283   2.264   5.934   3.707  0.1809 -1.1484  0.5781
 9571SOL    HW229284   2.388   5.996   3.647 -1.0398  0.2117 -0.5874
 9572SOL     OW29285   4.163   4.431   2.232 -0.3944  0.3686 -0.1714
 9572SOL    HW129286   4.069   4.418   2.233 -0.1532 -1.7866  1.2827
 9572SOL    HW229287   4.176   4.515   2.277 -1.6149  0.9037 -0.7845
 9573SOL     OW29288   2.390   1.705   2.001 -0.5338  0.1931 -0.2543
 9573SOL    HW129289   2.469   1.656   1.979 -0.3477 -0.0380  0.8496
 9573SOL    HW229290   2.333   1.641   2.045 -0.8803  0.6122 -0.0779
 9574SOL     OW29291   1.258   4.180   4.490  0.6966 -0.3606  0.3932
 9574SOL    HW129292   1.250   4.095   4.447  0.4753 -0.0181 -0.2510
 9574SOL    HW229293   1.244   4.161   4.583  1.7538 -1.1933  0.3998
 9575SOL     OW29294   0.052   6.962   2.031 -0.4171  0.4546  0.0931
 9575SOL    HW129295   0.142   6.952   2.062  0.5834  2.5568 -1.8234
 9575SOL    HW229296   0.044   7.055   2.009 -2.6195  0.0586 -1.1100
 9576SOL     OW29297   6.472   5.297   2.948  0.7447 -0.0192  0.0216
 9576SOL    HW129298   6.398   5.282   2.890  1.5554  0.6516 -1.2146
 9576SOL    HW229299   6.543   5.327   2.891  1.9002 -0.3901  1.2058
 9577SOL     OW29300   3.626   0.359   4.410  0.5768  0.2311  0.0911
 9577SOL    HW129301   3.592   0.410   4.336 -2.1581 -0.5454  0.6902
 9577SOL    HW229302   3.684   0.295   4.369  0.0559  0.5837 -1.2743
 9578SOL     OW29303   2.160   5.154   4.000 -0.4481  0.3636  0.6122
 9578SOL    HW129304   2.211   5.117   4.073 -0.5333  1.7426  1.3960
 9578SOL    HW229305   2.216   5.140   3.923 -1.6471 -3.9939  0.2442
 9579SOL     OW29306   0.851   5.441   6.373 -0.3896  0.1585 -0.5398
 9579SOL    HW129307   0.757   5.449   6.389 -0.1959 -0.5426  1.0751
 9579SOL    HW229308   0.884   5.531   6.379 -0.7331  0.2238  0.4643
 9580SOL     OW29309   7.422   6.491   1.548  0.2615  0.6468 -1.0323
 9580SOL    HW129310   7.423   6.567   1.606  1.1275 -0.3326  0.2944
 9580SOL    HW229311   7.494   6.436   1.579 -0.5584 -0.8847 -1.7185
 9581SOL     OW29312   4.779   4.008   0.771 -0.2141  0.3883  0.6048
 9581SOL    HW129313   4.864   4.049   0.790  0.6921 -0.6331 -1.0312
 9581SOL    HW229314   4.733   4.072   0.718 -0.0595  0.5304  0.6396
 9582SOL     OW29315   0.748   5.147   1.109  0.1871  0.5720  0.1611
 9582SOL    HW129316   0.785   5.120   1.025 -0.5608  0.2357 -0.0657
 9582SOL    HW229317   0.812   5.118   1.174  1.9140  2.8158 -0.3976
 9583SOL     OW29318   7.028   1.813   2.621  0.2910  0.2428 -0.6339
 9583SOL    HW129319   6.972   1.743   2.588 -0.2304  0.3039  0.0661
 9583SOL    HW229320   6.997   1.827   2.711 -1.5447  3.2480 -1.5664
 9584SOL     OW29321   3.220   0.340   1.255 -0.1775  0.3855  0.6352
 9584SOL    HW129322   3.159   0.293   1.312 -1.5711  1.3251 -0.0418
 9584SOL    HW229323   3.192   0.318   1.166  0.4119  0.9107  0.3131
 9585SOL     OW29324   3.544   4.901   5.691  0.1277  0.3850  0.0512
 9585SOL    HW129325   3.635   4.884   5.714 -0.1672  0.8101  1.6540
 9585SOL    HW229326   3.493   4.862   5.763 -1.0388 -1.0086 -1.4678
 9586SOL     OW29327   1.456   3.668   2.749 -0.1476  0.0126  0.4549
 9586SOL    HW129328   1.456   3.586   2.699  1.5411  0.5874 -0.5767
 9586SOL    HW229329   1.388   3.721   2.708 -0.0057 -0.1994 -0.0706
 9587SOL     OW29330   1.405   0.992   5.003  0.0915  0.0207 -0.0761
 9587SOL    HW129331   1.455   1.063   5.043 -0.5724  0.3592  0.1667
 9587SOL    HW229332   1.338   0.970   5.067  0.4721 -1.0381 -0.0248
 9588SOL     OW29333   0.714   7.211   3.902 -0.9191 -0.1258  0.1210
 9588SOL    HW129334   0.695   7.222   3.995 -1.4560  1.0136 -0.0958
 9588SOL    HW229335   0.669   7.131   3.877 -0.3945 -0.6881  0.9282
 9589SOL     OW29336   1.078   5.834   6.149 -0.2017  0.1881  0.2897
 9589SOL    HW129337   1.111   5.899   6.210 -1.3163  0.6761  0.4046
 9589SOL    HW229338   1.156   5.797   6.108  0.4853  0.9904  0.8420
 9590SOL     OW29339   4.387   5.450   4.007  0.3731 -0.2154 -0.4901
 9590SOL    HW129340   4.366   5.510   4.079 -0.6702 -0.9925 -0.1393
 9590SOL    HW229341   4.414   5.508   3.936 -0.2737  0.6632 -0.0428
 9591SOL     OW29342   4.402   5.940   5.268  0.1825 -0.4653 -0.0733
 9591SOL    HW129343   4.340   5.907   5.333 -0.4583 -1.7747 -1.2690
 9591SOL    HW229344   4.433   6.023   5.303 -0.9535 -0.6169  1.3728
 9592SOL     OW29345   0.781   2.998   3.836  0.3523  0.3346  0.4779
 9592SOL    HW129346   0.794   3.082   3.792  2.0129 -0.7278 -1.1989
 9592SOL    HW229347   0.732   3.020   3.916 -0.4424  2.6891 -0.5737
 9593SOL     OW29348   3.080   7.101   2.119  0.1312 -0.2238 -0.1738
 9593SOL    HW129349   3.145   7.100   2.048 -0.2603  0.7664 -0.5542
 9593SOL    HW229350   3.046   7.011   2.121  0.0260 -0.2221 -1.3563
 9594SOL     OW29351   6.287   3.159   2.146 -0.4312  0.2212 -0.1148
 9594SOL    HW129352   6.257   3.105   2.072  0.7674  0.4891 -0.8274
 9594SOL    HW229353   6.314   3.241   2.106 -0.0826  0.4959  0.6771
 9595SOL     OW29354   4.960   0.785   6.097 -0.0641 -0.6642  0.2874
 9595SOL    HW129355   5.021   0.844   6.143  0.2553 -0.2041 -0.7065
 9595SOL    HW229356   4.904   0.750   6.167  0.3821  0.0522  1.0268
 9596SOL     OW29357   1.818   2.024   2.951 -0.6971  0.2135  0.0315
 9596SOL    HW129358   1.823   2.054   2.860  0.4781 -0.8238 -0.2758
 9596SOL    HW229359   1.755   1.952   2.949 -0.1158 -0.2990 -0.1194
 9597SOL     OW29360   2.711   6.021   1.301 -0.7775 -0.1046  0.1202
 9597SOL    HW129361   2.643   6.022   1.368  0.2788  2.1256  1.2793
 9597SOL    HW229362   2.736   5.929   1.292 -2.4350 -0.6992  1.2059
 9598SOL     OW29363   6.070   0.484   0.006  0.3489  0.2638 -0.7242
 9598SOL    HW129364   6.158   0.481  -0.031 -0.0294  1.0748 -1.7389
 9598SOL    HW229365   6.042   0.574  -0.006 -0.1473  0.3411  0.7647
 9599SOL     OW29366   4.011   0.470   0.397 -0.2513 -0.1931 -0.1052
 9599SOL    HW129367   4.033   0.505   0.483  0.2080 -0.2262 -0.2070
 9599SOL    HW229368   3.925   0.429   0.409 -1.1903  1.6588 -0.1614
 9600SOL     OW29369   2.782   3.079   3.149 -0.0018  0.6381 -0.3221
 9600SOL    HW129370   2.835   3.004   3.174 -0.3823  0.6468  0.5285
 9600SOL    HW229371   2.711   3.043   3.096 -0.0875  0.4128 -0.0551
 9601SOL     OW29372   4.856   5.388   2.718  0.2927  0.0459 -0.0975
 9601SOL    HW129373   4.769   5.424   2.736 -0.3176 -1.2930 -0.3067
 9601SOL    HW229374   4.902   5.459   2.674 -1.1345  0.3396 -1.1841
 9602SOL     OW29375   7.317   6.994   7.186 -0.3036 -0.4808  0.5499
 9602SOL    HW129376   7.258   7.010   7.112 -1.0216  1.3840  1.4485
 9602SOL    HW229377   7.404   7.011   7.151 -0.6579  0.6576  0.1480
 9603SOL     OW29378   6.096   3.216   5.548  0.5931  0.0099  0.0588
 9603SOL    HW129379   6.008   3.219   5.511  0.7942 -0.3496 -0.4590
 9603SOL    HW229380   6.147   3.166   5.485  0.8106 -1.1201  1.0847
 9604SOL     OW29381   6.402   4.987   6.847 -0.4449 -0.3531  0.1608
 9604SOL    HW129382   6.371   5.070   6.810 -2.0505 -1.1257 -0.3262
 9604SOL    HW229383   6.497   4.995   6.847 -0.4091  0.3349 -2.6772
 9605SOL     OW29384   6.466   1.920   0.369  0.0649 -0.0643  0.2746
 9605SOL    HW129385   6.554   1.885   0.355 -0.3641 -1.2615  0.4048
 9605SOL    HW229386   6.411   1.842   0.381 -0.9042  0.6811  0.8458
 9606SOL     OW29387   4.110   2.129   4.262 -0.1274 -0.2247 -0.4070
 9606SOL    HW129388   4.122   2.178   4.181 -0.3297  0.0005 -0.3001
 9606SOL    HW229389   4.195   2.088   4.278  0.0264  0.0473 -0.5254
 9607SOL     OW29390   7.175   6.439   5.503 -0.3323 -0.2493  0.0425
 9607SOL    HW129391   7.205   6.425   5.593  0.1966 -1.5202 -0.3130
 9607SOL    HW229392   7.172   6.534   5.493  0.6001 -0.0983  1.0790
 9608SOL     OW29393   4.307   1.276   0.347 -0.1188  0.1298 -0.0106
 9608SOL    HW129394   4.309   1.181   0.351 -0.3995  0.1523  0.8358
 9608SOL    HW229395   4.396   1.301   0.320 -0.0192 -0.3573 -0.1417
 9609SOL     OW29396   0.033   1.347   4.747  0.1028 -0.0741  0.2986
 9609SOL    HW129397  -0.045   1.302   4.778  0.5350 -0.3551  1.0116
 9609SOL    HW229398   0.095   1.277   4.727  0.1751  0.1474 -0.2685
 9610SOL     OW29399   0.923   0.729   6.124 -0.2007  0.4002 -0.3996
 9610SOL    HW129400   0.857   0.743   6.056 -0.6655 -3.7010 -1.0528
 9610SOL    HW229401   0.988   0.671   6.084  1.0240  0.0762  1.8326
 9611SOL     OW29402   3.871   2.604   3.431 -0.3151 -0.6128 -0.1155
 9611SOL    HW129403   3.880   2.534   3.494  1.3933  0.1174  0.5122
 9611SOL    HW229404   3.830   2.676   3.479  1.8654  0.2906  0.5416
 9612SOL     OW29405   0.720   7.366   4.497 -0.0758  0.2966  0.0410
 9612SOL    HW129406   0.756   7.283   4.529 -2.6783 -0.4136  1.3996
 9612SOL    HW229407   0.691   7.412   4.575 -1.7210  0.9741 -0.9187
 9613SOL     OW29408   3.550   4.602   0.029 -0.6973  0.5432  0.0584
 9613SOL    HW129409   3.625   4.607   0.088  0.3349  0.1344 -1.1510
 9613SOL    HW229410   3.559   4.679  -0.028 -0.2546 -0.3391 -1.1163
 9614SOL     OW29411   3.472   5.336   5.150 -0.6305 -0.0784 -0.2265
 9614SOL    HW129412   3.553   5.286   5.148 -0.0185  0.9039 -2.1131
 9614SOL    HW229413   3.412   5.282   5.202  0.3145 -2.2779 -1.2775
 9615SOL     OW29414   5.721   4.416   0.874  0.4066  0.0472  0.3167
 9615SOL    HW129415   5.801   4.373   0.844  1.2699  1.8809 -0.2108
 9615SOL    HW229416   5.752   4.496   0.918 -1.1158  0.7046  0.2812
 9616SOL     OW29417   0.462   0.698   1.868  0.6099  0.3955 -0.1236
 9616SOL    HW129418   0.370   0.685   1.846  0.1590  2.0844  0.5681
 9616SOL    HW229419   0.480   0.634   1.937 -0.2895  0.6117  0.3210
 9617SOL     OW29420   0.112   2.052   6.981 -0.7807  0.1465 -0.5332
 9617SOL    HW129421   0.034   1.998   6.970 -0.4211 -0.7072  0.7983
 9617SOL    HW229422   0.092   2.109   7.055  0.4246 -1.3199  1.0430
 9618SOL     OW29423   1.610   6.312   0.996  0.1757 -0.4689  0.2620
 9618SOL    HW129424   1.548   6.311   0.923  0.8698 -1.4052 -0.3290
 9618SOL    HW229425   1.696   6.300   0.955  0.5614 -1.1391  1.2432
 9619SOL     OW29426   6.389   1.893   4.047 -0.6519  0.1661 -0.4877
 9619SOL    HW129427   6.337   1.871   3.970 -0.9822 -0.6569 -0.0504
 9619SOL    HW229428   6.471   1.846   4.036 -0.0165  1.3816 -1.1253
 9620SOL     OW29429   7.116   5.101   4.583  0.5660  0.1580 -0.2672
 9620SOL    HW129430   7.079   5.050   4.511 -0.0706 -1.5697  1.2108
 9620SOL    HW229431   7.138   5.036   4.650 -1.6096  1.8408  2.3170
 9621SOL     OW29432   3.123   7.196   2.610  0.0306  0.3253 -0.5703
 9621SOL    HW129433   3.142   7.174   2.701 -0.6742 -1.2097 -0.7782
 9621SOL    HW229434   3.028   7.211   2.608 -0.1767 -0.9877 -1.3027
 9622SOL     OW29435   3.658   1.901   5.098 -0.2733  0.3127  0.1611
 9622SOL    HW129436   3.636   1.809   5.105  2.9222 -0.8031 -2.1479
 9622SOL    HW229437   3.730   1.913   5.161 -1.0137  1.4293  0.8370
 9623SOL     OW29438   1.956   3.930   2.238  0.3300 -0.3588 -0.3331
 9623SOL    HW129439   1.970   3.835   2.239  0.1243 -0.3909 -0.0463
 9623SOL    HW229440   2.036   3.967   2.201 -0.3468 -0.7669 -2.3016
 9624SOL     OW29441   5.824   4.196   3.999 -0.4408  0.1747 -0.4299
 9624SOL    HW129442   5.900   4.250   4.019 -0.2657  0.0617 -0.7888
 9624SOL    HW229443   5.793   4.165   4.085 -0.7581  1.1238 -0.1861
 9625SOL     OW29444   2.486   5.424   1.709  0.0743  0.2536 -0.1413
 9625SOL    HW129445   2.485   5.332   1.681  0.0472  0.7963 -2.0875
 9625SOL    HW229446   2.571   5.434   1.753 -0.3650 -0.9369  1.0343
 9626SOL     OW29447   3.679   3.474   0.159 -0.0718 -0.1404  0.3647
 9626SOL    HW129448   3.734   3.498   0.083 -0.7085 -1.2859 -0.4827
 9626SOL    HW229449   3.715   3.526   0.231  0.2897  1.3153 -0.8001
 9627SOL     OW29450   6.666   3.273   6.832  0.5637  0.0954  0.4139
 9627SOL    HW129451   6.610   3.200   6.858  1.3416 -1.0824 -1.0804
 9627SOL    HW229452   6.733   3.278   6.900  0.4473 -0.5007  0.5788
 9628SOL     OW29453   7.113   7.003   3.670  0.2834 -0.0598 -0.3030
 9628SOL    HW129454   7.163   7.047   3.601  0.8971 -1.6866 -0.9269
 9628SOL    HW229455   7.021   7.022   3.649  0.4847 -0.0813 -1.2360
 9629SOL     OW29456   1.449   6.656   2.737 -0.2924 -1.0259 -0.1746
 9629SOL    HW129457   1.418   6.731   2.685 -1.7798 -1.1186  0.5276
 9629SOL    HW229458   1.373   6.599   2.744  0.4652 -1.9903  0.4008
 9630SOL     OW29459   4.402   4.744   6.197 -0.3730  0.0841  0.2815
 9630SOL    HW129460   4.359   4.785   6.122  0.9828 -0.9847 -1.1414
 9630SOL    HW229461   4.334   4.691   6.238 -0.3693 -2.1733 -2.3572
 9631SOL     OW29462   7.416   1.983   2.097 -0.0365 -0.4132 -0.3318
 9631SOL    HW129463   7.488   1.948   2.149  1.5057 -1.8875 -3.2192
 9631SOL    HW229464   7.398   2.069   2.136  1.1542 -1.2773  2.3591
 9632SOL     OW29465   3.650   4.200   2.015 -0.4103  0.1793  0.8129
 9632SOL    HW129466   3.743   4.187   2.037 -0.1592  0.9843  0.2534
 9632SOL    HW229467   3.635   4.293   2.029 -0.3118  0.7105 -2.0943
 9633SOL     OW29468   1.583   2.075   4.558  0.0760  0.6199  0.0059
 9633SOL    HW129469   1.603   1.987   4.591  0.9592  0.2725 -1.3733
 9633SOL    HW229470   1.491   2.087   4.579 -0.0089 -0.5537  0.4202
 9634SOL     OW29471   6.314   6.678   1.205 -0.4887  0.0037  0.2427
 9634SOL    HW129472   6.400   6.670   1.165  0.2050  0.8830  1.4869
 9634SOL    HW229473   6.307   6.771   1.228 -1.6065 -0.1315  0.5157
 9635SOL     OW29474   4.785   4.796   3.092  0.7976 -0.6323 -0.4826
 9635SOL    HW129475   4.760   4.856   3.022  1.3223 -0.0393 -0.1778
 9635SOL    HW229476   4.847   4.846   3.146  0.6797 -1.1966  0.2021
 9636SOL     OW29477   0.820   6.872   1.291 -0.4845  0.5113 -0.2202
 9636SOL    HW129478   0.833   6.901   1.381  0.7510 -0.4046 -0.0704
 9636SOL    HW229479   0.864   6.938   1.237 -1.4268  1.1842 -0.1840
 9637SOL     OW29480   1.051   0.140   1.670  0.2111 -0.2194 -0.3249
 9637SOL    HW129481   0.981   0.203   1.685  1.4615  1.4680 -1.1892
 9637SOL    HW229482   1.056   0.090   1.752  0.8302  2.5407  1.4844
 9638SOL     OW29483   5.922   2.275   7.363 -0.6126  0.1318 -0.4491
 9638SOL    HW129484   5.946   2.258   7.271  0.5844 -0.6029 -0.0211
 9638SOL    HW229485   5.958   2.362   7.381 -0.1434 -0.0620 -0.4425
 9639SOL     OW29486   6.003   5.872   4.100  0.0584  0.1604  0.2691
 9639SOL    HW129487   5.927   5.828   4.061  0.8098 -0.6872 -0.2740
 9639SOL    HW229488   6.067   5.802   4.113  1.4052  1.1219 -0.8746
 9640SOL     OW29489   0.222   2.816   4.984 -0.2421  0.4687  0.4497
 9640SOL    HW129490   0.292   2.795   4.922 -0.9204 -1.4075  0.2232
 9640SOL    HW229491   0.218   2.911   4.986  1.0476  0.5878 -0.9741
 9641SOL     OW29492   7.056   2.391   6.262  0.2054  0.4175 -0.3686
 9641SOL    HW129493   6.999   2.461   6.232  0.0436  0.4423 -0.0065
 9641SOL    HW229494   7.140   2.407   6.219 -0.0347  0.4319 -0.8306
 9642SOL     OW29495   6.978   5.345   2.355  0.5379  0.2360  0.7341
 9642SOL    HW129496   6.909   5.411   2.350  1.6921  1.3909 -1.9947
 9642SOL    HW229497   7.053   5.392   2.393  0.4839 -0.4102  1.6725
 9643SOL     OW29498   5.956   4.940   6.311  0.9835 -0.0162 -0.3558
 9643SOL    HW129499   5.910   4.866   6.272 -0.5678  0.6929  0.0773
 9643SOL    HW229500   5.946   5.011   6.247 -0.2637  0.7108  0.6068
 9644SOL     OW29501   3.778   6.138   5.650 -0.6585 -0.4045 -0.1439
 9644SOL    HW129502   3.750   6.046   5.648  0.0616 -0.6774  1.0981
 9644SOL    HW229503   3.696   6.187   5.652 -1.0532 -1.0293 -0.5465
 9645SOL     OW29504   7.318   6.288   4.038  0.3213  0.0709  0.6248
 9645SOL    HW129505   7.231   6.250   4.051 -0.3448  1.4865  0.5456
 9645SOL    HW229506   7.303   6.361   3.977  2.0057 -1.2494 -1.5024
 9646SOL     OW29507   1.644   0.207   4.328  0.4366 -0.1881  0.2656
 9646SOL    HW129508   1.579   0.171   4.267  1.2514 -2.4541  0.6104
 9646SOL    HW229509   1.613   0.181   4.415  0.2232  1.4460  0.7119
 9647SOL     OW29510   0.743   4.804   2.450 -0.5203 -0.4130  0.3498
 9647SOL    HW129511   0.777   4.718   2.425  1.6100  0.6024 -0.5290
 9647SOL    HW229512   0.667   4.817   2.393  0.7565 -0.6262 -1.4986
 9648SOL     OW29513   2.214   5.488   0.641 -0.2520  0.0499  0.3038
 9648SOL    HW129514   2.308   5.500   0.634 -0.2619  0.0218  0.1044
 9648SOL    HW229515   2.185   5.475   0.551 -0.5261  0.6673  0.2957
 9649SOL     OW29516   1.337   0.164   0.902 -0.5641 -0.4107  0.1109
 9649SOL    HW129517   1.426   0.197   0.918 -0.9427 -0.0818  1.8353
 9649SOL    HW229518   1.343   0.116   0.820  0.9846  0.4295 -0.3118
 9650SOL     OW29519   6.780   2.496   4.885  0.5510 -0.2789 -0.2984
 9650SOL    HW129520   6.838   2.423   4.863  1.3290 -0.3852  1.8375
 9650SOL    HW229521   6.839   2.560   4.925 -0.8159 -0.5646  2.3501
 9651SOL     OW29522   6.069   0.889   3.829 -0.0243 -0.2579 -0.7780
 9651SOL    HW129523   6.119   0.950   3.884  0.4522 -1.0272 -0.3411
 9651SOL    HW229524   6.116   0.806   3.837 -1.2277 -0.9430 -0.5546
 9652SOL     OW29525   5.348   6.198   6.942  0.2349  0.2205  0.3995
 9652SOL    HW129526   5.307   6.278   6.976 -0.4650  0.4860 -1.0162
 9652SOL    HW229527   5.275   6.141   6.920  0.5406  0.6778 -2.1186
 9653SOL     OW29528   1.812   5.276   6.684 -0.2499  0.5617 -0.2013
 9653SOL    HW129529   1.717   5.276   6.678 -0.2673 -0.9851 -0.3221
 9653SOL    HW229530   1.842   5.282   6.593 -0.2223  0.8385 -0.1766
 9654SOL     OW29531   2.505   0.607   1.426  0.0008 -0.4315 -0.2580
 9654SOL    HW129532   2.592   0.590   1.462  0.6685  0.0700 -1.5552
 9654SOL    HW229533   2.494   0.702   1.435 -0.3754 -0.4799 -0.1919
 9655SOL     OW29534   3.888   4.465   5.794 -0.2059 -0.0755 -0.3107
 9655SOL    HW129535   3.983   4.472   5.785 -0.2175 -0.2494 -0.5912
 9655SOL    HW229536   3.874   4.400   5.862 -0.1318 -1.8893 -1.9534
 9656SOL     OW29537   4.740   7.332   0.060 -0.2730 -0.3808  0.3518
 9656SOL    HW129538   4.676   7.390   0.017 -1.0000 -0.6242  1.0683
 9656SOL    HW229539   4.740   7.361   0.151  0.9505 -0.1359  0.2839
 9657SOL     OW29540   2.494   6.002   6.869 -0.4866  0.0328 -0.5796
 9657SOL    HW129541   2.461   5.930   6.923 -1.8345  0.3862 -0.8973
 9657SOL    HW229542   2.447   6.079   6.900 -0.1770  0.5012 -1.2508
 9658SOL     OW29543   6.758   2.148   4.332  0.5155 -0.0134  0.1517
 9658SOL    HW129544   6.704   2.091   4.387 -0.5627  0.2133 -0.6425
 9658SOL    HW229545   6.779   2.094   4.256 -0.6197  0.6561 -0.6662
 9659SOL     OW29546   6.212   2.088   4.060 -0.2262 -0.2596  0.0716
 9659SOL    HW129547   6.135   2.065   4.008 -0.7453 -2.3594  1.6107
 9659SOL    HW229548   6.259   2.006   4.070 -0.5100 -0.1518  3.3659
 9660SOL     OW29549   7.143   2.738   0.011  0.2542 -0.8148  0.3252
 9660SOL    HW129550   7.156   2.655   0.058 -1.8884 -0.0707  2.4876
 9660SOL    HW229551   7.183   2.804   0.068 -0.7646 -0.0652  0.1999
 9661SOL     OW29552   0.274   0.128   3.921 -0.1767  0.0639  0.3337
 9661SOL    HW129553   0.299   0.121   4.014  0.5842  1.0814  0.2231
 9661SOL    HW229554   0.313   0.051   3.880 -2.4283 -1.6495  1.2127
 9662SOL     OW29555   3.116   4.729   0.472  0.0893  0.4968 -0.5481
 9662SOL    HW129556   3.064   4.651   0.494 -0.7266  0.7864 -1.4034
 9662SOL    HW229557   3.128   4.724   0.377 -0.4068  1.6750 -0.6826
 9663SOL     OW29558   0.138   1.256   1.849 -0.0264 -0.1996 -0.5833
 9663SOL    HW129559   0.101   1.278   1.764 -0.1348 -0.3138 -0.5654
 9663SOL    HW229560   0.093   1.314   1.911 -0.0162 -0.1833 -0.5913
 9664SOL     OW29561   2.489   6.385   2.765 -0.0380  0.1437 -0.2426
 9664SOL    HW129562   2.422   6.336   2.718  0.3691 -0.1125 -0.5547
 9664SOL    HW229563   2.465   6.376   2.857  0.2222 -0.9208 -0.2721
 9665SOL     OW29564   7.229   5.727   2.648 -0.9547 -0.0859 -0.3218
 9665SOL    HW129565   7.158   5.783   2.681 -0.1812  0.8565 -0.1996
 9665SOL    HW229566   7.296   5.732   2.716  0.0798  0.7418 -1.3526
 9666SOL     OW29567   1.316   4.232   3.125  0.3179  0.1645  0.0157
 9666SOL    HW129568   1.408   4.240   3.098  0.2749  0.4339 -0.0571
 9666SOL    HW229569   1.314   4.154   3.181  0.8779  0.9764  1.2191
 9667SOL     OW29570   2.400   3.771   0.442 -0.4160 -0.7258 -0.3475
 9667SOL    HW129571   2.424   3.864   0.447  0.5223 -0.9098 -1.2056
 9667SOL    HW229572   2.441   3.740   0.362  1.3195 -2.4549  1.1265
 9668SOL     OW29573   1.813   0.934   3.317  0.0759 -0.0814  0.2339
 9668SOL    HW129574   1.758   0.990   3.262 -1.2829 -1.3132  0.2999
 9668SOL    HW229575   1.806   0.973   3.404 -0.2618  0.0685  0.1410
 9669SOL     OW29576   3.849   4.296   4.279  0.0756 -0.1892  0.5996
 9669SOL    HW129577   3.926   4.350   4.262 -1.3303  1.9837  0.8272
 9669SOL    HW229578   3.812   4.280   4.192 -0.4420  0.6834  0.6506
 9670SOL     OW29579   2.779   2.738   3.414  0.6835  0.0913 -0.1829
 9670SOL    HW129580   2.724   2.664   3.391 -0.7172  0.9536  0.3029
 9670SOL    HW229581   2.739   2.776   3.492  2.4575  0.2452  0.7242
 9671SOL     OW29582   1.556   1.976   3.519  0.9890 -0.2112 -0.5369
 9671SOL    HW129583   1.487   1.910   3.514  0.7961 -0.0293 -0.2898
 9671SOL    HW229584   1.577   1.997   3.428  0.1621  0.3093 -0.6117
 9672SOL     OW29585   1.165   1.035   1.701  0.2767 -0.7375 -0.3730
 9672SOL    HW129586   1.080   1.057   1.739  0.6727 -1.3639  0.9435
 9672SOL    HW229587   1.193   0.957   1.749  1.7102 -0.3836 -0.5829
 9673SOL     OW29588   6.114   2.146   1.213  0.3771 -0.1864  0.1085
 9673SOL    HW129589   6.090   2.062   1.173 -0.1952  0.8689 -1.9055
 9673SOL    HW229590   6.207   2.157   1.192  1.1157 -1.3426  2.4291
 9674SOL     OW29591   7.117   4.284   5.073  0.3196  0.6003 -0.7958
 9674SOL    HW129592   7.054   4.298   5.002 -0.2576  0.2967 -0.3491
 9674SOL    HW229593   7.195   4.332   5.045  0.2875  0.0573 -1.8826
 9675SOL     OW29594   3.076   3.865   4.840  0.0065  0.6536  0.3155
 9675SOL    HW129595   3.038   3.818   4.914  0.1488  0.1575  0.0775
 9675SOL    HW229596   3.131   3.801   4.796 -0.6479  0.7298 -0.6453
 9676SOL     OW29597   0.913   1.897   5.634  0.3246  0.3604 -0.8133
 9676SOL    HW129598   0.914   1.970   5.572 -2.6486  1.4022  0.2120
 9676SOL    HW229599   0.841   1.841   5.604 -0.7902  0.5845  1.3155
 9677SOL     OW29600   4.505   4.902   6.424 -0.1023 -0.2137 -0.6292
 9677SOL    HW129601   4.547   4.986   6.410 -0.5231  0.1009 -0.0840
 9677SOL    HW229602   4.462   4.882   6.341 -0.7229  0.5363 -0.5085
 9678SOL     OW29603   1.667   2.871   4.376 -0.0284  0.0645  0.1797
 9678SOL    HW129604   1.591   2.925   4.355  0.9749  2.0211  1.3186
 9678SOL    HW229605   1.662   2.859   4.471  1.7101  1.2655  0.4537
 9679SOL     OW29606   6.344   0.717   0.451 -0.0024 -0.2731  0.0788
 9679SOL    HW129607   6.416   0.689   0.394  0.1060  0.7753 -0.3062
 9679SOL    HW229608   6.349   0.812   0.452 -3.2973  0.0859 -2.5036
 9680SOL     OW29609   2.456   2.014   4.308 -0.0384  0.6838 -0.7888
 9680SOL    HW129610   2.453   2.109   4.307  1.2008  0.7542  0.3505
 9680SOL    HW229611   2.479   1.990   4.218 -0.5108  1.4287 -1.1198
 9681SOL     OW29612   0.797   2.796   1.424  1.3178 -0.1320  0.2927
 9681SOL    HW129613   0.759   2.844   1.497  0.1394  0.6357 -0.7782
 9681SOL    HW229614   0.792   2.704   1.451  0.7357  0.1201  1.0965
 9682SOL     OW29615   2.281   4.090   4.405 -1.0883  0.2718  0.1609
 9682SOL    HW129616   2.245   4.024   4.465 -0.1069 -0.0854  0.3640
 9682SOL    HW229617   2.255   4.058   4.318 -0.9149 -0.1999  0.2796
 9683SOL     OW29618   5.277   6.071   3.752 -0.2682  0.1438 -0.1421
 9683SOL    HW129619   5.231   5.994   3.720  0.7126 -0.7985  0.6462
 9683SOL    HW229620   5.208   6.133   3.776 -1.2110 -1.7630  2.4184
 9684SOL     OW29621   4.298   4.798   4.597  0.0683 -0.1477 -0.4658
 9684SOL    HW129622   4.227   4.843   4.643  0.5391 -1.4439  1.6833
 9684SOL    HW229623   4.378   4.840   4.628  0.3487 -0.0082 -1.3432
 9685SOL     OW29624   4.237   3.737   0.851 -0.3896  0.5469  0.0088
 9685SOL    HW129625   4.322   3.782   0.847  0.1412 -0.3859  0.4668
 9685SOL    HW229626   4.208   3.749   0.941 -0.3445  0.1529  0.0761
 9686SOL     OW29627   7.249   0.936   0.264 -0.1422  0.6692 -0.4550
 9686SOL    HW129628   7.230   0.863   0.323 -1.0422  0.6578 -0.7462
 9686SOL    HW229629   7.164   0.977   0.248  0.4340  2.2650  0.3222
 9687SOL     OW29630   0.788   4.812   4.524  0.3790 -0.0996 -0.0697
 9687SOL    HW129631   0.768   4.887   4.468 -1.8440  0.3416  1.1900
 9687SOL    HW229632   0.748   4.737   4.481 -0.0773 -0.0122  0.1977
 9688SOL     OW29633   0.138   7.181   3.184 -0.2152  0.3722  0.3463
 9688SOL    HW129634   0.209   7.117   3.180 -0.4728  0.1275 -0.5142
 9688SOL    HW229635   0.127   7.198   3.277 -0.6289 -1.4026  0.6627
 9689SOL     OW29636   4.731   2.647   0.778 -0.6188 -0.0767  0.4593
 9689SOL    HW129637   4.790   2.716   0.810  0.8114 -0.6716 -0.8177
 9689SOL    HW229638   4.789   2.578   0.747 -1.9280 -0.1095 -2.1590
 9690SOL     OW29639   5.498   2.134   3.952  0.2238 -0.5883 -0.2797
 9690SOL    HW129640   5.559   2.207   3.957 -1.9646  1.2437  2.4038
 9690SOL    HW229641   5.547   2.060   3.988  1.4684  0.3493  0.0136
 9691SOL     OW29642   4.030   2.245   5.965  0.3160 -0.0489 -0.0865
 9691SOL    HW129643   4.016   2.339   5.975  0.1746 -0.0469 -0.2935
 9691SOL    HW229644   4.095   2.238   5.895  1.8946 -0.0326  1.2986
 9692SOL     OW29645   5.856   1.597   5.590  0.1899  0.7641  0.3473
 9692SOL    HW129646   5.930   1.568   5.537 -0.0360  0.7777  0.0214
 9692SOL    HW229647   5.889   1.674   5.637  0.7389  0.0976  1.0886
 9693SOL     OW29648   6.523   5.864   1.157  0.2763  0.3003 -0.5664
 9693SOL    HW129649   6.466   5.911   1.097  1.8667  2.9285 -0.1890
 9693SOL    HW229650   6.490   5.886   1.244 -0.7546 -1.8060 -0.3671
 9694SOL     OW29651   5.181   4.128   2.221 -0.1444 -0.0382  0.7209
 9694SOL    HW129652   5.259   4.086   2.255  0.4561  0.5060  0.0661
 9694SOL    HW229653   5.131   4.058   2.178 -0.4459 -0.5425  1.8765
 9695SOL     OW29654   3.723   1.328   4.468 -0.2557  0.2044 -0.3455
 9695SOL    HW129655   3.634   1.306   4.440 -0.7316  0.0895  1.1382
 9695SOL    HW229656   3.767   1.243   4.475 -0.2882  0.1944 -0.2639
 9696SOL     OW29657   3.726   4.073   6.340  0.1620  0.3359 -0.2143
 9696SOL    HW129658   3.733   3.995   6.395  1.1824 -0.8264 -1.8939
 9696SOL    HW229659   3.786   4.136   6.380  0.4097 -0.2498  0.3481
 9697SOL     OW29660   3.230   6.389   3.786 -0.2216 -0.3385 -0.3183
 9697SOL    HW129661   3.296   6.450   3.820  0.8324 -1.5282 -0.1070
 9697SOL    HW229662   3.273   6.303   3.791 -1.0963 -0.9166 -1.9983
 9698SOL     OW29663   2.652   2.599   6.565  0.4355 -0.7235 -0.2790
 9698SOL    HW129664   2.635   2.513   6.603  0.3192 -0.0178  1.3749
 9698SOL    HW229665   2.573   2.619   6.515  0.2150 -1.3242 -0.1826
 9699SOL     OW29666   3.603   6.451   7.408 -0.4930 -0.1743 -0.3869
 9699SOL    HW129667   3.680   6.434   7.462 -0.7662  0.9685  0.4182
 9699SOL    HW229668   3.631   6.429   7.319  0.5333 -0.4494 -0.0167
 9700SOL     OW29669   7.327   0.441   4.884 -0.0413  0.1280 -0.3805
 9700SOL    HW129670   7.326   0.409   4.794 -1.2865  1.9310 -1.0766
 9700SOL    HW229671   7.272   0.379   4.932 -1.3134  0.4137 -1.3978
 9701SOL     OW29672   6.552   4.846   4.095  0.1335  0.6813  0.2834
 9701SOL    HW129673   6.554   4.921   4.036  0.6180 -0.0880 -0.7060
 9701SOL    HW229674   6.463   4.812   4.088 -0.6606  2.1924  2.1177
 9702SOL     OW29675   0.581   2.544   5.440 -0.3522 -0.3889 -1.0966
 9702SOL    HW129676   0.588   2.538   5.345  0.6625 -2.1984 -0.9534
 9702SOL    HW229677   0.552   2.634   5.457  1.1268  0.5249 -3.0295
 9703SOL     OW29678   1.830   3.171   1.142 -0.3581 -0.0727  0.6487
 9703SOL    HW129679   1.762   3.206   1.199 -2.0615  0.6364 -1.6468
 9703SOL    HW229680   1.812   3.077   1.136 -1.0470  0.0841  0.1971
 9704SOL     OW29681   5.354   7.430   0.103 -0.2771 -0.4205  0.2010
 9704SOL    HW129682   5.271   7.476   0.102 -0.9224 -1.5544 -0.7969
 9704SOL    HW229683   5.355   7.379   0.022  1.4188 -0.3834  0.1524
 9705SOL     OW29684   1.946   3.017   1.430  0.5560 -0.1999 -0.0319
 9705SOL    HW129685   1.985   3.104   1.416 -0.9478  0.7345  1.2456
 9705SOL    HW229686   1.944   3.007   1.525 -1.3671 -0.6194 -0.0842
 9706SOL     OW29687   6.474   1.023   4.281 -0.4523 -0.2007 -0.2392
 9706SOL    HW129688   6.565   0.995   4.271  0.1761  1.4185  0.5792
 9706SOL    HW229689   6.457   1.077   4.203 -1.6678 -2.6990 -1.8347
 9707SOL     OW29690   0.439   2.673   4.796 -0.4915 -0.1451 -0.2241
 9707SOL    HW129691   0.522   2.654   4.754 -1.7522 -2.4059 -1.9102
 9707SOL    HW229692   0.411   2.589   4.834 -1.6141  0.7598  1.0606
 9708SOL     OW29693   1.513   3.213   3.624  0.4491  0.3952 -0.1129
 9708SOL    HW129694   1.479   3.129   3.656 -1.1763  0.6643 -1.0338
 9708SOL    HW229695   1.604   3.216   3.656  0.3935 -1.4895  0.3272
 9709SOL     OW29696   0.754   0.486   1.368 -0.2314  0.2723 -0.1401
 9709SOL    HW129697   0.674   0.473   1.419 -0.3432 -0.9368 -0.5864
 9709SOL    HW229698   0.734   0.559   1.309 -2.2573 -2.0142 -2.5629
 9710SOL     OW29699   4.004   0.319   3.794  0.1229  0.3866 -0.0741
 9710SOL    HW129700   3.969   0.230   3.791  1.6711 -0.2271 -0.9194
 9710SOL    HW229701   4.007   0.341   3.887  0.0794 -0.5931  0.1654
 9711SOL     OW29702   1.119   3.593   0.735 -0.0125 -0.2839 -0.0624
 9711SOL    HW129703   1.180   3.592   0.808 -0.7544  0.7708  0.5985
 9711SOL    HW229704   1.074   3.677   0.742  0.3924  0.1697 -2.1633
 9712SOL     OW29705   4.418   2.078   0.842  0.4344  0.2343 -0.2387
 9712SOL    HW129706   4.408   2.105   0.933  0.1426 -0.0046 -0.1989
 9712SOL    HW229707   4.471   1.999   0.845  1.2428  0.7600 -0.3525
 9713SOL     OW29708   7.284   3.754   3.860  0.4288 -0.3594 -0.2791
 9713SOL    HW129709   7.260   3.686   3.797 -1.2933 -1.1834  1.1645
 9713SOL    HW229710   7.209   3.814   3.861  1.5792  1.1717 -0.9258
 9714SOL     OW29711   5.920   0.916   3.019 -0.4629  0.9012  0.0293
 9714SOL    HW129712   5.965   0.885   3.097 -0.1877  3.0617  0.7751
 9714SOL    HW229713   5.982   0.974   2.976 -1.2540  1.1379 -0.8367
 9715SOL     OW29714   3.462   1.890   0.805  0.2916 -0.1538  0.0481
 9715SOL    HW129715   3.547   1.846   0.806  0.2799 -0.1734  0.2558
 9715SOL    HW229716   3.482   1.980   0.779  0.3195 -0.2723 -0.3514
 9716SOL     OW29717   1.629   0.713   5.685 -0.1810 -0.7516 -0.3664
 9716SOL    HW129718   1.700   0.659   5.721  1.1712  1.3242  0.2225
 9716SOL    HW229719   1.552   0.687   5.736  1.0199 -0.2147  1.8622
 9717SOL     OW29720   0.248   5.204   7.122  0.0682  0.6313 -0.9554
 9717SOL    HW129721   0.234   5.140   7.191  0.5808  0.0996 -1.3416
 9717SOL    HW229722   0.181   5.185   7.056 -0.4393  1.1565 -0.6059
 9718SOL     OW29723   6.799   3.294   3.621  0.0841  0.4817 -0.0170
 9718SOL    HW129724   6.730   3.228   3.620  1.0356 -0.5346 -0.1454
 9718SOL    HW229725   6.871   3.256   3.570  0.5769  1.7088 -0.2979
 9719SOL     OW29726   1.780   0.233   0.518 -0.4461  0.3049  0.3034
 9719SOL    HW129727   1.687   0.211   0.522  0.1010 -2.1684  2.0253
 9719SOL    HW229728   1.806   0.244   0.610  1.0138  0.6170 -0.1235
 9720SOL     OW29729   3.065   1.517   2.367  0.8509 -0.1900  0.3297
 9720SOL    HW129730   3.055   1.542   2.459  0.4149  0.2918  0.1531
 9720SOL    HW229731   3.002   1.571   2.320  0.1101 -1.3945 -0.1120
 9721SOL     OW29732   3.637   3.413   2.941 -0.0175  0.2408 -0.0991
 9721SOL    HW129733   3.593   3.331   2.920  1.0061 -0.2657 -0.3210
 9721SOL    HW229734   3.652   3.455   2.857  0.4240  0.1504 -0.0643
 9722SOL     OW29735   1.412   3.286   5.629 -0.1320  0.5884  0.2568
 9722SOL    HW129736   1.403   3.226   5.555 -1.1111 -0.2341  1.0128
 9722SOL    HW229737   1.398   3.373   5.591  1.1009  0.3548 -0.8166
 9723SOL     OW29738   6.545   0.052   3.310 -0.6718 -0.0354 -0.3146
 9723SOL    HW129739   6.593   0.067   3.229  0.5201  0.8638  0.5344
 9723SOL    HW229740   6.455   0.080   3.290 -0.3355  0.4275 -1.2221
 9724SOL     OW29741   1.805   4.376   2.979 -0.5269 -0.5547 -0.4849
 9724SOL    HW129742   1.806   4.287   2.943 -1.0951  0.4204 -3.1297
 9724SOL    HW229743   1.896   4.405   2.975 -0.4106 -0.8486 -0.0371
 9725SOL     OW29744   6.395   6.513   2.461 -0.4594 -0.8809  0.4521
 9725SOL    HW129745   6.484   6.529   2.430 -0.6258  0.1974  0.4804
 9725SOL    HW229746   6.367   6.597   2.498 -2.0439 -0.7424 -0.9341
 9726SOL     OW29747   1.696   3.090   5.377  0.1028 -0.0497 -0.2024
 9726SOL    HW129748   1.665   3.133   5.298 -1.1163  1.1361  0.8807
 9726SOL    HW229749   1.728   3.161   5.432 -0.2619 -0.7216  0.8972
 9727SOL     OW29750   6.785   0.694   5.173  0.4937  0.1689 -0.1893
 9727SOL    HW129751   6.743   0.779   5.167 -0.5206 -0.4289 -2.1993
 9727SOL    HW229752   6.760   0.661   5.260 -0.2882  1.3039  0.0344
 9728SOL     OW29753   6.396   1.722   4.367  0.4605 -0.2281 -0.0463
 9728SOL    HW129754   6.302   1.732   4.350 -0.0142 -1.2780  1.6508
 9728SOL    HW229755   6.400   1.698   4.460  2.4253 -0.1329 -0.0812
 9729SOL     OW29756   5.727   0.839   0.709  0.6241 -0.1985  0.1109
 9729SOL    HW129757   5.771   0.812   0.790 -0.5227 -2.6035  0.0389
 9729SOL    HW229758   5.640   0.798   0.714 -0.1540  1.1264 -1.5154
 9730SOL     OW29759   2.105   6.104   1.766 -0.0689 -0.0304 -0.1285
 9730SOL    HW129760   2.094   6.095   1.861 -1.4857  1.7012 -0.0662
 9730SOL    HW229761   2.130   6.195   1.754  1.7283 -0.6502 -1.3448
 9731SOL     OW29762   3.400   2.525   6.926 -0.4822  0.1488  0.6728
 9731SOL    HW129763   3.417   2.490   7.014  1.8975  0.2490  0.3311
 9731SOL    HW229764   3.393   2.448   6.870  0.4597  0.1098  0.5918
 9732SOL     OW29765   5.449   2.079   7.015  0.6035 -0.2631 -0.1191
 9732SOL    HW129766   5.538   2.047   7.002  0.1797 -0.5632 -2.7830
 9732SOL    HW229767   5.456   2.174   7.008  0.6782 -0.3047 -0.6064
 9733SOL     OW29768   4.869   0.204   3.489 -0.3729  0.0650  0.6936
 9733SOL    HW129769   4.857   0.272   3.423 -0.8405  2.4678  3.0855
 9733SOL    HW229770   4.804   0.137   3.467  0.0002  0.3850 -1.6338
 9734SOL     OW29771   4.318   6.380   2.274 -0.1658  0.1477 -0.3706
 9734SOL    HW129772   4.313   6.334   2.357  2.2530 -0.5153 -0.4935
 9734SOL    HW229773   4.254   6.450   2.281 -0.8396 -0.5876  1.5694
 9735SOL     OW29774   5.298   5.342   6.564 -0.0295 -0.0810 -0.1058
 9735SOL    HW129775   5.340   5.415   6.517  1.1737 -0.9193 -0.3573
 9735SOL    HW229776   5.204   5.358   6.552  0.2235  0.8926 -0.9893
 9736SOL     OW29777   6.319   1.249   5.641  0.2664  0.1804  0.5345
 9736SOL    HW129778   6.285   1.217   5.558 -1.8955 -1.0588  1.8282
 9736SOL    HW229779   6.335   1.342   5.626  1.4672 -0.3148 -1.6988
 9737SOL     OW29780   3.379   6.616   1.506 -0.6681  0.5046  0.1812
 9737SOL    HW129781   3.393   6.525   1.532  0.3001  0.5525 -0.1587
 9737SOL    HW229782   3.340   6.658   1.583  1.6558  0.5220  1.4088
 9738SOL     OW29783   4.151   0.751   3.348 -0.4551  0.5325  0.2365
 9738SOL    HW129784   4.185   0.754   3.258  1.0959 -0.3930  0.7635
 9738SOL    HW229785   4.057   0.770   3.338 -0.6567 -1.1253 -1.7814
 9739SOL     OW29786   6.725   6.718   3.059 -0.1083  0.0230  0.1549
 9739SOL    HW129787   6.760   6.670   2.984 -0.5287  0.4072 -0.2944
 9739SOL    HW229788   6.765   6.805   3.053 -0.3360  0.1338  0.2338
 9740SOL     OW29789   5.475   2.313   0.841  0.0236 -0.3272  0.3998
 9740SOL    HW129790   5.385   2.337   0.861  0.0753  1.0381 -0.8773
 9740SOL    HW229791   5.527   2.355   0.910 -0.0634  1.6544 -0.6844
 9741SOL     OW29792   0.136   3.929   0.850  0.4361 -0.2943  0.2992
 9741SOL    HW129793   0.213   3.943   0.905  2.2858 -2.2932 -1.5850
 9741SOL    HW229794   0.143   3.997   0.783 -0.0180  0.1417  0.6889
 9742SOL     OW29795   6.145   1.887   1.100 -0.4667  0.0972 -0.6135
 9742SOL    HW129796   6.134   1.906   1.006 -0.6032 -1.2339 -0.8914
 9742SOL    HW229797   6.057   1.869   1.131 -0.2496 -1.0093 -0.6021
 9743SOL     OW29798   1.791   0.742   2.970 -0.2310  0.3829 -0.3608
 9743SOL    HW129799   1.819   0.833   2.983 -0.9691  0.9663 -2.4223
 9743SOL    HW229800   1.840   0.713   2.893 -2.6795  0.3349 -2.0130
 9744SOL     OW29801   2.490   4.826   6.959  0.5300 -0.0808 -0.2770
 9744SOL    HW129802   2.419   4.818   7.023  0.0395 -1.6110 -0.9646
 9744SOL    HW229803   2.495   4.920   6.942 -0.1924  0.2248  1.0377
 9745SOL     OW29804   0.139   7.047   4.535  0.3145  0.2770  0.1592
 9745SOL    HW129805   0.086   7.041   4.614  0.9957  2.9660  0.9311
 9745SOL    HW229806   0.229   7.057   4.567  0.7718  0.0610 -1.0039
 9746SOL     OW29807   2.858   4.869   7.041  0.2942  0.0247 -0.2523
 9746SOL    HW129808   2.828   4.918   7.117 -0.3850 -0.3526 -0.2750
 9746SOL    HW229809   2.869   4.935   6.972  0.1970  0.2604 -0.0406
 9747SOL     OW29810   0.917   4.617   3.755 -0.0381 -0.2862  0.1530
 9747SOL    HW129811   0.998   4.668   3.744 -0.6606  0.7779  0.3198
 9747SOL    HW229812   0.880   4.650   3.838 -3.4701  3.3968 -2.4585
 9748SOL     OW29813   4.217   6.698   3.918 -0.1971  0.6173  0.6051
 9748SOL    HW129814   4.236   6.764   3.851  0.4913  0.6219  0.7968
 9748SOL    HW229815   4.175   6.627   3.869 -0.4106  0.9514  0.2986
 9749SOL     OW29816   7.144   5.782   0.306  0.4011 -0.2371 -0.2241
 9749SOL    HW129817   7.117   5.714   0.367 -0.1966 -0.3141 -0.5604
 9749SOL    HW229818   7.219   5.824   0.347 -1.4252  1.3283  1.7337
 9750SOL     OW29819   3.096   0.678   2.390 -0.3092 -0.2056  0.1256
 9750SOL    HW129820   3.101   0.621   2.466 -0.8978 -1.0965 -0.4845
 9750SOL    HW229821   3.050   0.756   2.420  0.7105  0.0696  1.0287
 9751SOL     OW29822   1.083   3.573   3.801 -0.1690 -0.0033 -0.3045
 9751SOL    HW129823   1.017   3.641   3.816  0.9538  0.9764  0.3788
 9751SOL    HW229824   1.166   3.621   3.799  0.8137 -1.4796  1.5787
 9752SOL     OW29825   1.929   3.566   4.235  0.2609  0.4867  0.1280
 9752SOL    HW129826   1.977   3.485   4.217  0.5859 -0.1044  3.0796
 9752SOL    HW229827   1.848   3.557   4.186  0.5210 -1.3837 -0.0573
 9753SOL     OW29828   7.390   5.809   4.655 -0.0751  0.4387  0.0431
 9753SOL    HW129829   7.341   5.880   4.613 -1.3679 -1.2865 -1.4713
 9753SOL    HW229830   7.434   5.765   4.583 -0.1580 -0.9675  0.8299
 9754SOL     OW29831   2.660   2.883   0.035 -0.0951 -0.1808  0.6565
 9754SOL    HW129832   2.698   2.836  -0.040  0.3694 -1.4937  1.6787
 9754SOL    HW229833   2.571   2.904   0.006 -0.9379 -3.1645  0.6744
 9755SOL     OW29834   5.063   0.056   0.071  0.3906 -0.0022  0.2911
 9755SOL    HW129835   5.027   0.141   0.044 -1.0866 -0.8448 -0.4976
 9755SOL    HW229836   5.014  -0.008   0.019  0.0750 -1.4690  2.2892
 9756SOL     OW29837   5.689   0.990   2.754 -0.4904  0.3361 -0.3496
 9756SOL    HW129838   5.663   0.993   2.847  0.0713 -0.4619 -0.1612
 9756SOL    HW229839   5.731   1.075   2.739 -0.8297  0.5822  0.0472
 9757SOL     OW29840   4.790   1.968   3.352  0.0094  0.3290 -0.0454
 9757SOL    HW129841   4.826   2.006   3.272  3.0557 -0.7391  0.6883
 9757SOL    HW229842   4.816   2.029   3.421  0.9884 -0.7527  0.5745
 9758SOL     OW29843   4.088   1.693   1.638  0.2504  0.6044 -0.0003
 9758SOL    HW129844   3.996   1.665   1.644 -0.0418  0.1043 -3.8998
 9758SOL    HW229845   4.087   1.785   1.664 -1.5483  0.8452 -0.7432
 9759SOL     OW29846   3.912   6.196   2.236  0.4278  0.0249  0.4451
 9759SOL    HW129847   3.872   6.283   2.240 -0.6951 -0.3364 -1.6339
 9759SOL    HW229848   3.998   6.207   2.277  1.1353  2.6039 -1.4620
 9760SOL     OW29849   4.472   6.668   4.376  0.8516  0.7367 -0.6760
 9760SOL    HW129850   4.548   6.691   4.323  0.6898  1.2189 -0.7042
 9760SOL    HW229851   4.407   6.637   4.312  1.2026 -0.1860 -0.6012
 9761SOL     OW29852   4.050   6.073   4.459  0.0591  0.1516 -0.2996
 9761SOL    HW129853   4.068   6.039   4.547 -1.2218 -0.6793 -0.3297
 9761SOL    HW229854   4.086   6.162   4.459  0.8131 -0.1383  0.7801
 9762SOL     OW29855   0.580   6.865   6.513  0.5081  0.5304  0.1602
 9762SOL    HW129856   0.676   6.861   6.516  0.7724  1.6469 -2.9911
 9762SOL    HW229857   0.561   6.959   6.507 -0.9058  0.3826  1.5482
 9763SOL     OW29858   0.031   6.166   6.527 -0.2936  0.2101 -0.2480
 9763SOL    HW129859  -0.018   6.246   6.545  1.7562  1.1195  1.7800
 9763SOL    HW229860   0.008   6.107   6.599  0.3522  0.0583 -0.1580
 9764SOL     OW29861   2.645   5.194   5.254  0.0829  0.2882 -0.3602
 9764SOL    HW129862   2.681   5.126   5.311 -1.7158 -0.9512 -0.5987
 9764SOL    HW229863   2.568   5.225   5.301 -1.1666 -0.4247 -1.8438
 9765SOL     OW29864   6.147   6.429   0.213  0.6723 -0.5902  0.1351
 9765SOL    HW129865   6.200   6.369   0.161  0.4849  0.2778 -1.1059
 9765SOL    HW229866   6.059   6.420   0.176 -0.3368 -2.7305  2.7794
 9766SOL     OW29867   4.968   5.931   0.785 -0.0889 -0.0511 -0.0183
 9766SOL    HW129868   4.893   5.977   0.747  0.1971 -0.4009 -1.0198
 9766SOL    HW229869   5.004   5.880   0.713  1.2370  0.2512  0.4148
 9767SOL     OW29870   2.839   5.229   6.162 -0.0884 -0.2207  0.0805
 9767SOL    HW129871   2.820   5.244   6.255 -0.8101 -0.4902 -0.0137
 9767SOL    HW229872   2.933   5.241   6.155 -0.3036  2.1465  0.3961
 9768SOL     OW29873   6.409   2.469   1.406 -0.7418 -0.6074 -0.1243
 9768SOL    HW129874   6.396   2.462   1.312 -2.0285 -0.0257 -0.0077
 9768SOL    HW229875   6.321   2.481   1.442 -0.1944  0.0514  1.0664
 9769SOL     OW29876   6.101   1.517   0.232 -0.0460  0.5878  0.2934
 9769SOL    HW129877   6.164   1.569   0.182  2.1137 -1.9488  0.1316
 9769SOL    HW229878   6.138   1.513   0.320  0.9098 -2.0855 -0.1359
 9770SOL     OW29879   1.432   2.709   1.932  0.5627 -0.1238 -0.2139
 9770SOL    HW129880   1.377   2.731   2.008  0.5973 -1.1565  0.1337
 9770SOL    HW229881   1.480   2.790   1.913 -0.3823  0.5241  0.0610
 9771SOL     OW29882   2.151   5.367   0.885  0.3502 -0.0001 -0.4429
 9771SOL    HW129883   2.059   5.348   0.868  0.5065 -0.7264 -0.5111
 9771SOL    HW229884   2.188   5.384   0.798  0.8523 -2.3730 -0.7543
 9772SOL     OW29885   2.154   1.665   3.062 -0.3885 -0.1722  0.3792
 9772SOL    HW129886   2.183   1.658   3.153  3.6818  1.5787 -0.5760
 9772SOL    HW229887   2.179   1.581   3.022 -1.2939 -0.5642  0.6025
 9773SOL     OW29888   3.000   1.784   4.390  0.3820  0.7755 -0.2663
 9773SOL    HW129889   2.918   1.831   4.373  0.6312  0.6385 -2.0450
 9773SOL    HW229890   3.000   1.712   4.327  0.8956 -0.5391  1.1499
 9774SOL     OW29891   6.779   4.338   1.677  0.1611 -0.6085 -0.4710
 9774SOL    HW129892   6.865   4.358   1.714  0.1348 -1.6239  0.1768
 9774SOL    HW229893   6.789   4.354   1.583  0.0205  2.7555 -0.0487
 9775SOL     OW29894   2.200   5.677   3.260 -0.4140 -0.0283 -0.1559
 9775SOL    HW129895   2.119   5.654   3.213 -1.1100 -0.6080  1.2580
 9775SOL    HW229896   2.269   5.664   3.196 -1.4387  0.6014 -1.4490
 9776SOL     OW29897   7.279   4.585   0.512  0.0286  0.1033  0.2133
 9776SOL    HW129898   7.219   4.539   0.571  1.9597 -2.6074  0.2454
 9776SOL    HW229899   7.358   4.600   0.565  0.8620 -0.0871 -0.9211
 9777SOL     OW29900   4.372   1.769   5.799 -0.2826 -0.0701  0.0409
 9777SOL    HW129901   4.455   1.769   5.846  0.0661 -2.9403 -0.3811
 9777SOL    HW229902   4.322   1.698   5.840 -1.2608 -0.4524 -1.7249
 9778SOL     OW29903   3.495   0.012   2.623  0.8892 -0.0203 -0.0564
 9778SOL    HW129904   3.581  -0.017   2.594 -0.2104 -1.1463 -2.3719
 9778SOL    HW229905   3.433  -0.042   2.575 -1.1831  2.5475 -0.4977
 9779SOL     OW29906   1.939   4.874   5.154 -0.5140  0.3203  0.2800
 9779SOL    HW129907   1.932   4.967   5.131 -0.7222  0.4583  0.8881
 9779SOL    HW229908   1.850   4.848   5.178 -1.3413 -1.0585 -3.5449
 9780SOL     OW29909   0.757   5.120   0.356  0.4757 -0.0980  0.2193
 9780SOL    HW129910   0.738   5.065   0.280  2.0455  1.0233 -1.0444
 9780SOL    HW229911   0.704   5.199   0.342  0.7691  0.1131  0.3062
 9781SOL     OW29912   0.887   7.386   0.863 -0.6083  0.2619  0.3712
 9781SOL    HW129913   0.824   7.316   0.874  0.6807 -0.9019  0.5987
 9781SOL    HW229914   0.953   7.370   0.931  0.5963  0.6748 -0.6541
 9782SOL     OW29915   4.733   4.331   5.993  1.1527 -0.1361  0.2561
 9782SOL    HW129916   4.703   4.408   6.042 -1.3524 -1.4814  1.0185
 9782SOL    HW229917   4.710   4.350   5.902 -0.2180 -0.2549  0.5503
 9783SOL     OW29918   4.206   3.763   2.111 -0.6346 -0.0487 -0.2085
 9783SOL    HW129919   4.145   3.729   2.176 -1.7307 -0.5072 -1.4485
 9783SOL    HW229920   4.169   3.847   2.083 -1.6905 -1.1066 -2.2156
 9784SOL     OW29921   4.343   5.952   6.893  0.5787 -0.1104  0.7122
 9784SOL    HW129922   4.427   5.918   6.924  1.7211 -0.4238 -2.3356
 9784SOL    HW229923   4.281   5.882   6.912  1.0922 -0.1523  2.4119
 9785SOL     OW29924   2.092   5.765   2.748 -0.2142 -0.1887 -0.5047
 9785SOL    HW129925   2.017   5.793   2.695 -1.7305 -1.0294  1.1017
 9785SOL    HW229926   2.152   5.725   2.685 -1.2141  0.2963 -1.8084
 9786SOL     OW29927   3.271   0.158   4.728 -0.2835  0.1721  0.3681
 9786SOL    HW129928   3.286   0.065   4.709  1.0400  0.1915  1.1982
 9786SOL    HW229929   3.358   0.196   4.734 -0.7340  1.0684  1.8940
 9787SOL     OW29930   3.472   5.265   2.424 -0.1918  0.1310  0.0562
 9787SOL    HW129931   3.426   5.181   2.417  1.6944 -0.8664 -1.4613
 9787SOL    HW229932   3.474   5.284   2.518 -1.0264 -1.2931  0.3950
 9788SOL     OW29933   4.251   2.311   0.365 -0.0465  0.3947 -0.0101
 9788SOL    HW129934   4.331   2.287   0.318 -0.3817 -0.1349 -0.3208
 9788SOL    HW229935   4.273   2.394   0.409  0.6237  0.3267 -0.2032
 9789SOL     OW29936   0.206   5.054   5.264  0.8383  0.2283 -0.0685
 9789SOL    HW129937   0.292   5.013   5.249  0.3030 -0.5850 -1.0522
 9789SOL    HW229938   0.195   5.114   5.191  0.6569  0.4917  0.1733
 9790SOL     OW29939   5.311   5.978   4.175 -0.0234 -0.1752 -0.3801
 9790SOL    HW129940   5.221   5.968   4.147 -1.2373 -0.4031  3.1064
 9790SOL    HW229941   5.313   6.062   4.222  1.1109 -0.8853  0.9469
 9791SOL     OW29942   3.041   4.346   2.237 -0.1897  0.3151 -0.4009
 9791SOL    HW129943   2.974   4.278   2.244 -1.8870  1.7543 -1.5356
 9791SOL    HW229944   3.058   4.352   2.143  1.1713  0.3536 -0.1703
 9792SOL     OW29945   6.717   1.304   6.068  0.5418 -0.6465  0.1048
 9792SOL    HW129946   6.661   1.367   6.112 -1.3978 -3.0787  1.3792
 9792SOL    HW229947   6.794   1.295   6.125  0.4829 -0.0229  0.2882
 9793SOL     OW29948   4.387   5.463   3.148 -0.5741  0.3165  0.0476
 9793SOL    HW129949   4.413   5.383   3.103  0.1622  0.1235  0.7875
 9793SOL    HW229950   4.329   5.434   3.219  1.8430  0.0525  2.0795
 9794SOL     OW29951   3.713   7.288   5.151 -0.1652  0.5885 -0.5564
 9794SOL    HW129952   3.689   7.214   5.097 -2.3765 -0.1204  1.2200
 9794SOL    HW229953   3.638   7.348   5.145  0.1118  1.1003  0.6435
 9795SOL     OW29954   1.715   6.022   0.106  0.1095  0.1692  0.3276
 9795SOL    HW129955   1.723   6.044   0.199  0.8810 -0.4290  0.4136
 9795SOL    HW229956   1.771   5.945   0.095  0.3538  0.4850 -0.7212
 9796SOL     OW29957   4.945   6.689   3.053 -0.2811  0.8683 -0.1402
 9796SOL    HW129958   5.033   6.652   3.061  0.1027  0.8033 -3.2175
 9796SOL    HW229959   4.899   6.659   3.131  1.4604 -1.9456 -0.0445
 9797SOL     OW29960   3.520   3.949   3.471  0.4777 -0.1376 -0.0958
 9797SOL    HW129961   3.614   3.946   3.490  0.2318 -0.1398  1.2295
 9797SOL    HW229962   3.507   3.883   3.402  1.3527 -0.5866  0.1531
 9798SOL     OW29963   5.778   7.279   3.955  0.2048 -0.0929 -0.1241
 9798SOL    HW129964   5.836   7.219   3.909  2.1657  1.8282 -0.3129
 9798SOL    HW229965   5.749   7.231   4.032  0.7198 -1.6820 -0.8887
 9799SOL     OW29966   6.602   1.592   3.613  0.2675 -0.0102  0.0180
 9799SOL    HW129967   6.550   1.529   3.564  2.0749 -1.4791 -0.1481
 9799SOL    HW229968   6.688   1.592   3.569  0.3611  2.6214  0.0012
 9800SOL     OW29969   0.738   5.155   4.651  0.4819  0.4467 -0.4042
 9800SOL    HW129970   0.804   5.106   4.700  0.8095  0.9845 -0.2932
 9800SOL    HW229971   0.784   5.182   4.571  1.2293  2.9317  0.7440
 9801SOL     OW29972   1.156   6.197   2.403  0.1192  0.5388  0.2624
 9801SOL    HW129973   1.110   6.196   2.487  1.9657 -1.2843  1.3343
 9801SOL    HW229974   1.087   6.210   2.338 -1.4803  1.0262  1.9751
 9802SOL     OW29975   1.863   2.688   3.712  0.7788  0.1088  0.1505
 9802SOL    HW129976   1.899   2.637   3.638 -0.6869  3.3006 -3.0576
 9802SOL    HW229977   1.769   2.672   3.708  0.5084  1.5911  0.2603
 9803SOL     OW29978   4.255   5.070   2.755  0.2931  0.0065 -0.1829
 9803SOL    HW129979   4.292   4.983   2.739 -0.5107 -0.0612 -1.9393
 9803SOL    HW229980   4.164   5.052   2.782  0.4273  0.2799  0.4707
 9804SOL     OW29981   3.100   3.227   3.274 -0.0176 -0.0739 -0.2868
 9804SOL    HW129982   3.109   3.196   3.364 -0.6328  0.8272  0.0990
 9804SOL    HW229983   3.108   3.148   3.220 -0.2399 -0.7048  0.5905
 9805SOL     OW29984   2.728   0.488   0.943 -0.5790  0.0131 -0.0797
 9805SOL    HW129985   2.713   0.566   0.998  0.0048 -0.5546  0.9175
 9805SOL    HW229986   2.749   0.524   0.857  1.0686  1.0426  0.6907
 9806SOL     OW29987   3.808   3.367   0.949  0.8641  0.3267 -0.0737
 9806SOL    HW129988   3.805   3.433   1.018  0.0465  0.9385 -0.6649
 9806SOL    HW229989   3.755   3.404   0.878 -2.3574 -2.3198  0.7239
 9807SOL     OW29990   2.554   5.023   6.408 -0.9508  0.0931 -0.0083
 9807SOL    HW129991   2.560   5.014   6.503 -1.8224  0.6669  0.1158
 9807SOL    HW229992   2.642   5.004   6.376 -1.1048 -2.1303  0.7364
 9808SOL     OW29993   1.968   0.923   2.382 -0.0916 -0.4275 -0.0927
 9808SOL    HW129994   1.953   0.991   2.317 -1.7812 -1.6311 -1.0330
 9808SOL    HW229995   1.906   0.942   2.452  0.1262 -0.4326  0.1018
 9809SOL     OW29996   3.271   0.727   2.639 -0.3571  0.2183 -0.5667
 9809SOL    HW129997   3.340   0.723   2.705 -0.4605  0.9105 -0.4031
 9809SOL    HW229998   3.259   0.637   2.610  0.5015  0.0761 -0.4832
 9810SOL     OW29999   0.401   3.426   2.109 -0.7391 -0.1241  0.1555
 9810SOL    HW130000   0.315   3.446   2.145 -0.3664  0.9002  0.5237
 9810SOL    HW230001   0.445   3.511   2.104  0.0039 -0.5366 -0.6760
 9811SOL     OW30002   4.969   0.409   0.810  0.0077  0.2845  0.3472
 9811SOL    HW130003   4.937   0.489   0.852 -2.4476 -0.7950  0.6508
 9811SOL    HW230004   5.040   0.379   0.867 -1.6746  0.1411  2.4759
 9812SOL     OW30005   3.349   7.286   2.473  0.2219  0.2973  1.1918
 9812SOL    HW130006   3.401   7.205   2.469 -1.9208 -1.1712  0.9134
 9812SOL    HW230007   3.265   7.258   2.510 -1.2170  2.0156 -0.5302
 9813SOL     OW30008   3.332   2.814   0.354  0.1400 -0.3487 -0.0179
 9813SOL    HW130009   3.255   2.762   0.329 -0.2394  0.4164 -0.4660
 9813SOL    HW230010   3.392   2.805   0.280  0.6261 -1.1941  0.4612
 9814SOL     OW30011   3.716   4.720   5.879 -0.3445  0.0255 -0.0880
 9814SOL    HW130012   3.635   4.668   5.874 -1.2177  1.2797  0.4322
 9814SOL    HW230013   3.770   4.686   5.807 -1.1128 -1.1848 -0.1348
 9815SOL     OW30014   0.732   5.853   2.843 -0.1909 -0.5282  0.2956
 9815SOL    HW130015   0.814   5.887   2.879  0.4907 -0.9390 -0.8292
 9815SOL    HW230016   0.705   5.918   2.778 -0.6263 -0.5174  0.4855
 9816SOL     OW30017   0.806   0.993   2.789 -0.1829 -0.1601 -0.6107
 9816SOL    HW130018   0.809   1.006   2.694  0.0027 -1.2733 -0.7767
 9816SOL    HW230019   0.817   1.080   2.826  3.1629 -0.0315 -1.5786
 9817SOL     OW30020   4.881   0.352   2.842 -1.1087 -0.2477 -0.0198
 9817SOL    HW130021   4.829   0.407   2.784  0.3912 -0.2204 -1.4261
 9817SOL    HW230022   4.959   0.331   2.791 -0.0648 -0.8567  1.7327
 9818SOL     OW30023   5.127   4.708   3.392 -0.3440  0.2309  0.3198
 9818SOL    HW130024   5.054   4.709   3.454 -0.0622 -0.4450  0.6761
 9818SOL    HW230025   5.101   4.645   3.325 -1.2963  2.0228 -1.0883
 9819SOL     OW30026   5.917   0.282   7.363  0.9016  0.3468  0.2010
 9819SOL    HW130027   5.977   0.337   7.412  0.9916  1.2119 -0.8247
 9819SOL    HW230028   5.855   0.344   7.323  0.5526 -0.3524 -0.3799
 9820SOL     OW30029   4.684   6.989   2.474 -0.1955  0.2835  0.2324
 9820SOL    HW130030   4.754   6.973   2.536 -2.0479  1.0654  2.6572
 9820SOL    HW230031   4.699   7.078   2.443  0.3152  0.1631  0.1341
 9821SOL     OW30032   6.826   0.789   2.227  0.1950  0.3925  0.7141
 9821SOL    HW130033   6.875   0.871   2.225  1.3241 -0.2520  0.7337
 9821SOL    HW230034   6.893   0.721   2.240 -0.3624 -0.7701 -1.7124
 9822SOL     OW30035   4.056   3.750   4.801  0.5695 -0.3403  0.1219
 9822SOL    HW130036   4.020   3.703   4.726  0.1774  0.4532 -0.2034
 9822SOL    HW230037   4.009   3.714   4.877  0.0801 -0.2892 -0.1522
 9823SOL     OW30038   0.935   3.145   6.687 -0.1979 -0.0866 -0.5376
 9823SOL    HW130039   1.011   3.131   6.743  0.8295 -0.5118 -1.9799
 9823SOL    HW230040   0.868   3.087   6.722  0.3128 -0.1079  0.4303
 9824SOL     OW30041   5.808   0.048   6.153  0.5802  0.9224 -0.0878
 9824SOL    HW130042   5.743   0.011   6.213  0.7173 -1.7369 -1.4319
 9824SOL    HW230043   5.758   0.108   6.098 -0.3370  0.4523  0.2107
 9825SOL     OW30044   1.853   2.960   4.628  0.4979 -0.0433 -0.7501
 9825SOL    HW130045   1.858   2.867   4.607 -0.2875  0.1459 -1.8749
 9825SOL    HW230046   1.921   3.001   4.575 -1.0903  0.3612 -2.5829
 9826SOL     OW30047   1.797   4.028   3.202 -0.2435  0.2922  0.4654
 9826SOL    HW130048   1.873   3.987   3.160 -0.1242  0.0737  0.8846
 9826SOL    HW230049   1.814   4.020   3.296  0.4349  2.5226  0.5862
 9827SOL     OW30050   1.803   3.777   7.395  0.2663  0.3393 -0.6036
 9827SOL    HW130051   1.812   3.702   7.454 -2.7267  0.7632  0.5297
 9827SOL    HW230052   1.875   3.766   7.333  0.4902 -2.9799  0.0297
 9828SOL     OW30053   6.371   0.042   4.179 -0.2940  0.1425 -0.0307
 9828SOL    HW130054   6.330  -0.043   4.164  0.7400 -0.1711 -1.2071
 9828SOL    HW230055   6.451   0.022   4.227  0.5468  0.2995 -1.3164
 9829SOL     OW30056   3.570   6.456   4.977  0.1282 -0.4030  0.8080
 9829SOL    HW130057   3.565   6.468   4.882 -0.8100  0.0488  0.9003
 9829SOL    HW230058   3.479   6.450   5.005  0.3574  0.4088  1.7908
 9830SOL     OW30059   2.700   3.576   0.075  0.0496 -0.6781 -0.3143
 9830SOL    HW130060   2.701   3.512   0.004  1.0471 -0.1958 -0.7523
 9830SOL    HW230061   2.636   3.641   0.047 -0.8697 -1.3888  0.0724
 9831SOL     OW30062   3.323   3.363   0.877 -0.1830 -0.0094  0.6013
 9831SOL    HW130063   3.343   3.426   0.809  0.2013 -1.0567 -0.2820
 9831SOL    HW230064   3.266   3.299   0.835  0.9238 -1.2661  0.9131
 9832SOL     OW30065   4.903   5.567   7.226  0.1154 -0.4449  0.3321
 9832SOL    HW130066   4.883   5.587   7.318  2.9530 -0.0017  0.9358
 9832SOL    HW230067   4.914   5.472   7.225 -0.4893 -0.5209  0.2971
 9833SOL     OW30068   1.897   3.545   0.103  0.0437 -0.8479  0.1601
 9833SOL    HW130069   1.969   3.604   0.127  0.7490 -1.6780  0.1247
 9833SOL    HW230070   1.939   3.461   0.086 -0.6972 -0.8614 -1.8520
 9834SOL     OW30071   4.926   4.696   3.897 -0.1082 -0.7226 -0.0022
 9834SOL    HW130072   4.939   4.627   3.963 -1.3092  0.0994  1.1597
 9834SOL    HW230073   5.014   4.725   3.875  0.5658 -3.5414 -1.6194
 9835SOL     OW30074   5.970   2.852   6.380 -0.2121 -0.1753  0.1951
 9835SOL    HW130075   5.909   2.914   6.339 -2.0205 -2.1310 -0.2236
 9835SOL    HW230076   5.933   2.766   6.361  3.1511 -1.5627 -0.8061
 9836SOL     OW30077   3.367   3.983   7.374  0.4427 -0.1893  0.5993
 9836SOL    HW130078   3.418   4.042   7.431 -1.4147 -0.4269  2.6325
 9836SOL    HW230079   3.337   3.913   7.433  0.3462 -1.7325 -1.2037
 9837SOL     OW30080   0.530   4.481   4.006 -0.1084 -0.5624 -0.1333
 9837SOL    HW130081   0.577   4.500   3.925  0.6352 -0.1159  0.3947
 9837SOL    HW230082   0.438   4.487   3.982  0.0741 -1.5379 -1.2019
 9838SOL     OW30083   4.360   7.036   5.295 -0.2737 -0.4656 -0.0074
 9838SOL    HW130084   4.283   7.092   5.297  0.5341  0.7468 -1.1303
 9838SOL    HW230085   4.364   7.004   5.205  1.3007  0.6681 -0.3947
 9839SOL     OW30086   2.715   7.288   3.935  0.0325 -0.1137  0.1843
 9839SOL    HW130087   2.650   7.358   3.940 -0.8318 -0.8982  0.1066
 9839SOL    HW230088   2.797   7.330   3.963 -0.4587  0.9291  0.1160
 9840SOL     OW30089   3.417   6.095   4.525 -0.1273  0.1182  0.3018
 9840SOL    HW130090   3.440   6.097   4.618 -1.3540  1.3493  0.6123
 9840SOL    HW230091   3.405   6.187   4.502 -0.0173 -0.1855 -1.0381
 9841SOL     OW30092   7.031   1.879   3.570 -0.0302 -0.2704 -0.7415
 9841SOL    HW130093   6.974   1.860   3.495 -1.9656  1.3505  0.2141
 9841SOL    HW230094   7.113   1.910   3.530 -1.2987  1.3831 -2.2681
 9842SOL     OW30095   2.531   0.058   4.058 -0.4725 -0.2145 -0.2140
 9842SOL    HW130096   2.542   0.102   4.142  0.3857  0.3511 -0.6113
 9842SOL    HW230097   2.468  -0.012   4.076 -2.3979  1.5384  0.2858
 9843SOL     OW30098   5.262   1.456   2.698  0.6196  0.3568 -0.1717
 9843SOL    HW130099   5.250   1.435   2.606 -1.0865  1.6643 -0.3063
 9843SOL    HW230100   5.302   1.378   2.736  0.1900 -0.6740 -1.7748
 9844SOL     OW30101   0.538   0.353   3.470  0.3479 -0.6074  0.3379
 9844SOL    HW130102   0.595   0.408   3.416 -1.1296  2.1652  1.4510
 9844SOL    HW230103   0.470   0.322   3.409 -1.0425  2.1088  0.3727
 9845SOL     OW30104   0.514   0.660   4.975  0.5929 -0.2821  0.6423
 9845SOL    HW130105   0.498   0.696   4.888 -0.2501 -1.6094  0.2157
 9845SOL    HW230106   0.426   0.649   5.013  0.8161 -1.6656  0.8192
 9846SOL     OW30107   5.894   6.869   3.261 -0.0695  0.4788 -0.0674
 9846SOL    HW130108   5.845   6.946   3.233  0.3103  0.7362 -0.0334
 9846SOL    HW230109   5.897   6.812   3.184  0.2765  0.8260 -0.3152
 9847SOL     OW30110   4.989   4.445   1.896 -0.1698  0.8905 -0.4495
 9847SOL    HW130111   4.964   4.490   1.977  1.1898  3.0944 -1.1676
 9847SOL    HW230112   4.987   4.352   1.919  0.4127  1.4418  2.2003
 9848SOL     OW30113   4.207   6.258   7.059  0.1141  0.2943  0.6927
 9848SOL    HW130114   4.272   6.192   7.079  0.7675  0.1585 -1.5853
 9848SOL    HW230115   4.158   6.269   7.141 -1.0990 -4.1488  0.8145
 9849SOL     OW30116   1.365   1.486   5.130 -0.1841 -0.1379 -0.3253
 9849SOL    HW130117   1.440   1.513   5.183 -0.2660  0.5014 -0.5263
 9849SOL    HW230118   1.345   1.562   5.076 -1.3322 -0.1024  0.1290
 9850SOL     OW30119   2.516   4.932   7.232 -0.3905 -0.3254  0.3483
 9850SOL    HW130120   2.525   5.008   7.173  0.3102 -0.4191  0.3236
 9850SOL    HW230121   2.597   4.932   7.283 -0.1728 -1.3407  0.0192
 9851SOL     OW30122   1.457   6.666   3.891  0.0165 -0.1525 -0.2127
 9851SOL    HW130123   1.378   6.625   3.856 -0.1945 -0.6558  0.8177
 9851SOL    HW230124   1.527   6.603   3.872 -0.0944 -0.4164  0.2389
 9852SOL     OW30125   4.412   2.920   0.621  0.4680  0.0922 -0.6529
 9852SOL    HW130126   4.398   2.938   0.528  1.2740  1.1076 -0.5956
 9852SOL    HW230127   4.407   3.006   0.663 -1.1233 -0.4935  0.4305
 9853SOL     OW30128   5.715   1.395   5.711  0.4198 -0.2726 -0.2530
 9853SOL    HW130129   5.777   1.379   5.783 -0.2666  1.4995  0.8057
 9853SOL    HW230130   5.758   1.462   5.657 -0.0930  0.1609 -0.1276
 9854SOL     OW30131   2.060   1.246   5.276  0.6237  0.3425 -0.1405
 9854SOL    HW130132   2.089   1.155   5.272  0.5449  0.2817  0.5468
 9854SOL    HW230133   2.057   1.275   5.184 -0.9841 -0.8592 -0.5139
 9855SOL     OW30134   2.945   5.202   4.228 -0.4634  0.0820 -0.0860
 9855SOL    HW130135   2.930   5.109   4.244  1.8307 -0.5347 -1.2293
 9855SOL    HW230136   2.944   5.242   4.315  2.4428 -1.6863  0.8827
 9856SOL     OW30137   1.265   3.764   3.722  0.3877  0.0224  0.1463
 9856SOL    HW130138   1.296   3.713   3.647 -0.6608  0.7762 -0.8403
 9856SOL    HW230139   1.217   3.837   3.682  0.6911  1.0178  1.5379
 9857SOL     OW30140   7.433   2.713   3.258  0.3909 -0.0968  0.2848
 9857SOL    HW130141   7.338   2.716   3.250  0.2984  0.4731  1.4008
 9857SOL    HW230142   7.453   2.619   3.263  0.0347 -0.2811 -1.2189
 9858SOL     OW30143   0.779   2.900   6.716  0.3327  0.0840  0.5213
 9858SOL    HW130144   0.741   2.856   6.792  0.0734  0.6952  0.7478
 9858SOL    HW230145   0.708   2.951   6.679  0.7371  0.6497  0.5104
 9859SOL     OW30146   0.624   6.201   2.872 -0.1101  0.6779  0.0071
 9859SOL    HW130147   0.691   6.259   2.909 -0.9110  1.0396  0.9368
 9859SOL    HW230148   0.615   6.131   2.936 -1.8952  1.5981  0.8415
 9860SOL     OW30149   1.466   5.465   5.892 -0.0304 -0.4267  0.2348
 9860SOL    HW130150   1.450   5.378   5.857 -1.7084  0.1628 -0.5884
 9860SOL    HW230151   1.442   5.524   5.821  0.5690  0.7286  0.9554
 9861SOL     OW30152   7.269   6.644   0.408 -0.7057 -0.7202  0.1843
 9861SOL    HW130153   7.209   6.713   0.380 -1.4960 -1.4568  0.0180
 9861SOL    HW230154   7.254   6.573   0.347  1.3686 -0.4342 -0.7466
 9862SOL     OW30155   5.867   3.773   3.951  0.1364 -0.0029 -0.4947
 9862SOL    HW130156   5.890   3.842   3.889 -0.4453  0.6149 -0.0426
 9862SOL    HW230157   5.773   3.784   3.967  0.2893 -0.0626  0.5717
 9863SOL     OW30158   6.619   1.408   7.315  0.1739 -0.7680  0.3339
 9863SOL    HW130159   6.606   1.450   7.230  0.9402  0.3808  0.7543
 9863SOL    HW230160   6.583   1.320   7.305  0.3664 -0.6876 -1.2105
 9864SOL     OW30161   7.169   0.741   0.938 -0.1963 -0.1466  0.2780
 9864SOL    HW130162   7.076   0.746   0.916  0.0636 -1.4978 -1.3040
 9864SOL    HW230163   7.171   0.724   1.032 -1.5618 -0.7523  0.2092
 9865SOL     OW30164   4.650   1.080   5.515  0.6202 -0.3021  0.2034
 9865SOL    HW130165   4.609   0.995   5.497 -0.3440  0.2601 -0.3090
 9865SOL    HW230166   4.593   1.144   5.473  2.6069  0.4458 -1.5364
 9866SOL     OW30167   5.874   0.160   3.169  0.4371  0.1149 -0.1301
 9866SOL    HW130168   5.838   0.123   3.088 -0.0250 -1.1104  0.6210
 9866SOL    HW230169   5.968   0.148   3.160  0.2650 -1.9632  0.4062
 9867SOL     OW30170   1.564   2.583   0.460  0.3781 -0.1830 -0.3185
 9867SOL    HW130171   1.495   2.565   0.395 -0.5390 -0.5124  0.7061
 9867SOL    HW230172   1.627   2.512   0.448 -1.4337 -2.2366  1.3025
 9868SOL     OW30173   4.041   5.981   3.119  0.4213  0.2362  0.0918
 9868SOL    HW130174   4.127   6.015   3.093 -0.3395  0.1231 -2.8306
 9868SOL    HW230175   4.045   5.888   3.098  0.0066 -0.0675  1.2577
 9869SOL     OW30176   5.861   6.122   4.605 -0.4809  0.1578 -0.1867
 9869SOL    HW130177   5.893   6.035   4.628 -1.1033  0.1665  0.7656
 9869SOL    HW230178   5.928   6.157   4.546  0.2812 -0.5777  0.2119
 9870SOL     OW30179   3.132   1.091   2.705  0.3648 -0.7227  0.2466
 9870SOL    HW130180   3.097   1.008   2.673  0.4618 -0.1044 -1.5820
 9870SOL    HW230181   3.138   1.080   2.800 -1.8199 -1.9640  0.3094
 9871SOL     OW30182   4.099   5.762   5.362  0.1527 -0.3546  0.1166
 9871SOL    HW130183   4.031   5.702   5.332  2.0354 -2.2376 -0.5988
 9871SOL    HW230184   4.131   5.724   5.444  0.2121  0.6247  0.5612
 9872SOL     OW30185   0.132   1.086   0.098  0.4763  0.3381 -0.2462
 9872SOL    HW130186   0.192   1.123   0.033  1.1905 -0.3048  0.0278
 9872SOL    HW230187   0.189   1.040   0.160 -0.2575  0.2215  0.3661
 9873SOL     OW30188   4.345   0.090   1.480 -0.3115  0.4904  0.2370
 9873SOL    HW130189   4.422   0.072   1.535  0.1702  0.8167 -0.3140
 9873SOL    HW230190   4.271   0.060   1.532 -0.0546  2.5028  1.8797
 9874SOL     OW30191   5.362   1.793   6.853  0.8568  0.1461 -0.3962
 9874SOL    HW130192   5.454   1.780   6.831  0.5188 -2.5112 -0.5610
 9874SOL    HW230193   5.315   1.768   6.773 -0.0297  0.8183 -0.0895
 9875SOL     OW30194   5.538   4.638   1.677  0.1126  0.0800  0.1631
 9875SOL    HW130195   5.482   4.698   1.726 -1.3952 -0.6990 -0.5076
 9875SOL    HW230196   5.486   4.616   1.600  1.2343 -0.9432 -0.3254
 9876SOL     OW30197   2.817   6.452   2.912  0.1503  0.4791  0.3280
 9876SOL    HW130198   2.766   6.482   2.836  0.5613 -0.1756 -0.2215
 9876SOL    HW230199   2.761   6.472   2.987 -0.2463  1.1852 -0.1375
 9877SOL     OW30200   2.756   5.352   6.398  0.6210  0.0495  0.3777
 9877SOL    HW130201   2.774   5.410   6.472  2.1457 -0.5765  0.5196
 9877SOL    HW230202   2.674   5.386   6.361 -2.8938 -2.2612  4.9664
 9878SOL     OW30203   1.998   4.235   6.746  0.5504 -0.0664  0.2611
 9878SOL    HW130204   1.973   4.267   6.659  2.1576 -0.3369 -0.3301
 9878SOL    HW230205   1.924   4.181   6.774 -0.0514  0.1410 -0.8795
 9879SOL     OW30206   0.428   7.262   2.496  0.5320 -0.1740  0.2039
 9879SOL    HW130207   0.388   7.261   2.583  0.6629  1.0938  0.2931
 9879SOL    HW230208   0.472   7.177   2.489  1.5639  0.1713  1.8790
 9880SOL     OW30209   6.466   0.255   2.134  0.2425 -0.2263  0.3534
 9880SOL    HW130210   6.423   0.339   2.142  0.2343  0.1093 -2.2612
 9880SOL    HW230211   6.395   0.192   2.127  0.2350 -0.2159  0.3362
 9881SOL     OW30212   4.837   1.359   7.140 -0.0403  0.3582 -0.3585
 9881SOL    HW130213   4.778   1.287   7.119  0.2366  0.3289 -1.0631
 9881SOL    HW230214   4.910   1.317   7.186  1.4874 -0.3071 -3.1325
 9882SOL     OW30215   5.709   3.288   4.203  0.7631  0.5531  0.5470
 9882SOL    HW130216   5.696   3.382   4.208  0.2363  0.4947  0.3264
 9882SOL    HW230217   5.625   3.250   4.228  1.1920  0.1225  1.3959
 9883SOL     OW30218   5.505   5.953   3.874  0.5274  0.3238  0.0565
 9883SOL    HW130219   5.532   5.993   3.957 -0.5095 -1.9487  1.5882
 9883SOL    HW230220   5.418   5.989   3.857  0.3926  0.1597  0.3973
 9884SOL     OW30221   3.231   4.121   2.032  0.6119 -0.3629  0.1603
 9884SOL    HW130222   3.224   4.215   2.014 -0.1957 -0.1074  1.6727
 9884SOL    HW230223   3.302   4.114   2.096  0.2930 -0.7056  0.4858
 9885SOL     OW30224   1.598   4.196   6.780  0.2396 -0.1471  0.2662
 9885SOL    HW130225   1.658   4.130   6.813  1.7404  0.1533 -1.6163
 9885SOL    HW230226   1.512   4.156   6.784  0.8637 -1.4624  0.9590
 9886SOL     OW30227   1.787   3.978   6.803  0.2529  0.4205  0.2704
 9886SOL    HW130228   1.803   3.948   6.893 -0.1942  0.2189  0.2845
 9886SOL    HW230229   1.822   3.909   6.748  1.0384  0.7971  0.2717
 9887SOL     OW30230   1.014   1.235   2.456  0.4534  0.3394  0.3035
 9887SOL    HW130231   1.034   1.143   2.473 -0.5976  0.2496  1.1403
 9887SOL    HW230232   0.973   1.266   2.537 -0.7443  1.0929 -0.5613
 9888SOL     OW30233   7.378   1.541   5.265 -0.2417  0.0787  0.1332
 9888SOL    HW130234   7.321   1.571   5.336  0.5150  0.2887  0.6533
 9888SOL    HW230235   7.406   1.622   5.222 -1.3472 -0.0775 -0.9338
 9889SOL     OW30236   2.926   5.112   5.785  0.0581 -0.2891 -0.2704
 9889SOL    HW130237   2.955   5.027   5.752 -0.7385  0.4148 -3.0102
 9889SOL    HW230238   2.837   5.095   5.818  0.5821 -0.8573  0.8929
 9890SOL     OW30239   5.734   7.218   2.254  0.2009  0.1520  0.4842
 9890SOL    HW130240   5.765   7.285   2.315  0.6333  0.5692 -0.1884
 9890SOL    HW230241   5.730   7.262   2.169 -2.2978  0.1554  0.5184
 9891SOL     OW30242   0.742   1.655   6.894 -0.2209  0.1118  0.1848
 9891SOL    HW130243   0.656   1.651   6.937  0.4047 -1.7121  1.3810
 9891SOL    HW230244   0.749   1.572   6.847  1.0189  0.0711  0.4089
 9892SOL     OW30245   0.101   2.077   1.222  0.0803 -0.4397 -0.0480
 9892SOL    HW130246   0.123   2.108   1.310 -0.3267 -1.4097  0.3985
 9892SOL    HW230247   0.150   1.995   1.212  0.6695  0.0033 -0.9921
 9893SOL     OW30248   4.675   3.180   3.713  0.0653 -0.2240  0.1903
 9893SOL    HW130249   4.677   3.085   3.699  0.1932 -0.1180 -0.5681
 9893SOL    HW230250   4.674   3.190   3.808 -1.0368 -1.0041  0.2808
 9894SOL     OW30251   5.554   7.352   2.835 -0.1439  0.3538 -0.1149
 9894SOL    HW130252   5.496   7.360   2.759  1.0441 -1.1162 -1.2434
 9894SOL    HW230253   5.513   7.407   2.902 -0.7258  2.5186 -2.1055
 9895SOL     OW30254   3.435   1.412   2.918 -0.4331  0.1888  0.2896
 9895SOL    HW130255   3.353   1.441   2.876  0.8859  0.9002 -1.9883
 9895SOL    HW230256   3.499   1.477   2.890  0.9913 -0.5213  1.7933
 9896SOL     OW30257   0.610   6.891   1.536  0.3020  0.3764  0.1922
 9896SOL    HW130258   0.550   6.830   1.493  0.8821  0.4772 -0.8063
 9896SOL    HW230259   0.604   6.971   1.482  0.6552  0.6899  0.6131
 9897SOL     OW30260   7.251   7.381   1.395  0.4426  0.1823 -0.2133
 9897SOL    HW130261   7.279   7.317   1.461  1.3525 -0.5056 -1.2309
 9897SOL    HW230262   7.176   7.426   1.435  0.4160 -0.8273  0.9202
 9898SOL     OW30263   6.359   5.370   3.376  0.6412  0.0525  0.2126
 9898SOL    HW130264   6.340   5.305   3.308 -3.3022  2.0439 -0.8802
 9898SOL    HW230265   6.289   5.359   3.440  0.2515  2.6833  0.3466
 9899SOL     OW30266   0.997   1.702   5.346  0.2534  0.4106 -0.5559
 9899SOL    HW130267   1.025   1.778   5.296  1.5460 -0.9510 -2.0097
 9899SOL    HW230268   0.906   1.719   5.367  0.1819  1.8346 -1.8671
 9900SOL     OW30269   5.286   2.990   2.869 -0.5176  0.7429  0.2048
 9900SOL    HW130270   5.353   2.922   2.871 -2.3197 -1.1677 -0.2266
 9900SOL    HW230271   5.322   3.062   2.920  0.4146 -1.6155  3.1092
 9901SOL     OW30272   3.946   3.452   3.619 -0.0030  0.2400 -0.5920
 9901SOL    HW130273   3.916   3.368   3.654 -1.2464  0.7871 -0.2822
 9901SOL    HW230274   3.952   3.438   3.524  1.9901 -0.8306 -0.3551
 9902SOL     OW30275   4.472   5.216   5.072  0.3305 -0.0828 -0.7114
 9902SOL    HW130276   4.387   5.245   5.104 -0.1293 -0.2982 -1.6904
 9902SOL    HW230277   4.482   5.128   5.108  0.8279  0.4975  0.6263
 9903SOL     OW30278   0.080   0.865   6.681  0.1477 -0.4153  0.0177
 9903SOL    HW130279   0.082   0.770   6.692  1.1809 -0.3220  0.7540
 9903SOL    HW230280  -0.014   0.886   6.675 -0.1838 -1.3067  1.5394
 9904SOL     OW30281   0.418   5.740   1.136 -0.2666 -0.2147 -0.1266
 9904SOL    HW130282   0.463   5.741   1.052 -0.5311 -3.3056 -0.4112
 9904SOL    HW230283   0.486   5.759   1.200  0.0623  1.5284 -0.9227
 9905SOL     OW30284   3.049   3.027   0.144  0.1848  0.5996  0.3610
 9905SOL    HW130285   3.101   2.968   0.090  0.6298  1.7633 -0.5082
 9905SOL    HW230286   3.113   3.084   0.187 -0.3222  1.6295 -0.2228
 9906SOL     OW30287   2.143   6.539   2.616 -0.5595  0.6266 -0.1487
 9906SOL    HW130288   2.168   6.567   2.528  2.8912 -0.8182  0.1953
 9906SOL    HW230289   2.108   6.451   2.605  1.2116 -0.1432 -0.0573
 9907SOL     OW30290   2.173   2.590   1.208  0.4840 -0.1079  0.0031
 9907SOL    HW130291   2.168   2.520   1.143  1.0268  1.4159 -1.7567
 9907SOL    HW230292   2.235   2.653   1.171  0.0277  1.3137  1.5240
 9908SOL     OW30293   3.798   6.388   0.953  0.1989  0.2037 -0.4204
 9908SOL    HW130294   3.745   6.463   0.981  0.5843  0.3401 -0.0507
 9908SOL    HW230295   3.814   6.339   1.034 -1.5173 -1.2367 -0.8887
 9909SOL     OW30296   6.460   0.208   3.822  0.0464  0.4172 -0.1068
 9909SOL    HW130297   6.535   0.175   3.772  0.1945  1.6278 -0.7282
 9909SOL    HW230298   6.385   0.196   3.764 -0.7370 -2.9499  1.3697
 9910SOL     OW30299   1.347   4.301   0.554 -0.4187  0.3022 -0.3088
 9910SOL    HW130300   1.366   4.312   0.461  0.8742 -3.2520 -0.6184
 9910SOL    HW230301   1.259   4.263   0.556 -1.7299  3.1069  0.2282
 9911SOL     OW30302   3.249   4.676   1.558 -0.2190  0.0655  0.1949
 9911SOL    HW130303   3.299   4.758   1.554 -2.5585  1.6272  1.1656
 9911SOL    HW230304   3.158   4.704   1.562 -1.1962 -2.6703 -1.1597
 9912SOL     OW30305   4.725   5.830   2.113 -0.4269 -0.3910 -0.1599
 9912SOL    HW130306   4.778   5.791   2.183  0.5065 -1.1145 -1.2346
 9912SOL    HW230307   4.787   5.887   2.067 -0.5580 -1.2931 -1.4774
 9913SOL     OW30308   4.779   6.637   7.235  0.2741  0.7464 -0.3254
 9913SOL    HW130309   4.859   6.584   7.245 -0.7871 -0.7042  0.9380
 9913SOL    HW230310   4.735   6.598   7.160 -0.5702 -0.3266  0.6835
 9914SOL     OW30311   7.210   7.325   6.064 -0.1435 -0.2578  0.2066
 9914SOL    HW130312   7.118   7.301   6.076 -0.3424  0.2700 -0.2277
 9914SOL    HW230313   7.243   7.261   6.001 -0.0070 -0.9087  0.9214
 9915SOL     OW30314   1.631   1.511   4.961 -0.4186  0.6682  0.3883
 9915SOL    HW130315   1.671   1.597   4.966  0.3505  0.4448 -1.2201
 9915SOL    HW230316   1.600   1.504   4.870  3.9936 -2.5389 -1.2271
 9916SOL     OW30317   6.088   4.208   2.343 -0.1634  0.4095 -0.4859
 9916SOL    HW130318   6.133   4.164   2.270  2.1430 -0.1730  1.1703
 9916SOL    HW230319   6.099   4.148   2.417 -3.3856  0.4715  0.1831
 9917SOL     OW30320   5.721   4.400   0.342 -0.3650 -0.4226  0.1158
 9917SOL    HW130321   5.675   4.484   0.332  0.5890 -0.0151 -1.0499
 9917SOL    HW230322   5.779   4.413   0.417 -0.5782 -0.2053  0.2460
 9918SOL     OW30323   7.220   0.763   6.411  0.0588  0.8612  0.4044
 9918SOL    HW130324   7.311   0.783   6.389 -0.3866  2.4639 -0.0823
 9918SOL    HW230325   7.221   0.749   6.506  0.9143  0.2097  0.3099
 9919SOL     OW30326   6.249   3.866   1.503  0.2752 -0.1044  0.5435
 9919SOL    HW130327   6.310   3.864   1.577  0.1510  1.1627  0.6953
 9919SOL    HW230328   6.224   3.958   1.495  0.2565 -0.2204 -1.0530
 9920SOL     OW30329   2.330   6.910   3.787  0.2505  0.0457 -0.3703
 9920SOL    HW130330   2.301   6.819   3.792  0.4549 -0.0322 -0.5851
 9920SOL    HW230331   2.260   6.955   3.740 -0.3012  0.1932  0.5852
 9921SOL     OW30332   5.143   3.439   0.347  0.1270 -0.4404  0.5204
 9921SOL    HW130333   5.065   3.390   0.322 -1.2813  1.8652  0.0675
 9921SOL    HW230334   5.165   3.491   0.269  1.1526  0.1257  1.1616
 9922SOL     OW30335   6.183   6.064   4.798  0.0507  0.8866 -0.7028
 9922SOL    HW130336   6.151   6.034   4.883  2.6215  1.5454  0.5873
 9922SOL    HW230337   6.128   6.018   4.734  0.7041 -2.9072  1.2034
 9923SOL     OW30338   0.009   5.152   5.646 -0.0923 -0.5140 -0.1301
 9923SOL    HW130339   0.042   5.099   5.718  0.6456 -0.0109 -0.0978
 9923SOL    HW230340   0.077   5.147   5.579 -0.1920  0.0789 -0.2781
 9924SOL     OW30341   2.485   5.488   5.297  0.2262 -0.4331  0.1169
 9924SOL    HW130342   2.580   5.482   5.296  0.1738 -1.6590 -0.6689
 9924SOL    HW230343   2.458   5.438   5.374  0.1565 -2.3543 -1.0864
 9925SOL     OW30344   0.191   6.685   2.302  0.5838 -0.3737  0.3888
 9925SOL    HW130345   0.122   6.645   2.355 -1.7735  2.4783 -0.2087
 9925SOL    HW230346   0.187   6.778   2.326  2.9295  0.1802 -1.1291
 9926SOL     OW30347   7.194   5.213   4.961  0.0510 -0.3632 -0.2845
 9926SOL    HW130348   7.131   5.222   4.889  0.4289 -1.4880 -0.7816
 9926SOL    HW230349   7.223   5.303   4.979  1.1342 -0.1667 -2.6079
 9927SOL     OW30350   3.495   0.282   1.059  0.5844 -0.2589  0.1610
 9927SOL    HW130351   3.555   0.213   1.088  1.6739  0.0882 -1.1573
 9927SOL    HW230352   3.408   0.246   1.075  1.1331 -1.7798 -0.1293
 9928SOL     OW30353   6.240   2.798   4.135 -0.2411 -0.8392 -0.0806
 9928SOL    HW130354   6.251   2.705   4.156 -0.6990 -0.9801 -0.4352
 9928SOL    HW230355   6.193   2.835   4.210 -0.6281 -1.0348 -0.2253
 9929SOL     OW30356   7.289   4.201   3.975 -0.0604 -0.1405  0.2115
 9929SOL    HW130357   7.246   4.243   3.900  1.4264  0.8720 -0.1231
 9929SOL    HW230358   7.289   4.108   3.953  1.2658  0.2314 -1.5896
 9930SOL     OW30359   4.015   5.624   4.498  0.0965 -0.0637  0.0631
 9930SOL    HW130360   4.026   5.710   4.457  0.6408 -0.7982 -1.4279
 9930SOL    HW230361   3.931   5.592   4.463 -0.2173 -0.0642  0.7929
 9931SOL     OW30362   6.397   6.185   5.391 -0.2120  0.1280 -0.1642
 9931SOL    HW130363   6.365   6.103   5.429  0.2112  0.1286  0.2034
 9931SOL    HW230364   6.370   6.181   5.299 -1.4013  0.2040  0.1702
 9932SOL     OW30365   1.016   6.386   6.762  1.3517 -0.5619  0.4201
 9932SOL    HW130366   1.059   6.471   6.757  0.1348  0.0583  0.0796
 9932SOL    HW230367   0.998   6.373   6.855  0.3788  0.1700  0.3449
 9933SOL     OW30368   5.056   5.512   6.246  0.2191 -0.8949  0.3986
 9933SOL    HW130369   5.104   5.549   6.172 -0.5742 -1.9526 -0.6708
 9933SOL    HW230370   5.062   5.580   6.314  2.3869 -0.6075 -0.0149
 9934SOL     OW30371   0.406   1.975   5.896 -0.1537  0.4447 -0.2244
 9934SOL    HW130372   0.361   1.915   5.837  0.3393  0.3088 -0.4642
 9934SOL    HW230373   0.341   2.044   5.913 -0.4271  0.2950 -0.6318
 9935SOL     OW30374   4.487   2.257   0.643  0.3941 -0.0182 -0.3204
 9935SOL    HW130375   4.466   2.186   0.704 -0.3042  0.3973 -0.0639
 9935SOL    HW230376   4.544   2.315   0.694 -3.3845  2.5094  1.5143
 9936SOL     OW30377   5.784   3.405   6.024  0.2506 -0.1411 -0.4465
 9936SOL    HW130378   5.818   3.416   6.113  1.7893 -0.8400 -0.9163
 9936SOL    HW230379   5.705   3.459   6.022  1.2042  1.3769  0.7657
 9937SOL     OW30380   0.533   4.572   6.654 -0.0282  0.0472  0.0638
 9937SOL    HW130381   0.522   4.581   6.559  0.5924  1.8141  0.1325
 9937SOL    HW230382   0.445   4.582   6.690 -0.0155  1.1958 -0.2120
 9938SOL     OW30383   4.004   2.914   4.963 -0.4359 -0.0151 -0.1034
 9938SOL    HW130384   4.077   2.854   4.980 -0.7994 -0.8792 -1.4409
 9938SOL    HW230385   4.014   2.982   5.029 -1.1138 -2.5108  2.8526
 9939SOL     OW30386   1.820   3.276   2.863 -0.0099  0.5769  0.4975
 9939SOL    HW130387   1.755   3.217   2.825  0.4740  0.9533 -1.0194
 9939SOL    HW230388   1.772   3.329   2.926 -0.4958 -1.2555  1.7405
 9940SOL     OW30389   5.050   4.303   2.718 -0.3073  0.2226  0.3463
 9940SOL    HW130390   4.987   4.372   2.735 -0.3825  0.0179  0.9343
 9940SOL    HW230391   5.035   4.239   2.788  0.6527  0.2519  0.5931
 9941SOL     OW30392   1.772   7.375   1.244  0.3791 -0.4967  0.0374
 9941SOL    HW130393   1.712   7.435   1.287  1.8262  1.0329  0.0205
 9941SOL    HW230394   1.798   7.314   1.313  1.5614  1.0490  1.0190
 9942SOL     OW30395   5.277   6.172   4.405  0.3256 -0.2352 -0.0862
 9942SOL    HW130396   5.318   6.223   4.475 -1.0470  1.8346 -0.6802
 9942SOL    HW230397   5.207   6.123   4.449 -1.2848  1.9385 -0.0655
 9943SOL     OW30398   0.870   2.718   3.946 -0.2346 -0.0814 -0.5879
 9943SOL    HW130399   0.829   2.786   3.892 -0.3183  0.1819 -0.1980
 9943SOL    HW230400   0.819   2.717   4.027  0.9350  0.7559  0.2026
 9944SOL     OW30401   3.021   4.482   7.397  0.6553 -0.2027  0.3557
 9944SOL    HW130402   2.993   4.521   7.479  1.9882  2.0103 -0.1573
 9944SOL    HW230403   3.113   4.506   7.388  1.1454 -2.2550 -0.7608
 9945SOL     OW30404   7.285   5.984   5.315  0.2529 -0.0920  0.4190
 9945SOL    HW130405   7.304   6.063   5.366  1.4363 -1.6424  2.5691
 9945SOL    HW230406   7.191   5.990   5.297 -0.0802  0.9405  2.1959
 9946SOL     OW30407   0.782   1.277   5.110 -0.1070 -0.1732  0.0631
 9946SOL    HW130408   0.848   1.344   5.090  0.0022  0.3228  1.8977
 9946SOL    HW230409   0.744   1.305   5.193 -0.6553 -1.9429  0.4515
 9947SOL     OW30410   4.477   2.262   5.859  0.0632  0.4700 -0.4099
 9947SOL    HW130411   4.448   2.172   5.843 -1.3375  0.6564  0.7711
 9947SOL    HW230412   4.414   2.316   5.811 -1.5637  0.8791  1.9854
 9948SOL     OW30413   0.596   3.991   5.805  0.6951 -0.2264 -0.3375
 9948SOL    HW130414   0.671   4.042   5.774  1.2307 -0.2564  0.8853
 9948SOL    HW230415   0.536   4.057   5.841  1.7002 -0.4811  1.8960
 9949SOL     OW30416   4.472   2.207   3.524  0.0700  0.4378  0.7310
 9949SOL    HW130417   4.554   2.213   3.573  0.1530 -0.7782  0.7742
 9949SOL    HW230418   4.433   2.125   3.552 -0.3392  0.1670 -0.5470
 9950SOL     OW30419   3.621   1.879   2.567 -0.0933  0.1533  0.4191
 9950SOL    HW130420   3.590   1.869   2.477 -0.0667  0.1576  0.4094
 9950SOL    HW230421   3.542   1.875   2.621 -0.1011  0.0701  0.4014
 9951SOL     OW30422   6.466   3.110   7.020  0.0898  0.6588  0.2234
 9951SOL    HW130423   6.449   3.189   6.969 -1.2207 -1.0096 -2.0987
 9951SOL    HW230424   6.387   3.057   7.009  0.1708 -0.2997  3.2035
 9952SOL     OW30425   4.272   0.730   3.087 -0.5341 -0.2400 -0.0346
 9952SOL    HW130426   4.267   0.643   3.047  2.2941 -0.6941  0.4124
 9952SOL    HW230427   4.272   0.790   3.013  1.1895 -0.8760 -0.5907
 9953SOL     OW30428   4.445   6.501   4.614 -0.2101 -0.0254  0.3980
 9953SOL    HW130429   4.375   6.441   4.589 -1.0917  0.7469  0.9536
 9953SOL    HW230430   4.467   6.548   4.533 -1.7007  1.0944  0.5983
 9954SOL     OW30431   2.934   5.167   3.962 -0.1491  0.0874  0.3491
 9954SOL    HW130432   2.862   5.105   3.968 -0.6386  0.6842  0.8388
 9954SOL    HW230433   2.953   5.189   4.054  1.3052 -0.7862  0.2967
 9955SOL     OW30434   4.513   4.457   1.436  0.3675 -0.1502  0.5130
 9955SOL    HW130435   4.510   4.393   1.507  0.8235  0.4844  1.1234
 9955SOL    HW230436   4.512   4.542   1.480 -1.6850  0.3073 -0.3366
 9956SOL     OW30437   0.809   0.135   3.061  0.6303  0.6170 -0.5263
 9956SOL    HW130438   0.846   0.107   2.977  0.7355  0.1232 -0.3200
 9956SOL    HW230439   0.715   0.138   3.046  0.3980 -2.0037  0.0369
 9957SOL     OW30440   4.575   3.090   5.124  0.0171 -0.1852  0.7308
 9957SOL    HW130441   4.555   3.080   5.217  0.0860 -1.4189  0.6276
 9957SOL    HW230442   4.668   3.115   5.123  0.2148 -0.8683  0.9836
 9958SOL     OW30443   1.808   7.423   6.928  0.5033  0.3558 -0.2889
 9958SOL    HW130444   1.730   7.392   6.881  0.8304 -0.7737 -0.1181
 9958SOL    HW230445   1.774   7.458   7.010 -0.1342  2.8004 -1.4772
 9959SOL     OW30446   7.427   3.501   0.254 -0.1552 -0.2808 -0.2761
 9959SOL    HW130447   7.331   3.505   0.247 -0.0868  1.6231 -0.6613
 9959SOL    HW230448   7.444   3.487   0.347 -0.7946 -1.4278 -0.3112
 9960SOL     OW30449   4.448   6.591   7.236 -0.5689 -0.2463  0.5799
 9960SOL    HW130450   4.424   6.548   7.154 -0.9809 -1.0260  1.1032
 9960SOL    HW230451   4.528   6.548   7.263 -0.6174 -0.2238  0.7603
 9961SOL     OW30452   1.857   1.337   2.634 -0.1642 -0.3153  0.0751
 9961SOL    HW130453   1.766   1.363   2.617 -0.0715  1.0839  1.4772
 9961SOL    HW230454   1.897   1.332   2.547 -1.3014  0.1484 -0.4982
 9962SOL     OW30455   1.663   4.955   3.452 -0.0667 -0.1771 -0.0623
 9962SOL    HW130456   1.685   4.868   3.483  0.4443 -0.6857 -1.7538
 9962SOL    HW230457   1.617   4.941   3.369  0.1987  1.1601 -0.4720
 9963SOL     OW30458   0.942   5.952   4.873  0.3094 -0.4180 -0.2676
 9963SOL    HW130459   1.030   5.915   4.876  0.4771  0.0006  0.0683
 9963SOL    HW230460   0.943   6.011   4.797  1.4088  2.2273  1.6232
 9964SOL     OW30461   0.989   4.453   4.385 -0.1021 -0.2394 -0.1319
 9964SOL    HW130462   0.939   4.388   4.336  2.1667 -3.0475  1.0039
 9964SOL    HW230463   0.966   4.437   4.476  0.6688  0.4374  0.1941
 9965SOL     OW30464   4.129   3.474   6.607  0.1398 -0.5254 -0.8930
 9965SOL    HW130465   4.206   3.527   6.584  0.4748 -0.7355 -0.2834
 9965SOL    HW230466   4.158   3.383   6.596 -0.0380 -0.6050 -0.7109
 9966SOL     OW30467   3.486   4.589   1.374 -0.1214  0.1262 -0.0228
 9966SOL    HW130468   3.537   4.633   1.307  1.7035 -1.0452  0.5251
 9966SOL    HW230469   3.467   4.503   1.336 -0.0139 -0.1427  0.5207
 9967SOL     OW30470   1.523   2.961   1.130  0.0198 -0.6637 -0.1581
 9967SOL    HW130471   1.595   2.975   1.191 -0.5227  0.3396  0.2816
 9967SOL    HW230472   1.558   2.990   1.045  0.3067 -0.6719 -0.0429
 9968SOL     OW30473   4.999   2.711   3.306 -0.1686 -0.5503 -0.7135
 9968SOL    HW130474   5.072   2.704   3.245 -0.9238  1.0021 -1.8463
 9968SOL    HW230475   5.039   2.742   3.387  0.6571 -1.3923 -0.7774
 9969SOL     OW30476   3.041   4.588   1.175  0.0356  0.6377  0.2150
 9969SOL    HW130477   3.077   4.611   1.089  0.5043 -1.0758 -0.0857
 9969SOL    HW230478   3.105   4.527   1.211 -1.1786 -0.2657  0.8987
 9970SOL     OW30479   4.354   1.915   4.812  0.3937 -0.8353  0.5968
 9970SOL    HW130480   4.387   1.958   4.890  1.7023  1.4553 -1.1051
 9970SOL    HW230481   4.424   1.854   4.786  0.6526 -0.4458  0.3673
 9971SOL     OW30482   0.447   0.073   4.933  0.6372 -0.2379  0.7089
 9971SOL    HW130483   0.459   0.127   5.011  0.8360 -0.8453  1.1094
 9971SOL    HW230484   0.407  -0.008   4.966 -0.0551 -0.1705  0.0619
 9972SOL     OW30485   6.623   1.402   1.899  0.6249  0.4400  0.5254
 9972SOL    HW130486   6.612   1.497   1.887 -0.9127  0.4266  1.5302
 9972SOL    HW230487   6.713   1.393   1.931  0.7952  1.5477  0.4318
 9973SOL     OW30488   2.836   2.180   0.555 -0.0015 -0.4743 -0.2481
 9973SOL    HW130489   2.791   2.263   0.569 -1.8596 -1.4890  0.0418
 9973SOL    HW230490   2.902   2.200   0.488 -1.0475  1.0021 -0.8861
 9974SOL     OW30491   7.372   5.409   3.437  0.0894  0.7941 -0.0330
 9974SOL    HW130492   7.359   5.503   3.430  1.1666  1.0179  0.6407
 9974SOL    HW230493   7.287   5.374   3.462 -0.0695  1.7224  0.7652
 9975SOL     OW30494   4.919   5.823   6.130  0.4174 -0.1240 -0.1599
 9975SOL    HW130495   4.980   5.773   6.075 -0.0252  0.1176 -0.8802
 9975SOL    HW230496   4.942   5.798   6.220  0.5314 -1.2465 -0.4857
 9976SOL     OW30497   0.084   1.394   0.348 -0.5787  0.0820 -0.5078
 9976SOL    HW130498   0.004   1.344   0.330 -1.0017  0.4771  0.2556
 9976SOL    HW230499   0.153   1.328   0.354 -0.4500 -0.1385 -3.1186
 9977SOL     OW30500   4.461   0.344   2.458 -0.8075  0.2329  0.3086
 9977SOL    HW130501   4.426   0.408   2.396 -1.3355 -0.4570 -0.1263
 9977SOL    HW230502   4.401   0.347   2.532 -1.3651 -0.3782 -0.0967
 9978SOL     OW30503   0.049   6.051   1.599 -0.0006  0.6878 -0.0654
 9978SOL    HW130504  -0.047   6.048   1.594 -0.0021  0.8942 -0.1656
 9978SOL    HW230505   0.068   6.053   1.693 -0.1313  1.6539 -0.0499
 9979SOL     OW30506   5.513   0.819   1.174 -0.7762 -0.0849  0.3962
 9979SOL    HW130507   5.477   0.751   1.117  0.0002  0.6701 -1.0528
 9979SOL    HW230508   5.599   0.787   1.199  0.3927  1.1027 -1.8178
 9980SOL     OW30509   4.081   6.938   6.446 -0.0154 -0.2303 -0.4189
 9980SOL    HW130510   4.145   6.907   6.509 -1.3234  0.1040  1.1577
 9980SOL    HW230511   4.001   6.888   6.466 -1.2518  1.8188  0.0869
 9981SOL     OW30512   3.647   3.905   4.279 -0.1133 -0.1601 -0.5402
 9981SOL    HW130513   3.624   3.812   4.282 -0.5438 -0.0530 -0.3705
 9981SOL    HW230514   3.739   3.908   4.304  0.1638 -0.6285 -1.4522
 9982SOL     OW30515   4.330   6.023   6.618 -0.0470  0.7421  0.6765
 9982SOL    HW130516   4.342   5.987   6.706  1.5698  0.9588  0.5850
 9982SOL    HW230517   4.338   5.947   6.561  1.9406  0.9719  0.5709
 9983SOL     OW30518   7.096   6.301   4.726  0.1341  0.2529  0.0530
 9983SOL    HW130519   7.147   6.375   4.761 -0.0908  1.0463 -1.2412
 9983SOL    HW230520   7.006   6.334   4.722 -0.2367 -0.6221  0.8770
 9984SOL     OW30521   4.707   3.577   1.024  0.6681  0.3654 -0.4168
 9984SOL    HW130522   4.664   3.662   1.032  0.8247  0.2629  2.6279
 9984SOL    HW230523   4.763   3.585   0.946  0.2652  2.8308 -0.5230
 9985SOL     OW30524   1.751   2.644   0.859 -0.5589  0.0664 -0.2748
 9985SOL    HW130525   1.842   2.655   0.885  0.0181 -0.2459 -2.0406
 9985SOL    HW230526   1.727   2.729   0.823 -0.3537 -0.3941 -1.5354
 9986SOL     OW30527   5.150   4.052   1.457 -1.0320  0.4890  0.4320
 9986SOL    HW130528   5.103   3.970   1.468 -0.0570 -0.1955 -0.3284
 9986SOL    HW230529   5.139   4.097   1.541  1.4977 -2.0560  2.3143
 9987SOL     OW30530   2.639   1.527   4.578  0.0919 -0.1715 -0.2959
 9987SOL    HW130531   2.608   1.515   4.488  2.5318 -3.1044 -0.8965
 9987SOL    HW230532   2.728   1.562   4.568 -0.1004  0.8157  1.0883
 9988SOL     OW30533   3.079   1.930   0.563 -0.4478  0.1255  0.1154
 9988SOL    HW130534   2.996   1.897   0.530 -0.5072  0.5010 -0.1261
 9988SOL    HW230535   3.077   1.914   0.657 -0.3989 -0.7024 -0.0220
 9989SOL     OW30536   3.210   4.926   3.865  0.3087  0.1082 -0.3365
 9989SOL    HW130537   3.194   4.892   3.953  0.4950 -0.7885 -0.6358
 9989SOL    HW230538   3.242   5.015   3.879  0.2021  0.0250  0.4913
 9990SOL     OW30539   6.184   7.235   4.644 -0.4416  0.6956 -0.3331
 9990SOL    HW130540   6.269   7.192   4.639 -1.2551 -0.8991 -1.2682
 9990SOL    HW230541   6.144   7.201   4.724 -0.1765  1.5393  0.1732
 9991SOL     OW30542   5.365   4.408   3.068 -0.8525  0.1361 -0.2680
 9991SOL    HW130543   5.331   4.494   3.044 -1.7436 -0.0157  0.4122
 9991SOL    HW230544   5.397   4.419   3.158  1.4863  0.4278 -1.0599
 9992SOL     OW30545   3.561   4.851   4.544 -0.3910  0.5069 -0.3259
 9992SOL    HW130546   3.652   4.821   4.541 -0.6348 -0.3269  0.0334
 9992SOL    HW230547   3.563   4.941   4.513  0.4827  0.3225 -0.8258
 9993SOL     OW30548   6.568   2.848   0.465 -0.2650  0.0467 -0.1080
 9993SOL    HW130549   6.571   2.886   0.378 -0.1936  1.1314  0.3496
 9993SOL    HW230550   6.490   2.793   0.465  0.0601 -0.4281 -1.0341
 9994SOL     OW30551   4.700   2.338   3.662  0.1233 -0.0715  0.5290
 9994SOL    HW130552   4.738   2.401   3.723  2.8364  0.1093 -1.1615
 9994SOL    HW230553   4.640   2.391   3.608  1.2783  0.7970  0.0565
 9995SOL     OW30554   6.958   5.263   1.070 -0.2983  0.1830 -0.4317
 9995SOL    HW130555   6.916   5.218   1.143 -0.0976  1.0540  0.2410
 9995SOL    HW230556   6.889   5.271   1.004 -0.6310 -0.1546 -0.1292
 9996SOL     OW30557   1.121   5.533   1.056 -0.3003  0.4072 -0.2703
 9996SOL    HW130558   1.199   5.523   1.002  0.5633  0.8978  0.8634
 9996SOL    HW230559   1.074   5.607   1.017  0.4685  0.9478 -0.1882
 9997SOL     OW30560   4.599   6.063   4.752  0.1595 -0.1217  0.9186
 9997SOL    HW130561   4.679   6.013   4.734  0.9151  1.4816 -0.4085
 9997SOL    HW230562   4.627   6.155   4.750 -2.1398  0.6730 -2.2913
 9998SOL     OW30563   3.869   3.529   6.022 -0.0766 -0.3005 -0.1189
 9998SOL    HW130564   3.816   3.604   5.996 -0.7589 -0.8304 -0.2804
 9998SOL    HW230565   3.839   3.507   6.110  0.0358 -0.4529 -0.1175
 9999SOL     OW30566   6.183   4.681   6.220  0.3683  0.3076 -0.4580
 9999SOL    HW130567   6.093   4.660   6.195 -0.2785 -0.7977  2.4051
 9999SOL    HW230568   6.192   4.774   6.200 -1.7240  0.6563  0.0112
10000SOL     OW30569   4.766   0.892   7.024  0.4746  0.1268  0.0169
10000SOL    HW130570   4.751   0.846   7.106 -1.3490  2.1752  0.9145
10000SOL    HW230571   4.856   0.870   7.001  0.8475 -0.9752  2.2406
10001SOL     OW30572   4.338   5.719   0.078  0.0901  0.3887  0.0332
10001SOL    HW130573   4.256   5.709   0.126 -0.7990 -0.0584 -1.5158
10001SOL    HW230574   4.397   5.761   0.141 -0.5585 -1.4133  1.9908
10002SOL     OW30575   1.632   5.900   7.138  0.0576  0.2295  0.4438
10002SOL    HW130576   1.617   5.969   7.203  0.3767  0.2942  0.4539
10002SOL    HW230577   1.545   5.879   7.105  0.1102  2.1887 -1.1411
10003SOL     OW30578   5.802   2.280   0.521 -0.2548 -0.4306 -0.0274
10003SOL    HW130579   5.715   2.306   0.551 -0.4364  2.6648 -2.7258
10003SOL    HW230580   5.788   2.247   0.432  1.2754 -0.1690 -0.3955
10004SOL     OW30581   3.271   3.776   6.523  0.3917  0.3479  0.3872
10004SOL    HW130582   3.215   3.776   6.601  1.3933 -1.8767  1.2021
10004SOL    HW230583   3.355   3.811   6.554  0.6236 -0.0133  0.1764
10005SOL     OW30584   3.969   0.164   0.622  0.0854 -0.2540  0.2312
10005SOL    HW130585   4.020   0.180   0.701 -1.1356 -2.6745  1.5931
10005SOL    HW230586   4.013   0.091   0.579 -1.7937 -2.0138  1.1416
10006SOL     OW30587   3.760   1.260   2.086 -0.2074 -0.0717 -0.4199
10006SOL    HW130588   3.715   1.301   2.159  0.3245 -0.7217  0.2968
10006SOL    HW230589   3.708   1.283   2.009 -1.4515 -0.3612  0.3094
10007SOL     OW30590   0.205   5.501   2.278 -0.1759 -0.4577 -0.0562
10007SOL    HW130591   0.146   5.559   2.231  0.5503 -0.5802 -1.1467
10007SOL    HW230592   0.292   5.539   2.265  0.2322 -1.4345 -0.2706
10008SOL     OW30593   0.424   0.937   1.059  0.5380 -0.4186  0.2801
10008SOL    HW130594   0.374   0.986   1.125 -0.2108  0.4336 -0.8776
10008SOL    HW230595   0.513   0.970   1.066  0.1485  0.7722 -0.1309
10009SOL     OW30596   1.814   3.300   6.745  0.1578 -0.0812  0.2381
10009SOL    HW130597   1.772   3.319   6.829  0.2665 -0.1672  0.3117
10009SOL    HW230598   1.745   3.262   6.692  0.0574  0.0867  0.2480
10010SOL     OW30599   2.503   1.874   2.322 -0.5985  0.3026 -0.6749
10010SOL    HW130600   2.585   1.834   2.352 -0.9275 -0.1713 -0.3792
10010SOL    HW230601   2.435   1.827   2.371 -1.0000  1.2441 -0.3170
10011SOL     OW30602   6.017   2.594   1.665 -0.0397 -0.2326  0.1165
10011SOL    HW130603   6.031   2.683   1.697  1.1521 -0.3323 -0.0918
10011SOL    HW230604   5.927   2.595   1.630 -0.3191  0.6576  0.8215
10012SOL     OW30605   0.277   5.651   5.909  0.5164  0.5830 -0.3527
10012SOL    HW130606   0.206   5.655   5.844  1.2971  0.8370 -1.2157
10012SOL    HW230607   0.340   5.589   5.872  1.3285  1.3022 -0.2118
10013SOL     OW30608   4.182   2.918   2.473  0.0570 -0.0602  0.1188
10013SOL    HW130609   4.156   2.892   2.385 -0.7799 -0.5822  0.5053
10013SOL    HW230610   4.170   3.013   2.474  2.6532  0.3614 -1.1429
10014SOL     OW30611   1.259   4.171   1.940 -0.5700  0.6317 -0.0020
10014SOL    HW130612   1.233   4.263   1.944 -1.5451  0.3224  2.1232
10014SOL    HW230613   1.224   4.140   1.857  1.0960  2.4960 -1.5202
10015SOL     OW30614   0.682   3.920   6.924 -0.1807 -0.3937 -0.3458
10015SOL    HW130615   0.692   3.946   7.016  1.2709 -0.0317 -0.5860
10015SOL    HW230616   0.589   3.936   6.905 -0.1809  0.9863  0.6214
10016SOL     OW30617   1.809   1.348   1.334 -0.2241  0.1516 -0.1213
10016SOL    HW130618   1.753   1.301   1.272 -0.1495  1.8721 -1.5648
10016SOL    HW230619   1.865   1.402   1.279  1.7060 -0.2321  1.3609
10017SOL     OW30620   5.414   6.631   5.397 -0.1584 -0.0405  0.1475
10017SOL    HW130621   5.428   6.681   5.316  2.1160  1.3580  1.2823
10017SOL    HW230622   5.338   6.673   5.438  0.3210  1.0232 -0.0138
10018SOL     OW30623   2.379   2.375   5.593 -0.3515  0.2136 -0.0294
10018SOL    HW130624   2.302   2.377   5.650 -0.4391  1.0503 -0.1646
10018SOL    HW230625   2.449   2.416   5.645 -0.5960  1.5753 -0.7297
10019SOL     OW30626   2.798   4.234   2.769  0.6889  0.2353  0.4791
10019SOL    HW130627   2.857   4.160   2.761 -0.8061 -0.9677 -0.0714
10019SOL    HW230628   2.835   4.301   2.710  2.3442  0.1702  1.3941
10020SOL     OW30629   3.762   0.923   6.405 -0.0567  0.2111  0.0087
10020SOL    HW130630   3.686   0.967   6.444  0.8135  0.8346  1.0768
10020SOL    HW230631   3.744   0.922   6.311 -0.8478  1.4117  0.1205
10021SOL     OW30632   0.241   1.453   3.024  0.6961 -0.6436 -0.2665
10021SOL    HW130633   0.213   1.471   3.113  1.3643  1.0331 -0.3519
10021SOL    HW230634   0.258   1.359   3.022 -0.7910 -0.9677  0.9257
10022SOL     OW30635   1.721   4.628   3.065 -0.0513 -0.5284 -0.4114
10022SOL    HW130636   1.769   4.547   3.050 -2.6417 -2.0003 -1.5113
10022SOL    HW230637   1.712   4.667   2.978 -1.3814 -0.6793 -0.3699
10023SOL     OW30638   5.678   1.650   1.349  0.2115 -0.6043 -0.5853
10023SOL    HW130639   5.731   1.719   1.390  0.7798 -0.6533 -1.2278
10023SOL    HW230640   5.742   1.593   1.308 -0.3000 -1.1703 -0.5980
10024SOL     OW30641   2.003   1.144   0.578  0.1744  0.7279  0.0342
10024SOL    HW130642   2.035   1.183   0.496 -0.8432  0.9771 -0.2615
10024SOL    HW230643   2.027   1.051   0.571 -0.7235  0.5517 -0.9938
10025SOL     OW30644   4.025   0.085   1.081  0.3771 -0.1518  0.4958
10025SOL    HW130645   4.012  -0.008   1.097 -2.0084 -0.3352 -1.8235
10025SOL    HW230646   4.088   0.113   1.147  0.4268 -3.1875  1.8530
10026SOL     OW30647   3.588   1.748   0.361  0.0884 -0.0186  0.0026
10026SOL    HW130648   3.532   1.786   0.429 -0.9088 -1.2073 -0.1300
10026SOL    HW230649   3.614   1.663   0.396  0.8401  0.0100 -0.4599
10027SOL     OW30650   3.588   2.864   1.359 -0.4734 -0.3764 -0.0302
10027SOL    HW130651   3.629   2.882   1.274 -0.5808  0.7994  0.1440
10027SOL    HW230652   3.499   2.899   1.351  0.2720  2.1047  1.3338
10028SOL     OW30653   6.867   3.853   5.771 -0.3767  0.5948 -0.5849
10028SOL    HW130654   6.902   3.797   5.840 -0.8557  1.2946  0.2446
10028SOL    HW230655   6.943   3.900   5.737 -0.3385  1.3071  0.4612
10029SOL     OW30656   3.864   0.329   6.207  0.2780  0.2559 -0.1008
10029SOL    HW130657   3.884   0.294   6.294 -0.4805 -1.7501 -0.6625
10029SOL    HW230658   3.913   0.411   6.201  1.2025 -0.1162  1.7911
10030SOL     OW30659   3.997   7.226   0.096 -0.0046  0.3151 -0.3795
10030SOL    HW130660   4.035   7.141   0.071  2.4019  1.3734 -0.6867
10030SOL    HW230661   3.952   7.210   0.178 -0.8249 -1.5285 -1.1409
10031SOL     OW30662   0.137   3.422   2.189  0.2373 -0.1608 -0.4385
10031SOL    HW130663   0.048   3.423   2.155 -0.2215  0.4845  0.7150
10031SOL    HW230664   0.138   3.353   2.254  0.9686 -1.0554 -1.3605
10032SOL     OW30665   5.840   2.038   4.797 -0.1531 -0.2694 -0.0754
10032SOL    HW130666   5.752   2.055   4.765  0.5668 -0.4092 -2.2519
10032SOL    HW230667   5.841   1.944   4.816 -0.0139 -0.5950 -1.6211
10033SOL     OW30668   3.847   6.930   3.704  0.0636  0.6105 -0.3155
10033SOL    HW130669   3.910   6.939   3.775 -0.5251 -4.4990  1.2664
10033SOL    HW230670   3.898   6.943   3.625  2.3794 -0.0350  0.9874
10034SOL     OW30671   6.483   3.925   0.360 -0.1163 -0.8495 -0.1006
10034SOL    HW130672   6.542   3.999   0.373 -0.2947 -0.9992  2.0320
10034SOL    HW230673   6.462   3.926   0.267 -0.6956  2.2322 -0.0513
10035SOL     OW30674   6.438   0.973   0.481  0.0351  0.1415  0.4964
10035SOL    HW130675   6.418   1.064   0.459 -0.6895 -0.5657 -2.3293
10035SOL    HW230676   6.531   0.963   0.460 -0.0780  0.0638  0.0095
10036SOL     OW30677   7.077   5.317   4.388 -0.5882 -0.5141 -0.2369
10036SOL    HW130678   6.987   5.309   4.355 -1.1795 -0.9279  1.3537
10036SOL    HW230679   7.076   5.269   4.471  0.7855  0.5062  0.4168
10037SOL     OW30680   1.281   4.636   4.797 -0.0043 -0.3633  0.0653
10037SOL    HW130681   1.283   4.727   4.768  0.9982  0.0619  1.3581
10037SOL    HW230682   1.243   4.640   4.885 -0.6862 -1.3009 -0.1680
10038SOL     OW30683   6.255   4.304   3.393  0.4092 -0.1239  0.5568
10038SOL    HW130684   6.259   4.387   3.440 -0.3861  1.5509 -2.1358
10038SOL    HW230685   6.312   4.245   3.443  0.4351  1.7935  2.9447
10039SOL     OW30686   6.052   1.716   3.431  0.2933  0.2052 -0.3654
10039SOL    HW130687   5.971   1.752   3.468 -0.0396 -0.7174 -0.1480
10039SOL    HW230688   6.036   1.621   3.429  1.5289 -0.0236  0.0548
10040SOL     OW30689   1.279   6.960   0.745  0.2047  0.2290  0.0648
10040SOL    HW130690   1.328   6.988   0.823  0.3771 -0.1566  0.0982
10040SOL    HW230691   1.299   7.026   0.679  0.9507 -0.0358  0.0090
10041SOL     OW30692   1.663   5.281   0.627 -0.2125  0.4210  0.1700
10041SOL    HW130693   1.593   5.296   0.691 -0.2170  0.9008  0.0559
10041SOL    HW230694   1.726   5.352   0.644 -0.8246  1.3230 -1.2029
10042SOL     OW30695   4.513   4.257   3.421  0.1157  0.3181 -0.4056
10042SOL    HW130696   4.517   4.346   3.386 -0.3060  0.9506  1.0581
10042SOL    HW230697   4.442   4.260   3.485 -1.0263 -1.5429 -1.5211
10043SOL     OW30698   6.471   3.106   1.731 -0.1648  0.3134  0.3989
10043SOL    HW130699   6.502   3.103   1.822 -0.5101  1.5133  0.5783
10043SOL    HW230700   6.492   3.020   1.695  1.0809  0.2355  1.2554
10044SOL     OW30701   3.001   7.152   0.123 -0.5863 -0.0037 -0.6107
10044SOL    HW130702   2.965   7.180   0.207  0.8134  0.9096 -0.2863
10044SOL    HW230703   3.079   7.101   0.146 -1.0045 -1.0125 -1.3300
10045SOL     OW30704   5.997   4.968   0.938 -0.0088 -0.0246 -0.1389
10045SOL    HW130705   6.046   5.018   0.873  2.0179  1.3256  2.2025
10045SOL    HW230706   6.035   4.880   0.933 -1.1016 -0.4318 -1.8898
10046SOL     OW30707   2.871   4.077   0.251  0.5068 -0.3387 -0.1193
10046SOL    HW130708   2.963   4.090   0.230 -0.7075  4.1710 -4.4575
10046SOL    HW230709   2.835   4.029   0.176 -1.2546  1.3377 -0.4308
10047SOL     OW30710   0.960   6.214   1.689 -0.6534 -0.5117  0.9748
10047SOL    HW130711   0.913   6.233   1.608  0.7455  0.5650  0.3795
10047SOL    HW230712   1.048   6.188   1.661 -0.2525 -0.4690  2.1346
10048SOL     OW30713   1.032   0.440   4.668  0.0737  0.0681 -0.1920
10048SOL    HW130714   1.061   0.353   4.642  0.6711  0.1080  0.3259
10048SOL    HW230715   1.111   0.484   4.697 -0.3706  0.4643  0.4490
10049SOL     OW30716   1.159   5.032   1.364  0.0286 -0.4183 -0.0271
10049SOL    HW130717   1.214   5.106   1.338 -2.3066  0.9943 -1.3642
10049SOL    HW230718   1.197   4.957   1.319  0.2268  0.7431 -1.9331
10050SOL     OW30719   0.226   6.215   6.329 -0.3695  0.1785  0.2176
10050SOL    HW130720   0.269   6.289   6.371  0.4540  0.4088 -0.9608
10050SOL    HW230721   0.162   6.184   6.393 -0.3997  1.6061  0.9054
10051SOL     OW30722   6.712   5.938   2.183 -0.4919  0.3855  0.0554
10051SOL    HW130723   6.627   5.906   2.214  0.4469 -0.2810  2.1522
10051SOL    HW230724   6.721   5.901   2.096 -1.2229 -1.8031  0.8305
10052SOL     OW30725   0.343   3.141   1.405 -0.6635 -0.3018  0.4451
10052SOL    HW130726   0.280   3.072   1.385 -1.5588  0.8762 -0.9896
10052SOL    HW230727   0.290   3.217   1.430  0.3158 -0.1837  2.3943
10053SOL     OW30728   3.318   2.641   2.887  0.4537 -0.6470  0.4214
10053SOL    HW130729   3.398   2.594   2.861  0.2987 -0.9295  0.4512
10053SOL    HW230730   3.270   2.652   2.805  0.1663 -1.1580  0.5130
10054SOL     OW30731   6.139   2.932   0.421  0.3700 -0.1997 -1.0778
10054SOL    HW130732   6.144   2.972   0.508 -3.3653  0.2043 -0.8709
10054SOL    HW230733   6.179   2.997   0.363  2.3277 -0.1791  0.1941
10055SOL     OW30734   4.589   3.517   3.829 -0.3331  0.1460 -0.3469
10055SOL    HW130735   4.684   3.508   3.838 -0.3693  0.6653  0.7153
10055SOL    HW230736   4.566   3.589   3.887 -1.4472 -0.3418 -0.1562
10056SOL     OW30737   1.095   1.397   2.274 -0.0789 -0.4826  0.0123
10056SOL    HW130738   1.080   1.323   2.333 -1.2529  0.2938  0.7437
10056SOL    HW230739   1.189   1.413   2.278 -0.0427 -0.9161  1.0879
10057SOL     OW30740   5.716   7.400   6.577 -0.2297 -0.2687 -0.3808
10057SOL    HW130741   5.717   7.349   6.658  1.6370 -1.6844 -1.2172
10057SOL    HW230742   5.784   7.466   6.590 -0.0888 -0.3510 -0.7052
10058SOL     OW30743   5.219   5.228   4.872 -0.4017  0.0140 -0.4380
10058SOL    HW130744   5.310   5.215   4.845  0.0329  0.7633  0.6105
10058SOL    HW230745   5.217   5.316   4.910 -0.5073 -1.4696  3.4784
10059SOL     OW30746   2.704   0.830   0.819  0.0729 -0.1460  0.1459
10059SOL    HW130747   2.723   0.740   0.791  0.1135  0.2546 -1.1527
10059SOL    HW230748   2.698   0.880   0.738 -1.6006  0.7131  0.7596
10060SOL     OW30749   6.568   1.934   0.671  0.6648 -0.2471  0.0362
10060SOL    HW130750   6.566   1.936   0.575 -1.2288 -0.3483  0.0440
10060SOL    HW230751   6.579   1.841   0.692 -2.3112 -0.7204 -0.1258
10061SOL     OW30752   5.035   6.195   0.342 -0.0973 -0.0277 -0.5540
10061SOL    HW130753   4.971   6.144   0.391 -1.1360  0.7363 -1.0872
10061SOL    HW230754   5.110   6.136   0.332 -1.7148 -1.9349 -2.2369
10062SOL     OW30755   6.331   5.354   1.155 -0.0362  0.1983 -0.5409
10062SOL    HW130756   6.353   5.417   1.224  1.2732  0.1142 -0.8697
10062SOL    HW230757   6.256   5.306   1.190  0.4762  0.3022  0.7310
10063SOL     OW30758   1.470   5.415   6.589 -1.1495  0.2536  0.2713
10063SOL    HW130759   1.451   5.440   6.498 -0.5761  1.4263  0.4587
10063SOL    HW230760   1.489   5.321   6.584 -1.0779  0.3124 -0.8362
10064SOL     OW30761   1.897   3.594   1.059  0.2340 -0.1936 -0.1708
10064SOL    HW130762   1.805   3.618   1.066  0.7637  1.4783  2.3045
10064SOL    HW230763   1.936   3.661   1.004  0.3917  0.5898  0.8627
10065SOL     OW30764   5.821   3.480   6.767  0.0444 -0.0393  0.6884
10065SOL    HW130765   5.825   3.455   6.860  0.1791  1.2350  1.0485
10065SOL    HW230766   5.887   3.549   6.758  1.0642 -1.1438 -0.7126
10066SOL     OW30767   6.239   5.589   6.809  0.1159  0.3093 -0.2093
10066SOL    HW130768   6.321   5.548   6.783 -0.0995  0.2804 -0.8543
10066SOL    HW230769   6.221   5.653   6.740 -0.9143 -0.3800 -0.6065
10067SOL     OW30770   5.052   4.275   4.962 -0.3450  0.0248 -0.0599
10067SOL    HW130771   5.034   4.216   5.035  1.1198  1.1556  1.2911
10067SOL    HW230772   5.064   4.217   4.887 -2.3731 -1.1432  0.4447
10068SOL     OW30773   5.044   5.304   6.807 -0.5033  0.0713  0.5306
10068SOL    HW130774   5.077   5.319   6.718  0.7327  0.9650  1.1090
10068SOL    HW230775   5.117   5.263   6.853 -1.3079 -0.8597  1.0075
10069SOL     OW30776   1.240   5.991   1.072 -0.1402 -0.2767 -0.2015
10069SOL    HW130777   1.324   6.026   1.101  0.6726 -2.4907  0.3569
10069SOL    HW230778   1.179   6.064   1.077  1.9326  1.6744 -1.5616
10070SOL     OW30779   0.209   1.154   0.428  0.2601  0.0293 -0.6696
10070SOL    HW130780   0.240   1.078   0.380  1.1854  0.9528 -1.5847
10070SOL    HW230781   0.163   1.118   0.504  4.0184 -1.4903  1.1314
10071SOL     OW30782   0.533   2.918   6.262 -0.3371  0.4021  0.5215
10071SOL    HW130783   0.616   2.932   6.217 -0.6653 -1.4637 -0.7889
10071SOL    HW230784   0.491   3.004   6.262  1.4591  1.3316  1.0183
10072SOL     OW30785   3.714   0.440   0.881 -0.4676  0.0065 -0.6197
10072SOL    HW130786   3.738   0.399   0.964 -1.0236  0.3463 -0.2883
10072SOL    HW230787   3.625   0.411   0.864 -0.7296  0.7684 -0.5747
10073SOL     OW30788   1.602   2.237   1.072 -0.1517 -0.1482 -0.3711
10073SOL    HW130789   1.603   2.242   0.977 -2.2996  0.8180 -0.3939
10073SOL    HW230790   1.644   2.318   1.101 -1.4084  0.5880 -0.5416
10074SOL     OW30791   2.180   0.391   3.729  0.4542  0.1141 -0.4326
10074SOL    HW130792   2.168   0.472   3.778  0.3985 -0.5459  0.6770
10074SOL    HW230793   2.272   0.368   3.742  0.1597 -0.6708  0.3472
10075SOL     OW30794   7.325   1.733   1.229  0.0163  0.1222 -0.0302
10075SOL    HW130795   7.243   1.702   1.268 -0.3960 -0.3173 -1.1871
10075SOL    HW230796   7.298   1.778   1.148  0.8751  0.4755 -0.1339
10076SOL     OW30797   1.210   0.150   7.378  0.1344 -0.2687  0.0361
10076SOL    HW130798   1.268   0.173   7.305 -0.2305  1.9518  0.3774
10076SOL    HW230799   1.122   0.158   7.343 -0.1446  3.0344  1.1831
10077SOL     OW30800   6.166   2.010   5.033 -0.4145 -0.1035  0.3940
10077SOL    HW130801   6.108   2.079   4.999 -1.5959 -0.7135  1.1089
10077SOL    HW230802   6.212   2.052   5.106 -0.7514  0.0852  0.5001
10078SOL     OW30803   7.151   4.059   3.149  0.0368  0.0244 -0.2276
10078SOL    HW130804   7.193   4.141   3.123 -0.6983  1.0036  1.5220
10078SOL    HW230805   7.207   4.025   3.219  0.8549 -1.5080 -1.5446
10079SOL     OW30806   4.878   0.673   0.905  0.5645  0.4747  0.3152
10079SOL    HW130807   4.816   0.620   0.956  0.7253 -1.3624 -1.2852
10079SOL    HW230808   4.831   0.755   0.889 -1.4564 -0.7763 -0.6654
10080SOL     OW30809   6.721   2.434   1.523  0.2956  0.3875  0.3782
10080SOL    HW130810   6.702   2.354   1.474  0.7642 -0.3544  1.3526
10080SOL    HW230811   6.675   2.422   1.606  0.0359  1.3199  0.3743
10081SOL     OW30812   6.204   4.313   6.362 -0.4236  0.0099 -0.5939
10081SOL    HW130813   6.253   4.395   6.364 -0.0925 -0.1464 -1.4776
10081SOL    HW230814   6.250   4.256   6.423 -0.5673  0.4334 -0.0885
10082SOL     OW30815   1.050   6.554   4.950 -0.7738 -0.5851 -0.1217
10082SOL    HW130816   0.989   6.565   4.878 -0.4307  0.3849 -0.2815
10082SOL    HW230817   1.128   6.603   4.924  0.7809 -3.1803 -0.6879
10083SOL     OW30818   6.172   6.269   6.754 -0.4461  0.5699  0.2821
10083SOL    HW130819   6.193   6.306   6.840  1.9614  0.7587 -0.3138
10083SOL    HW230820   6.177   6.175   6.767 -0.4702  0.5860  0.4161
10084SOL     OW30821   2.668   5.991   5.499  0.2369 -0.0520 -0.7289
10084SOL    HW130822   2.614   6.003   5.421 -2.2169 -1.2272  0.6559
10084SOL    HW230823   2.693   6.080   5.525 -0.1114  0.4463 -2.0312
10085SOL     OW30824   5.709   0.492   5.165  0.5146 -0.0482  0.5257
10085SOL    HW130825   5.775   0.546   5.209  0.6523 -0.9723  1.5156
10085SOL    HW230826   5.667   0.551   5.102  0.6888  1.1969  1.5271
10086SOL     OW30827   0.883   0.549   1.643 -0.6371 -0.0226 -0.1830
10086SOL    HW130828   0.944   0.619   1.668 -0.9407  0.7528 -1.4915
10086SOL    HW230829   0.802   0.595   1.622 -1.7093 -1.0489  1.5587
10087SOL     OW30830   5.177   1.082   4.883 -0.3760  0.8117 -0.4019
10087SOL    HW130831   5.223   1.045   4.808 -0.8524 -0.0182 -0.3013
10087SOL    HW230832   5.247   1.112   4.942  0.0174  0.3377 -0.6214
10088SOL     OW30833   1.118   3.616   5.598  0.1707 -0.2141 -0.0571
10088SOL    HW130834   1.044   3.558   5.617 -0.2155  0.2054 -0.2498
10088SOL    HW230835   1.195   3.559   5.598 -0.1664 -0.6696  0.0590
10089SOL     OW30836   5.652   4.674   1.223  0.5167  0.3165  0.6469
10089SOL    HW130837   5.580   4.737   1.214  1.6628  1.4305 -1.2532
10089SOL    HW230838   5.677   4.680   1.315 -0.3416  1.5643  0.8293
10090SOL     OW30839   1.341   1.759   7.345 -0.0413 -1.0711 -0.1999
10090SOL    HW130840   1.409   1.767   7.412  0.1918  1.0878 -0.6117
10090SOL    HW230841   1.374   1.695   7.283  1.0000 -1.0524  0.3245
10091SOL     OW30842   3.128   6.119   4.662 -0.1263 -0.4180 -0.3781
10091SOL    HW130843   3.126   6.203   4.708  0.0783  0.0768 -1.2354
10091SOL    HW230844   3.056   6.069   4.700 -0.0279  0.0162  0.3876
10092SOL     OW30845   6.739   5.122   1.860 -0.1082 -0.8560  0.0570
10092SOL    HW130846   6.827   5.085   1.871  0.0070 -0.7413 -0.4343
10092SOL    HW230847   6.700   5.069   1.790 -0.7436 -1.4564  0.8473
10093SOL     OW30848   4.140   2.674   1.063 -0.7160 -0.0891 -0.2645
10093SOL    HW130849   4.168   2.651   0.974 -0.5709  2.1700 -0.8557
10093SOL    HW230850   4.137   2.769   1.063  0.7117  0.0426  2.6018
10094SOL     OW30851   4.966   3.568   6.889 -0.2784 -0.2269 -0.0939
10094SOL    HW130852   5.060   3.573   6.906 -0.1272  3.2568 -1.1259
10094SOL    HW230853   4.943   3.477   6.904  3.1171 -1.0397  0.8913
10095SOL     OW30854   0.966   5.395   1.246 -0.3140  0.2097  0.2371
10095SOL    HW130855   0.894   5.425   1.190  0.1857  0.7087 -0.1424
10095SOL    HW230856   1.045   5.431   1.207  0.4025 -2.0256 -0.5684
10096SOL     OW30857   6.687   0.823   1.625  0.2562 -0.1049 -0.3915
10096SOL    HW130858   6.649   0.905   1.595  0.0290  0.5397  1.4908
10096SOL    HW230859   6.618   0.758   1.611  0.3578  0.0562 -1.6916
10097SOL     OW30860   3.271   4.041   3.859  0.2937  0.1054  0.5457
10097SOL    HW130861   3.348   4.015   3.909  1.1666 -0.6821 -1.0974
10097SOL    HW230862   3.209   3.968   3.869 -0.2826  0.7658  1.9158
10098SOL     OW30863   3.398   5.286   6.296 -0.4148  0.2080  0.2225
10098SOL    HW130864   3.386   5.200   6.337 -0.7237 -0.5506 -1.3452
10098SOL    HW230865   3.475   5.275   6.240 -1.7380  0.1901 -1.7278
10099SOL     OW30866   6.416   7.031   6.895  0.1188 -0.3164  0.0826
10099SOL    HW130867   6.375   7.102   6.945 -0.9898  0.4078 -1.7511
10099SOL    HW230868   6.352   6.960   6.895  0.1427 -0.3406 -0.2255
10100SOL     OW30869   0.371   6.151   6.665  0.5273  0.3079  0.0859
10100SOL    HW130870   0.437   6.202   6.711  0.5602  0.2278  0.1274
10100SOL    HW230871   0.350   6.204   6.588  0.1869  0.6264  0.3928
10101SOL     OW30872   3.216   2.121   2.233 -0.2609  0.3009  0.2595
10101SOL    HW130873   3.272   2.050   2.204  0.2691  0.5541  0.6263
10101SOL    HW230874   3.138   2.115   2.178  0.7833  0.8987 -1.3614
10102SOL     OW30875   3.159   1.167   2.238  0.5502  0.0040  0.9697
10102SOL    HW130876   3.070   1.200   2.236 -0.0308 -1.4901 -0.5172
10102SOL    HW230877   3.187   1.177   2.329 -0.5364  1.9238  1.1462
10103SOL     OW30878   4.864   4.650   4.469 -0.3713 -0.0616  0.3444
10103SOL    HW130879   4.783   4.634   4.519 -0.0141 -1.1912  0.5855
10103SOL    HW230880   4.934   4.617   4.525  0.1831  0.1118 -0.2365
10104SOL     OW30881   1.670   6.782   7.156 -0.6739 -0.3790 -0.0188
10104SOL    HW130882   1.667   6.718   7.227 -2.0152 -0.9230 -0.5325
10104SOL    HW230883   1.688   6.866   7.200 -0.4804 -0.8629  0.8424
10105SOL     OW30884   5.778   5.347   3.446 -0.0802  0.0072  0.7612
10105SOL    HW130885   5.722   5.365   3.371 -0.2776 -1.0223  0.6473
10105SOL    HW230886   5.866   5.369   3.416 -0.0088 -1.3946 -0.1521
10106SOL     OW30887   3.771   6.968   1.959  0.0087  0.2357 -0.5540
10106SOL    HW130888   3.797   6.876   1.951  0.0230  0.2331 -0.4844
10106SOL    HW230889   3.683   6.965   1.996  0.9098  0.2726  1.8232
10107SOL     OW30890   3.905   2.992   3.361  0.6968  0.5447 -0.4791
10107SOL    HW130891   3.979   2.941   3.393 -0.4100 -1.4002 -0.8103
10107SOL    HW230892   3.854   2.930   3.309 -1.2469  1.7468 -0.1254
10108SOL     OW30893   2.872   4.947   4.309 -0.9155 -0.0619 -0.2773
10108SOL    HW130894   2.944   4.901   4.352 -2.0788 -1.5163  0.1755
10108SOL    HW230895   2.793   4.917   4.354 -1.8327  1.4149 -0.8333
10109SOL     OW30896   6.212   7.322   5.948  0.3310 -0.7464  0.3144
10109SOL    HW130897   6.279   7.267   5.988  1.4107  0.1393 -0.2108
10109SOL    HW230898   6.150   7.260   5.908  0.2191 -1.5946  1.7503
10110SOL     OW30899   3.703   2.545   1.175  0.2287 -0.0177  0.4768
10110SOL    HW130900   3.793   2.512   1.172  0.5594  0.6588  2.1246
10110SOL    HW230901   3.663   2.499   1.249 -0.1579  1.1626  1.0236
10111SOL     OW30902   1.187   1.594   4.594  0.0749 -0.1713 -0.2939
10111SOL    HW130903   1.245   1.600   4.670 -1.0226 -3.4963  0.9976
10111SOL    HW230904   1.246   1.583   4.520  1.1922 -1.3289  0.7059
10112SOL     OW30905   4.521   7.090   4.417 -0.7791  0.4258 -0.0459
10112SOL    HW130906   4.441   7.043   4.397 -1.6838  0.1023  3.5891
10112SOL    HW230907   4.493   7.164   4.471  1.1042  2.3288 -1.4773
10113SOL     OW30908   4.569   4.734   1.024  0.1939  0.3464 -0.0718
10113SOL    HW130909   4.605   4.765   0.941  0.8768  1.7971  0.7197
10113SOL    HW230910   4.614   4.651   1.041 -1.7329 -1.2672 -2.2911
10114SOL     OW30911   2.196   6.837   2.203 -0.2032  0.1781 -0.4134
10114SOL    HW130912   2.107   6.853   2.172 -0.3068  0.6587  0.1147
10114SOL    HW230913   2.252   6.887   2.144 -0.4449  1.6625  0.5529
10115SOL     OW30914   1.994   4.494   0.451  0.4345  0.7209 -0.2139
10115SOL    HW130915   1.926   4.516   0.388  0.7135  2.3071 -0.0044
10115SOL    HW230916   2.075   4.497   0.400  0.2965 -3.4247 -1.0335
10116SOL     OW30917   5.148   4.805   6.107  0.4359  0.1427  0.0283
10116SOL    HW130918   5.167   4.713   6.089 -0.2866 -0.2384  1.1609
10116SOL    HW230919   5.203   4.826   6.182 -1.5411 -0.2232  1.6490
10117SOL     OW30920   3.535   7.210   7.415 -0.6301  0.5579 -0.1319
10117SOL    HW130921   3.557   7.136   7.472 -2.2259  2.0907  2.6381
10117SOL    HW230922   3.440   7.208   7.409 -0.5536  0.9241 -2.1934
10118SOL     OW30923   4.102   2.930   4.259  0.1971  0.4829  0.4288
10118SOL    HW130924   4.020   2.979   4.268 -0.2532 -0.2560  0.4874
10118SOL    HW230925   4.075   2.845   4.224  0.9113  0.1302  0.7108
10119SOL     OW30926   1.170   1.335   5.018  0.1372 -0.4328 -0.0088
10119SOL    HW130927   1.253   1.376   5.042  0.0821 -0.5665  0.4222
10119SOL    HW230928   1.171   1.250   5.062 -0.8521  0.1519  1.2149
10120SOL     OW30929   3.161   6.773   1.163  0.2843 -0.2961  0.3329
10120SOL    HW130930   3.217   6.756   1.087  0.7526 -0.0237  0.6090
10120SOL    HW230931   3.079   6.728   1.144  0.5002 -0.4612 -0.2084
10121SOL     OW30932   7.283   2.217   5.000 -0.0151  0.0569 -0.2279
10121SOL    HW130933   7.195   2.251   4.985 -0.6577 -1.4919 -0.1568
10121SOL    HW230934   7.289   2.139   4.944  0.2964 -1.4134  1.7103
10122SOL     OW30935   5.117   3.368   1.637  0.4360 -0.0492 -0.2469
10122SOL    HW130936   5.109   3.283   1.680 -0.2099  0.0002 -0.2642
10122SOL    HW230937   5.210   3.374   1.614  0.4021 -0.9692 -0.6834
10123SOL     OW30938   0.155   4.545   3.100  0.5901  0.0255 -0.4100
10123SOL    HW130939   0.248   4.544   3.076  0.5556  0.4386 -0.5642
10123SOL    HW230940   0.126   4.634   3.081 -0.0413 -0.3173 -1.1348
10124SOL     OW30941   3.611   3.163   0.495  0.5245  0.3507 -0.1685
10124SOL    HW130942   3.681   3.137   0.435  0.7018 -0.7857  0.5157
10124SOL    HW230943   3.657   3.197   0.572  0.2957  1.6189 -0.5542
10125SOL     OW30944   3.603   2.179   5.150 -0.2887  0.5538 -0.7905
10125SOL    HW130945   3.631   2.088   5.137 -0.2728  0.7283 -2.0479
10125SOL    HW230946   3.680   2.223   5.187  0.2276  0.4045 -1.6546
10126SOL     OW30947   3.975   6.989   5.957  0.7463  0.0322  0.1523
10126SOL    HW130948   3.979   7.085   5.949  1.1441 -0.1018 -1.7219
10126SOL    HW230949   4.027   6.969   6.035 -0.2859  1.3976  1.2613
10127SOL     OW30950   1.264   2.764   6.341 -0.1567  0.3208 -0.7045
10127SOL    HW130951   1.216   2.802   6.267 -0.9368 -1.7297 -1.3376
10127SOL    HW230952   1.264   2.670   6.323 -0.9305 -0.3337  2.2172
10128SOL     OW30953   1.022   3.638   1.607  0.4482 -0.1424  0.3734
10128SOL    HW130954   1.034   3.589   1.526  0.8101  1.3579 -0.5350
10128SOL    HW230955   1.109   3.675   1.626  0.3371 -0.3663  1.3766
10129SOL     OW30956   7.254   4.974   5.786 -0.0730  0.3401 -0.0067
10129SOL    HW130957   7.222   5.050   5.738 -2.3431  0.1408  1.0630
10129SOL    HW230958   7.300   5.011   5.862 -0.0630  0.6493 -0.1626
10130SOL     OW30959   0.622   5.770   1.321  0.3355  0.4049 -0.4293
10130SOL    HW130960   0.712   5.804   1.317  1.0110 -0.9269  1.5895
10130SOL    HW230961   0.620   5.718   1.401 -2.1601  0.0703 -0.6302
10131SOL     OW30962   6.159   1.851   0.276 -0.7244 -0.3162  0.2157
10131SOL    HW130963   6.234   1.879   0.223 -0.2206 -1.6994  0.1361
10131SOL    HW230964   6.089   1.838   0.212 -1.7236  2.9455  0.5088
10132SOL     OW30965   2.055   2.423   5.282 -0.2834  0.4274 -0.1510
10132SOL    HW130966   1.972   2.392   5.318 -0.0437  0.1085  0.1390
10132SOL    HW230967   2.055   2.518   5.300 -0.6460  0.4514 -0.2798
10133SOL     OW30968   0.777   3.284   4.470 -0.2608 -0.4150 -0.0961
10133SOL    HW130969   0.732   3.266   4.387  1.3180 -0.6889 -0.9535
10133SOL    HW230970   0.859   3.327   4.444 -0.9386  2.0604  1.5262
10134SOL     OW30971   0.789   5.086   5.587  0.3082  0.3492 -0.5288
10134SOL    HW130972   0.759   5.084   5.678 -0.3824  1.5709 -0.7059
10134SOL    HW230973   0.798   5.179   5.566  0.9811  0.0760 -1.5478
10135SOL     OW30974   7.398   2.250   2.183  0.1570 -0.7843  0.3382
10135SOL    HW130975   7.434   2.332   2.216  1.3873 -0.3404 -1.8821
10135SOL    HW230976   7.305   2.267   2.169  0.0612 -0.3346  1.5011
10136SOL     OW30977   1.782   4.801   0.271 -0.3742  0.0351  0.8998
10136SOL    HW130978   1.713   4.838   0.326 -0.8342 -1.7833  1.6201
10136SOL    HW230979   1.773   4.846   0.187 -1.6808  0.6500  1.3477
10137SOL     OW30980   5.475   4.228   4.380  0.3143 -0.1103 -0.1514
10137SOL    HW130981   5.437   4.217   4.293 -0.8415 -0.5207  0.3920
10137SOL    HW230982   5.509   4.318   4.380  1.3456 -0.4686 -1.3931
10138SOL     OW30983   0.848   0.386   4.403 -0.0093  0.3066  0.1173
10138SOL    HW130984   0.800   0.406   4.323  0.3261 -0.3195 -0.2512
10138SOL    HW230985   0.866   0.292   4.398  1.1998  0.5093  0.2612
10139SOL     OW30986   3.873   0.281   6.981  0.6977  0.2733  0.3570
10139SOL    HW130987   3.871   0.263   7.075 -0.3194  1.4901  0.5926
10139SOL    HW230988   3.950   0.338   6.969  0.5255  0.5409  0.5305
10140SOL     OW30989   1.162   3.654   3.028 -0.3047 -0.1058  0.1594
10140SOL    HW130990   1.154   3.565   2.995  0.6546 -0.4680  0.8796
10140SOL    HW230991   1.114   3.654   3.111 -1.2566  0.3584 -0.3698
10141SOL     OW30992   5.464   1.505   2.378  0.5562  0.6403  1.1687
10141SOL    HW130993   5.380   1.550   2.363  1.3495  1.7779 -0.1311
10141SOL    HW230994   5.529   1.561   2.334  1.4741 -2.3448 -1.6431
10142SOL     OW30995   3.379   1.776   3.844 -0.0242  0.1388  0.6753
10142SOL    HW130996   3.405   1.700   3.792  0.6997  0.5064  0.4729
10142SOL    HW230997   3.383   1.747   3.935 -1.7748 -0.6575  0.5389
10143SOL     OW30998   5.655   3.679   6.060 -0.4557  0.2309 -0.3159
10143SOL    HW130999   5.598   3.739   6.108  0.0855  0.4293  0.0933
10143SOL    HW231000   5.727   3.735   6.029  0.9762 -0.4903  1.5586
10144SOL     OW31001   4.540   4.991   4.225 -0.3694  0.0875 -0.0455
10144SOL    HW131002   4.457   4.944   4.217 -0.3814  0.1130 -0.0695
10144SOL    HW231003   4.588   4.944   4.293 -0.0972 -0.3756 -0.5503
10145SOL     OW31004   0.414   2.447   5.650 -0.6471 -0.0754 -1.3713
10145SOL    HW131005   0.334   2.477   5.606  0.0343  1.8898 -1.3682
10145SOL    HW231006   0.485   2.490   5.603  0.2680  0.0297  0.0349
10146SOL     OW31007   3.302   1.297   7.191  0.0860  0.1732 -0.2898
10146SOL    HW131008   3.300   1.246   7.110 -5.0293 -0.6919  0.0480
10146SOL    HW231009   3.335   1.235   7.257  2.1127  0.1712 -1.2410
10147SOL     OW31010   6.749   3.235   6.568 -0.3411 -0.3585 -0.7638
10147SOL    HW131011   6.695   3.286   6.627 -0.5766 -1.5801  0.1166
10147SOL    HW231012   6.838   3.266   6.584 -0.4359 -0.4908  0.0535
10148SOL     OW31013   5.454   2.649   4.072  0.2039  0.5184  0.3453
10148SOL    HW131014   5.415   2.566   4.047  0.7544  0.6356 -0.9962
10148SOL    HW231015   5.506   2.629   4.150 -0.4951 -0.1585  0.6504
10149SOL     OW31016   2.470   4.004   0.077  0.3215 -0.0308 -0.1440
10149SOL    HW131017   2.509   4.012  -0.010 -1.0203 -0.4434 -0.8085
10149SOL    HW231018   2.384   4.046   0.068  0.1791 -0.0530  0.9976
10150SOL     OW31019   1.448   0.264   6.243 -0.0558  0.2827  0.2274
10150SOL    HW131020   1.487   0.221   6.167 -0.7391 -0.4472  0.2724
10150SOL    HW231021   1.480   0.354   6.239  1.3724 -0.1999  0.0960
10151SOL     OW31022   0.423   1.410   0.425 -0.1560  0.6327 -0.8142
10151SOL    HW131023   0.396   1.329   0.381  1.8020 -0.6818  0.2349
10151SOL    HW231024   0.476   1.456   0.360  1.9884 -0.8773 -0.2410
10152SOL     OW31025   5.826   1.735   3.610 -0.0245  0.8144 -0.2113
10152SOL    HW131026   5.821   1.676   3.686 -0.1721  0.4301 -0.5127
10152SOL    HW231027   5.736   1.741   3.579  0.2126 -0.0235 -1.0977
10153SOL     OW31028   4.134   2.981   3.945 -0.2120 -0.0564 -0.8526
10153SOL    HW131029   4.151   2.956   4.036 -0.8420  0.0463 -0.7001
10153SOL    HW231030   4.213   3.027   3.918 -0.0859  0.0705 -0.2984
10154SOL     OW31031   5.582   3.117   3.701  0.0168  0.2200 -0.5386
10154SOL    HW131032   5.557   3.106   3.793  0.6866  1.9076 -0.1200
10154SOL    HW231033   5.506   3.159   3.660 -0.4937 -1.0094 -0.9245
10155SOL     OW31034   4.585   1.388   1.350 -0.0869  0.6152 -0.1060
10155SOL    HW131035   4.660   1.384   1.290  1.5017 -1.1362  1.8026
10155SOL    HW231036   4.609   1.456   1.413 -0.1316  0.1312  0.4426
10156SOL     OW31037   1.127   2.071   0.185 -0.1860  0.5000  0.0788
10156SOL    HW131038   1.219   2.064   0.210 -0.2621  0.0524  0.2446
10156SOL    HW231039   1.126   2.054   0.091 -0.1797 -0.2264  0.2026
10157SOL     OW31040   3.103   4.740   2.065 -0.3680 -0.6186  0.0249
10157SOL    HW131041   3.160   4.814   2.047  1.0591 -1.8050 -0.5010
10157SOL    HW231042   3.151   4.687   2.128 -0.8651 -1.6556 -0.4387
10158SOL     OW31043   7.162   0.290   1.486 -0.1716  0.6402  0.1150
10158SOL    HW131044   7.208   0.263   1.407 -1.6058 -0.3172 -0.4492
10158SOL    HW231045   7.082   0.332   1.453 -0.0515  1.6450  1.0580
10159SOL     OW31046   1.419   0.430   7.267  0.2037 -0.2659 -0.1851
10159SOL    HW131047   1.364   0.497   7.308  0.9024  0.8942 -1.0761
10159SOL    HW231048   1.508   0.451   7.295  0.5929  0.0449 -1.5467
10160SOL     OW31049   2.840   4.162   5.953 -0.8572  0.7662  0.2655
10160SOL    HW131050   2.921   4.161   5.903 -2.1503  2.5807 -2.1101
10160SOL    HW231051   2.815   4.070   5.962 -0.2507  0.3374 -1.9644
10161SOL     OW31052   5.876   6.662   4.781  0.6084 -0.0650  0.0877
10161SOL    HW131053   5.782   6.651   4.800  0.8775 -2.1609  0.4152
10161SOL    HW231054   5.918   6.662   4.867  1.1526 -2.2468 -0.1187
10162SOL     OW31055   7.281   7.136   1.009  0.1335 -0.8136 -0.0640
10162SOL    HW131056   7.193   7.171   1.019 -0.8737 -2.9763 -0.5928
10162SOL    HW231057   7.288   7.113   0.916  0.4437 -2.5356  0.3405
10163SOL     OW31058   6.293   2.482   5.893 -0.2813  0.2329 -0.5380
10163SOL    HW131059   6.339   2.556   5.856 -1.0360  0.1913 -1.6019
10163SOL    HW231060   6.300   2.413   5.827 -0.9096 -0.1287 -0.2438
10164SOL     OW31061   4.581   4.650   4.168 -0.1238  0.3949 -0.0018
10164SOL    HW131062   4.619   4.570   4.202 -2.3206 -0.2643  1.1088
10164SOL    HW231063   4.499   4.661   4.217 -0.6827  2.4521 -1.2393
10165SOL     OW31064   4.749   2.451   7.114  0.0251 -0.1186  0.1203
10165SOL    HW131065   4.809   2.527   7.115  2.1209 -1.5719 -2.4638
10165SOL    HW231066   4.734   2.432   7.207  0.0422  2.9186  0.8672
10166SOL     OW31067   6.848   6.300   2.122 -0.7815 -0.1509  0.5178
10166SOL    HW131068   6.831   6.244   2.046 -0.7421 -1.4989  1.4657
10166SOL    HW231069   6.886   6.380   2.085 -1.1582 -0.6052 -0.9068
10167SOL     OW31070   7.166   7.266   0.502 -0.0102  0.0372 -0.1739
10167SOL    HW131071   7.098   7.206   0.471  1.0747 -0.6983 -1.2431
10167SOL    HW231072   7.131   7.354   0.484 -0.7009 -0.3309 -0.6564
10168SOL     OW31073   0.765   4.285   4.299  0.1362  0.4858 -0.3278
10168SOL    HW131074   0.672   4.306   4.303 -0.0063  0.0177 -1.0801
10168SOL    HW231075   0.784   4.278   4.205  0.8561  0.2579 -0.1691
10169SOL     OW31076   6.298   4.190   4.106  0.6640  0.4829  0.2481
10169SOL    HW131077   6.348   4.116   4.140 -1.4748 -1.0027  0.3591
10169SOL    HW231078   6.349   4.267   4.131  2.7735 -0.9079  0.4580
10170SOL     OW31079   4.966   3.205   5.747 -0.5621 -0.1438 -0.5371
10170SOL    HW131080   4.974   3.237   5.657  0.7655 -0.2315 -0.4697
10170SOL    HW231081   4.975   3.284   5.801  0.0611 -0.2754 -0.4455
10171SOL     OW31082   4.586   0.775   4.119 -0.7016  0.2604  0.6613
10171SOL    HW131083   4.618   0.695   4.078 -1.1366  0.3583  0.1196
10171SOL    HW231084   4.539   0.745   4.197  0.5201  0.1056  1.3647
10172SOL     OW31085   0.807   6.945   1.720 -0.0202  0.0189 -0.6754
10172SOL    HW131086   0.799   6.863   1.770 -2.1313  1.0308  0.7866
10172SOL    HW231087   0.739   6.939   1.654  0.3963  0.2301 -1.1255
10173SOL     OW31088   3.059   0.840   0.347 -0.3564  0.1833 -0.3124
10173SOL    HW131089   3.061   0.907   0.415  2.8967  1.5200 -1.5291
10173SOL    HW231090   3.004   0.877   0.279  0.0909  0.9258 -0.2841
10174SOL     OW31091   0.030   0.912   1.908 -0.1644  0.3689  0.4207
10174SOL    HW131092  -0.048   0.905   1.853  0.0000 -1.1371  0.3465
10174SOL    HW231093   0.019   0.845   1.975  0.1142  1.5223  1.6673
10175SOL     OW31094   7.358   1.302   1.673 -0.1416  0.8795 -0.4777
10175SOL    HW131095   7.397   1.275   1.590  1.4752  0.7736  0.2676
10175SOL    HW231096   7.334   1.394   1.659  2.1085  1.5402 -0.4593
10176SOL     OW31097   5.222   2.969   3.318  0.0728 -0.2846 -0.2455
10176SOL    HW131098   5.155   3.038   3.312  1.6281  1.3969  0.6563
10176SOL    HW231099   5.266   2.985   3.401  2.9063 -0.0262 -1.6517
10177SOL     OW31100   3.958   3.687   2.252  0.0612  0.4140  0.4475
10177SOL    HW131101   3.885   3.742   2.223 -0.0015  0.8088  1.3038
10177SOL    HW231102   3.931   3.598   2.232  0.2962  0.6840 -1.2715
10178SOL     OW31103   0.691   0.308   2.198  0.1793  0.1875  0.2472
10178SOL    HW131104   0.643   0.317   2.280  0.1744  0.8009  0.1802
10178SOL    HW231105   0.626   0.273   2.136 -0.4190  1.7129 -0.0385
10179SOL     OW31106   3.025   4.019   3.282  0.2988 -0.4783  0.3741
10179SOL    HW131107   3.031   4.042   3.374  1.0527  1.1389 -0.0430
10179SOL    HW231108   3.048   4.099   3.235 -0.2343 -1.2072 -1.2286
10180SOL     OW31109   1.135   5.782   1.234  0.5251 -0.3877  0.4411
10180SOL    HW131110   1.081   5.767   1.156  0.9304 -0.0744  0.1001
10180SOL    HW231111   1.186   5.861   1.213  1.2323 -0.7726  0.6961
10181SOL     OW31112   7.197   4.067   0.504 -0.1498 -0.6414  0.5644
10181SOL    HW131113   7.132   4.114   0.453  0.8466 -1.1969 -1.3284
10181SOL    HW231114   7.188   4.102   0.593 -2.2535  0.0514  0.1319
10182SOL     OW31115   6.419   5.714   3.437 -0.2297  0.0167 -0.5460
10182SOL    HW131116   6.466   5.797   3.447 -0.2409 -0.2293  2.6864
10182SOL    HW231117   6.488   5.648   3.436 -0.3407 -0.1496  1.0581
10183SOL     OW31118   0.711   4.108   3.623  0.0746 -0.2134 -0.4160
10183SOL    HW131119   0.666   4.087   3.542 -0.7107  0.1382 -0.0791
10183SOL    HW231120   0.716   4.204   3.624 -1.8722 -0.0724  0.9599
10184SOL     OW31121   2.868   4.567   4.230 -0.5731  0.6698 -0.0599
10184SOL    HW131122   2.949   4.575   4.280 -0.3200 -0.0507 -0.3362
10184SOL    HW231123   2.873   4.638   4.165  1.2335 -1.0646 -1.9606
10185SOL     OW31124   4.941   1.001   1.847 -0.4887  0.4313  0.2769
10185SOL    HW131125   4.934   0.914   1.887 -0.7675  0.9507  1.4178
10185SOL    HW231126   4.867   1.006   1.787 -0.6647 -0.0076  0.4492
10186SOL     OW31127   5.375   3.471   3.684  0.1368 -0.0419  0.4271
10186SOL    HW131128   5.389   3.385   3.643  0.0525  0.6509 -1.1559
10186SOL    HW231129   5.463   3.510   3.687 -0.0449  0.4700 -0.4597
10187SOL     OW31130   1.205   6.652   7.208 -0.0830  0.3271 -0.0915
10187SOL    HW131131   1.120   6.665   7.249 -0.1505  0.6108 -0.3147
10187SOL    HW231132   1.199   6.700   7.125 -0.0025 -0.3605 -0.5017
10188SOL     OW31133   6.747   3.087   0.174 -0.7987  0.0512 -0.1688
10188SOL    HW131134   6.834   3.047   0.168  0.0774  1.7461  0.6035
10188SOL    HW231135   6.752   3.163   0.116 -1.3870  0.7973  0.7392
10189SOL     OW31136   2.869   1.760   4.099 -0.1057 -0.2721 -0.2301
10189SOL    HW131137   2.870   1.695   4.169 -1.1352 -1.5179 -1.3140
10189SOL    HW231138   2.960   1.767   4.072  0.0259 -1.2824 -0.0889
10190SOL     OW31139   6.150   1.626   0.868 -0.7682 -0.4845  0.0390
10190SOL    HW131140   6.165   1.546   0.919  1.5917  0.7014  1.3712
10190SOL    HW231141   6.214   1.621   0.797 -1.2370 -0.1776 -0.4119
10191SOL     OW31142   6.065   6.009   5.035 -0.1724 -0.1269 -0.3328
10191SOL    HW131143   6.018   5.946   5.090 -0.0560 -0.0140 -0.1013
10191SOL    HW231144   6.122   6.056   5.096 -1.7039  1.5947 -0.1556
10192SOL     OW31145   4.371   1.157   2.399 -0.2324  0.7932  0.6320
10192SOL    HW131146   4.277   1.140   2.389 -0.1804  0.3534  0.8433
10192SOL    HW231147   4.411   1.118   2.322 -0.2758  1.4998  0.2455
10193SOL     OW31148   2.405   0.566   0.751  0.6820  0.2577  0.4844
10193SOL    HW131149   2.406   0.505   0.825  0.1655  0.1229  0.3852
10193SOL    HW231150   2.463   0.526   0.687  0.2277 -0.2118  0.3591
10194SOL     OW31151   0.107   0.496   3.400 -0.1579 -0.4824  0.5010
10194SOL    HW131152   0.103   0.485   3.495 -1.1550 -1.4575  0.3592
10194SOL    HW231153   0.060   0.421   3.365 -1.4800  0.8544 -0.7148
10195SOL     OW31154   5.121   0.887   1.449  0.3152 -0.1152  0.0975
10195SOL    HW131155   5.150   0.866   1.360 -3.5989  0.0635 -1.4587
10195SOL    HW231156   5.153   0.976   1.465  1.0867 -0.1493 -1.1174
10196SOL     OW31157   5.471   3.477   0.594  0.0517  0.2102  0.1863
10196SOL    HW131158   5.488   3.537   0.521 -0.4253  0.0921 -0.0212
10196SOL    HW231159   5.542   3.496   0.656 -0.5067  1.5131  0.4637
10197SOL     OW31160   5.252   3.978   4.888 -0.5756 -0.0246 -0.0037
10197SOL    HW131161   5.206   3.898   4.912  0.6676 -0.6563  0.3526
10197SOL    HW231162   5.186   4.030   4.842 -2.7904  0.7437  3.6114
10198SOL     OW31163   0.259   4.667   5.151  0.5482  0.0345  0.4232
10198SOL    HW131164   0.165   4.687   5.144  0.4352 -0.7221 -0.3817
10198SOL    HW231165   0.298   4.749   5.179 -0.2537  0.6159 -0.0893
10199SOL     OW31166   1.211   6.126   3.040 -0.5414  0.7852 -0.5113
10199SOL    HW131167   1.215   6.217   3.070  1.5987 -0.1298  2.4778
10199SOL    HW231168   1.282   6.119   2.976  0.3821  0.8812  0.4749
10200SOL     OW31169   2.551   5.539   1.282 -0.0721  0.3814  0.5496
10200SOL    HW131170   2.494   5.471   1.318 -0.6301  1.1652  1.1661
10200SOL    HW231171   2.636   5.523   1.323  0.2647 -0.9766 -0.6036
10201SOL     OW31172   6.245   0.570   1.110  0.1388  0.3328 -0.2606
10201SOL    HW131173   6.325   0.525   1.083  0.7473  0.3440  1.3843
10201SOL    HW231174   6.274   0.657   1.136 -0.5191  0.5745 -0.3120
10202SOL     OW31175   5.490   4.716   4.897  0.3747 -0.8667  0.1486
10202SOL    HW131176   5.583   4.741   4.890 -0.2758  1.7481 -0.3213
10202SOL    HW231177   5.445   4.798   4.914 -1.9167 -2.0389  0.0762
10203SOL     OW31178   2.309   6.999   0.300 -0.1884  0.7992  0.3183
10203SOL    HW131179   2.287   7.005   0.207 -2.3187 -0.6108  0.6713
10203SOL    HW231180   2.254   6.928   0.333 -0.7129  2.3303  3.0127
10204SOL     OW31181   5.345   2.920   6.821  0.0192  0.2752  0.3559
10204SOL    HW131182   5.331   2.840   6.770  1.3062  1.0694 -1.3415
10204SOL    HW231183   5.370   2.986   6.756 -0.2765  1.8839  1.8013
10205SOL     OW31184   3.009   1.866   0.830  0.6108  1.0972  0.4753
10205SOL    HW131185   2.948   1.793   0.838 -0.9812  2.0000 -2.3752
10205SOL    HW231186   3.062   1.861   0.910 -0.1739 -2.4310  0.9449
10206SOL     OW31187   3.252   7.410   3.291  0.3490 -0.5086 -0.5529
10206SOL    HW131188   3.229   7.317   3.293  0.5091 -0.5474 -0.5491
10206SOL    HW231189   3.173   7.453   3.257  0.0545 -0.5784  0.0258
10207SOL     OW31190   6.869   5.485   0.570 -0.6227  0.0481 -0.2070
10207SOL    HW131191   6.877   5.429   0.648  0.1307  2.5296  1.6048
10207SOL    HW231192   6.778   5.515   0.572 -0.7116 -0.1891 -0.5410
10208SOL     OW31193   4.144   0.855   1.362  0.0355 -0.3442  0.0848
10208SOL    HW131194   4.052   0.881   1.354  0.0818 -0.5611 -1.5317
10208SOL    HW231195   4.193   0.932   1.333  0.2766 -0.8745 -0.9889
10209SOL     OW31196   5.013   4.882   3.204  0.4721 -0.1715  0.2600
10209SOL    HW131197   5.072   4.951   3.174 -0.3214 -0.0192 -1.0346
10209SOL    HW231198   5.062   4.837   3.273  1.3794  1.0676  0.4593
10210SOL     OW31199   4.275   2.183   4.878  0.3045 -0.2660 -0.2318
10210SOL    HW131200   4.253   2.102   4.832 -1.0688 -0.1530  0.1841
10210SOL    HW231201   4.250   2.253   4.817 -1.0715 -0.1260  0.4584
10211SOL     OW31202   3.895   0.195   0.129 -0.0951 -0.3493  0.0888
10211SOL    HW131203   3.837   0.119   0.127 -0.3563 -0.1636  0.5812
10211SOL    HW231204   3.979   0.160   0.159 -0.6203 -0.1956  1.8681
10212SOL     OW31205   3.541   1.378   0.863 -0.2942  0.4281 -0.2041
10212SOL    HW131206   3.564   1.375   0.956 -0.0144 -0.1716 -0.2869
10212SOL    HW231207   3.459   1.428   0.859 -1.3538 -1.1975  0.5689
10213SOL     OW31208   6.659   5.873   4.753 -0.2577 -0.4620  0.5905
10213SOL    HW131209   6.569   5.842   4.744 -0.3069  0.2617 -2.9764
10213SOL    HW231210   6.651   5.969   4.758  0.2959 -0.4092  0.5326
10214SOL     OW31211   6.943   4.372   6.564  0.6365  0.0393  0.5451
10214SOL    HW131212   6.923   4.410   6.479 -0.3865  1.9465  1.5702
10214SOL    HW231213   6.995   4.439   6.609  1.3069 -1.0044  1.3776
10215SOL     OW31214   0.495   7.060   0.939  0.2429 -0.1243 -0.5698
10215SOL    HW131215   0.424   7.047   0.876 -1.7313 -0.7214  1.6219
10215SOL    HW231216   0.548   6.981   0.933 -0.8783 -0.9201 -0.3775
10216SOL     OW31217   2.119   4.032   3.909  0.0088 -0.4494 -0.4979
10216SOL    HW131218   2.109   3.954   3.853  0.2929  1.0955 -2.8645
10216SOL    HW231219   2.031   4.067   3.917 -0.2832 -1.5225  1.4475
10217SOL     OW31220   2.183   1.690   4.588 -0.2759 -0.1804  0.1919
10217SOL    HW131221   2.114   1.694   4.523 -0.4830 -1.3654  0.3182
10217SOL    HW231222   2.246   1.757   4.561 -0.4895 -0.4711 -1.0709
10218SOL     OW31223   3.330   1.922   2.415 -0.2625 -0.1618 -0.0308
10218SOL    HW131224   3.368   1.934   2.328 -1.6220 -2.7361 -1.0848
10218SOL    HW231225   3.238   1.944   2.405 -0.2341  0.5492  1.0704
10219SOL     OW31226   5.293   4.278   7.293  0.3707 -0.0962 -0.4557
10219SOL    HW131227   5.307   4.225   7.372  1.7889  2.5634  1.2643
10219SOL    HW231228   5.199   4.294   7.290  0.3934  0.6084  1.3844
10220SOL     OW31229   6.874   5.583   6.349 -0.0449  0.4142  0.4680
10220SOL    HW131230   6.818   5.537   6.287  0.5938  0.1636  0.0784
10220SOL    HW231231   6.876   5.526   6.426  1.6625 -0.8009 -0.4247
10221SOL     OW31232   2.763   1.062   0.351 -0.2986 -0.2579 -0.2032
10221SOL    HW131233   2.789   1.008   0.277  0.2310 -0.8253  0.3815
10221SOL    HW231234   2.705   1.128   0.314  1.3136  0.5419 -1.4094
10222SOL     OW31235   3.744   1.606   1.044 -0.3978 -0.2707 -0.5004
10222SOL    HW131236   3.688   1.536   1.076  0.4910 -1.4796 -1.4740
10222SOL    HW231237   3.816   1.611   1.108 -1.0706  0.5941  0.2091
10223SOL     OW31238   4.707   0.814   0.503  0.3914  0.4559  0.0185
10223SOL    HW131239   4.680   0.906   0.512  2.2615  0.9291  1.6996
10223SOL    HW231240   4.739   0.807   0.414 -0.5981  1.1943 -0.4138
10224SOL     OW31241   6.053   0.265   6.352  0.1684 -0.6817  0.0539
10224SOL    HW131242   6.100   0.233   6.274 -0.1533 -0.7741 -0.1038
10224SOL    HW231243   6.120   0.312   6.402  0.0702  0.6165 -0.9798
10225SOL     OW31244   6.433   7.213   5.595 -0.8937 -0.6774 -0.2314
10225SOL    HW131245   6.460   7.177   5.680 -0.7950  0.0229  0.0430
10225SOL    HW231246   6.456   7.146   5.532  0.3647 -0.6132  0.1321
10226SOL     OW31247   3.273   6.107   1.711  0.3504  0.3797  0.9705
10226SOL    HW131248   3.208   6.107   1.781 -2.6633 -1.3435 -1.5784
10226SOL    HW231249   3.222   6.109   1.631  3.5289 -0.0249 -1.2430
10227SOL     OW31250   3.229   3.882   7.048  0.0885  0.2406 -0.7268
10227SOL    HW131251   3.189   3.894   7.134  0.4381  1.3494 -0.6973
10227SOL    HW231252   3.317   3.849   7.067 -0.2152 -0.5881 -0.7201
10228SOL     OW31253   4.914   3.751   1.719  0.4432 -0.0609 -0.0786
10228SOL    HW131254   5.001   3.766   1.755  0.3214 -0.1887  0.2708
10228SOL    HW231255   4.916   3.794   1.634  0.6718  0.4096  0.1594
10229SOL     OW31256   4.344   0.244   1.840 -0.5110 -0.6365 -0.4856
10229SOL    HW131257   4.289   0.267   1.765  0.7809  1.9072 -0.7508
10229SOL    HW231258   4.319   0.306   1.908  0.1192 -1.2580  0.3388
10230SOL     OW31259   3.754   3.123   5.682 -0.6059 -0.0419  0.4637
10230SOL    HW131260   3.694   3.071   5.628 -1.3080  0.0664  1.1234
10230SOL    HW231261   3.806   3.173   5.619 -2.6448  1.4555 -0.1303
10231SOL     OW31262   1.435   6.281   1.984 -0.0611  0.2481  0.2149
10231SOL    HW131263   1.354   6.328   1.964  0.4332  0.1379 -2.4052
10231SOL    HW231264   1.414   6.189   1.970  0.0380  0.0135  1.4654
10232SOL     OW31265   2.020   7.004   2.085  0.1675 -0.0392  0.0142
10232SOL    HW131266   1.967   7.069   2.040  0.5690 -0.3183 -0.8833
10232SOL    HW231267   2.110   7.022   2.057  0.3510 -0.5960  0.2226
10233SOL     OW31268   6.927   5.197   6.232 -0.3846 -0.6173  0.1249
10233SOL    HW131269   6.846   5.240   6.258  0.5308  0.1532  1.9021
10233SOL    HW231270   6.994   5.237   6.288  1.3083 -0.8977 -1.5969
10234SOL     OW31271   5.892   0.238   6.576 -0.2106  0.0477  0.0162
10234SOL    HW131272   5.942   0.230   6.494 -1.3301 -3.1667 -0.4936
10234SOL    HW231273   5.950   0.202   6.643 -0.0628  0.8087  0.3085
10235SOL     OW31274   6.298   2.049   2.283  0.3565 -0.2574  0.7107
10235SOL    HW131275   6.283   2.114   2.351  1.4205 -1.0055  1.7051
10235SOL    HW231276   6.277   1.965   2.324  0.2702 -0.6606 -0.1295
10236SOL     OW31277   3.559   7.380   0.914 -0.2664  0.5217  0.3427
10236SOL    HW131278   3.476   7.399   0.870  0.1729  0.3052 -0.6144
10236SOL    HW231279   3.626   7.415   0.855  0.4098 -0.9688  0.1610
10237SOL     OW31280   7.284   0.327   2.923  0.3554 -0.1191  0.0652
10237SOL    HW131281   7.306   0.415   2.954  0.5830 -0.6537  1.4709
10237SOL    HW231282   7.192   0.331   2.900 -0.0187  0.1190  1.5301
10238SOL     OW31283   4.949   6.456   5.845  1.0345  0.0271 -0.0049
10238SOL    HW131284   4.875   6.445   5.786  0.0619  0.9825  1.0034
10238SOL    HW231285   5.026   6.454   5.787  0.1026  1.3024 -1.3601
10239SOL     OW31286   0.874   0.730   5.483 -0.3725  0.2222  0.0825
10239SOL    HW131287   0.844   0.803   5.538 -0.7262 -0.3447  0.6581
10239SOL    HW231288   0.820   0.656   5.510  0.1633 -0.3236 -0.3140
10240SOL     OW31289   0.504   4.729   4.612 -0.0267  0.9312  1.3574
10240SOL    HW131290   0.542   4.674   4.544 -0.8496 -0.0972  1.7075
10240SOL    HW231291   0.496   4.671   4.688 -1.6861  1.2851  1.4813
10241SOL     OW31292   1.449   4.142   3.857 -0.2456 -0.2727  0.1492
10241SOL    HW131293   1.355   4.142   3.875  0.1438 -2.1698  2.9143
10241SOL    HW231294   1.489   4.162   3.942  1.8354 -2.8459 -0.1102
10242SOL     OW31295   1.566   6.014   4.030 -0.3397  0.4084  0.4399
10242SOL    HW131296   1.506   5.964   4.087 -0.2857 -0.3785 -0.1763
10242SOL    HW231297   1.643   5.958   4.021 -0.2243  0.6577 -0.1699
10243SOL     OW31298   4.403   7.229   2.393  0.2828  0.7564  0.1012
10243SOL    HW131299   4.477   7.178   2.361 -1.2319 -0.0868 -2.3310
10243SOL    HW231300   4.442   7.305   2.437  2.5536 -0.7168  0.7692
10244SOL     OW31301   6.668   4.093   4.875 -0.4395 -0.9652  0.3045
10244SOL    HW131302   6.699   4.005   4.854 -1.3455 -1.0408 -0.7889
10244SOL    HW231303   6.725   4.122   4.946 -0.7633 -2.8279  1.4007
10245SOL     OW31304   5.308   0.778   6.795  0.1733 -0.1057 -0.2700
10245SOL    HW131305   5.314   0.728   6.876  1.2725 -0.7239 -0.7064
10245SOL    HW231306   5.235   0.838   6.809 -0.5099 -1.1131  0.6619
10246SOL     OW31307   6.345   2.722   2.234 -0.2010 -0.1361 -0.3273
10246SOL    HW131308   6.422   2.716   2.178 -0.7128 -1.4965 -0.9206
10246SOL    HW231309   6.273   2.741   2.174 -0.8391 -2.1072 -0.2317
10247SOL     OW31310   0.504   0.142   2.092  0.7918  0.2433  0.2688
10247SOL    HW131311   0.534   0.051   2.087  1.3944  0.4195  0.5763
10247SOL    HW231312   0.479   0.154   2.184 -2.8124 -0.6794 -0.4294
10248SOL     OW31313   0.711   5.446   0.741  0.3360 -0.0302  0.4396
10248SOL    HW131314   0.632   5.411   0.781 -0.7403 -1.0806 -2.3253
10248SOL    HW231315   0.680   5.500   0.669  2.1398  1.3203  0.5894
10249SOL     OW31316   1.886   1.731   4.221  0.2864 -0.6027  0.2998
10249SOL    HW131317   1.822   1.790   4.180 -0.3706  0.3920  2.6011
10249SOL    HW231318   1.969   1.778   4.215  0.0024  0.0137  0.9578
10250SOL     OW31319   3.213   6.476   6.032 -0.1190  0.0817 -0.0235
10250SOL    HW131320   3.123   6.449   6.012 -0.3069 -0.5462  1.5341
10250SOL    HW231321   3.242   6.415   6.100  0.8999  1.3182  0.6948
10251SOL     OW31322   0.141   7.301   3.428  0.1825 -0.1353  0.1987
10251SOL    HW131323   0.164   7.393   3.437  1.0485 -0.1914 -1.1690
10251SOL    HW231324   0.200   7.255   3.489 -0.4775  0.2094  1.1294
10252SOL     OW31325   4.431   0.733   7.304 -0.3217  0.0392  0.0942
10252SOL    HW131326   4.419   0.821   7.269 -0.1818 -0.3690 -1.0241
10252SOL    HW231327   4.355   0.718   7.360 -0.2717  0.9227  0.4014
10253SOL     OW31328   3.328   7.274   4.612 -0.3584  0.4422  0.2697
10253SOL    HW131329   3.265   7.233   4.552 -1.4315  1.7929  0.4107
10253SOL    HW231330   3.404   7.293   4.557 -0.6778  0.1714 -0.2738
10254SOL     OW31331   2.189   7.101   4.599  0.0244  0.6154 -0.4080
10254SOL    HW131332   2.142   7.122   4.517 -0.2852  0.9083 -0.1596
10254SOL    HW231333   2.179   7.007   4.609  1.1219  0.3711 -1.3554
10255SOL     OW31334   6.387   6.260   2.364 -0.1990 -0.8764 -0.0705
10255SOL    HW131335   6.341   6.217   2.437  0.7439 -1.1795  0.3688
10255SOL    HW231336   6.403   6.349   2.395  0.7987 -1.1975  0.3929
10256SOL     OW31337   7.228   2.543   2.017  0.3368 -0.3741  0.0477
10256SOL    HW131338   7.178   2.590   1.951 -0.1977 -1.6835 -0.5080
10256SOL    HW231339   7.270   2.612   2.069  0.3320  0.6913 -1.3088
10257SOL     OW31340   6.251   5.617   3.105 -0.0729 -0.1841  0.5189
10257SOL    HW131341   6.262   5.652   3.193  2.1549 -1.1342  0.6889
10257SOL    HW231342   6.308   5.671   3.050 -2.3522  1.1776 -0.6305
10258SOL     OW31343   1.670   2.555   4.788  0.4449 -0.1571  0.3576
10258SOL    HW131344   1.697   2.511   4.868  1.7993  0.3206  0.1908
10258SOL    HW231345   1.657   2.485   4.724  0.1519 -0.4768  0.7675
10259SOL     OW31346   2.929   6.768   3.173  0.2284 -0.3467 -0.1497
10259SOL    HW131347   2.923   6.860   3.148  0.8186  0.1036  1.2463
10259SOL    HW231348   2.943   6.722   3.090  0.6289  0.8886 -0.8049
10260SOL     OW31349   3.140   4.146   0.196 -0.0326  0.8655 -0.1525
10260SOL    HW131350   3.104   4.149   0.107  0.7690 -2.8247 -0.7714
10260SOL    HW231351   3.235   4.145   0.184  0.1261 -3.0163  0.3385
10261SOL     OW31352   2.903   1.895   0.132  0.1509 -0.6999 -0.2701
10261SOL    HW131353   2.992   1.862   0.125  0.3869 -0.4656  1.2915
10261SOL    HW231354   2.848   1.817   0.132  0.3370 -0.8492 -1.1235
10262SOL     OW31355   4.127   0.401   1.290  0.3633  0.1171  0.1976
10262SOL    HW131356   4.212   0.400   1.246 -0.1103  1.5572 -0.8426
10262SOL    HW231357   4.116   0.492   1.320  0.1781 -0.5792  2.3598
10263SOL     OW31358   1.131   5.052   1.662 -0.1452 -0.1594 -0.3090
10263SOL    HW131359   1.152   4.960   1.679  0.3498 -0.1747 -0.9441
10263SOL    HW231360   1.147   5.063   1.568 -0.0249  0.6232 -0.2041
10264SOL     OW31361   0.960   2.278   0.152 -0.9508 -0.4284  0.3055
10264SOL    HW131362   1.033   2.217   0.143 -0.4112  0.2043  0.2224
10264SOL    HW231363   0.917   2.277   0.067 -0.5203 -0.1826  0.0801
10265SOL     OW31364   7.289   4.970   0.311 -0.2782 -0.3898  0.2785
10265SOL    HW131365   7.194   4.977   0.305 -0.3827 -2.2482 -0.8891
10265SOL    HW231366   7.307   4.876   0.313  1.5694 -0.1163 -0.6527
10266SOL     OW31367   5.244   2.565   5.922 -0.2731  0.5488 -0.0366
10266SOL    HW131368   5.278   2.651   5.947  0.1933  0.0459  1.1807
10266SOL    HW231369   5.277   2.506   5.991 -1.8195 -0.3434 -0.0208
10267SOL     OW31370   6.846   1.816   2.199 -0.0798  0.0447 -0.3801
10267SOL    HW131371   6.833   1.841   2.107  0.9730  1.0304 -0.2891
10267SOL    HW231372   6.891   1.891   2.238 -1.0193 -0.1229  1.0974
10268SOL     OW31373   3.202   6.901   2.554  0.3285 -0.3923  0.5304
10268SOL    HW131374   3.131   6.870   2.498 -0.3296 -1.8867  2.0887
10268SOL    HW231375   3.174   6.988   2.582  0.5064  0.2310 -1.1110
10269SOL     OW31376   2.389   3.077   3.864  0.5859 -0.2374  0.3367
10269SOL    HW131377   2.320   3.057   3.927  2.2688 -0.8624  2.0712
10269SOL    HW231378   2.450   3.133   3.912  0.8306  1.1645 -1.4694
10270SOL     OW31379   5.584   6.475   6.519 -0.0658  0.3467  0.5231
10270SOL    HW131380   5.530   6.486   6.441 -0.9177 -0.4063  0.9839
10270SOL    HW231381   5.522   6.467   6.591  0.6693 -0.1322  1.1285
10271SOL     OW31382   3.031   1.393   3.945  0.0520  0.5379  0.1433
10271SOL    HW131383   3.114   1.367   3.904 -0.3895 -0.1953 -0.3061
10271SOL    HW231384   2.986   1.444   3.878 -1.2047 -1.6730 -0.8125
10272SOL     OW31385   3.928   6.702   1.059  0.0868  0.1276 -0.3106
10272SOL    HW131386   3.851   6.726   1.111 -0.5290  1.4953 -1.7724
10272SOL    HW231387   3.989   6.665   1.123 -1.6889 -0.8234  0.9183
10273SOL     OW31388   0.232   5.575   0.786 -0.1636 -0.7334 -0.4219
10273SOL    HW131389   0.160   5.513   0.798  0.0940 -1.0043 -0.2483
10273SOL    HW231390   0.216   5.644   0.850 -0.1954 -0.8639 -0.2880
10274SOL     OW31391   5.110   4.993   0.251 -0.1000 -0.1146  0.4048
10274SOL    HW131392   5.182   4.932   0.236 -1.9818 -1.7218 -3.6190
10274SOL    HW231393   5.151   5.080   0.246  1.7404 -0.9874 -0.9243
10275SOL     OW31394   4.540   0.497   0.222 -0.3927 -0.5900 -0.3742
10275SOL    HW131395   4.629   0.501   0.258  0.6343 -2.2591 -2.5022
10275SOL    HW231396   4.492   0.565   0.268  1.3119 -1.2484  2.6224
10276SOL     OW31397   3.579   3.967   2.155 -0.8930 -0.4366 -0.0025
10276SOL    HW131398   3.598   4.045   2.103  1.4426 -2.7549 -2.9248
10276SOL    HW231399   3.618   3.985   2.241 -1.2819  1.9024 -0.2468
10277SOL     OW31400   5.730   4.771   3.531  0.7226  0.4025 -0.3250
10277SOL    HW131401   5.725   4.826   3.610  0.0565 -1.0011  0.6469
10277SOL    HW231402   5.672   4.698   3.549  1.2794 -0.4339 -1.7657
10278SOL     OW31403   5.352   3.901   2.545 -0.4761  0.8632  0.2325
10278SOL    HW131404   5.335   3.816   2.585 -0.1326  0.2714 -0.8219
10278SOL    HW231405   5.329   3.889   2.453 -2.4882  2.5428  0.4436
10279SOL     OW31406   3.584   6.740   6.852  0.1963  0.4363  0.1027
10279SOL    HW131407   3.640   6.776   6.782  1.1245 -0.1631  0.5150
10279SOL    HW231408   3.527   6.678   6.807  2.7690 -2.2050  0.1849
10280SOL     OW31409   3.523   1.632   2.100 -0.2579  0.3719  0.3370
10280SOL    HW131410   3.605   1.588   2.123 -0.7667 -0.1678  1.1782
10280SOL    HW231411   3.464   1.612   2.173 -1.2379  0.4886 -0.4041
10281SOL     OW31412   3.099   4.362   1.943  0.8894  0.6409 -0.0072
10281SOL    HW131413   3.039   4.314   1.887 -1.5000  2.2286  1.0218
10281SOL    HW231414   3.122   4.440   1.892  1.3531  0.4939 -0.0294
10282SOL     OW31415   5.081   0.100   3.632  0.2543 -0.5044  0.2857
10282SOL    HW131416   5.064   0.010   3.607 -0.4108 -0.5927  1.0233
10282SOL    HW231417   5.030   0.153   3.571  0.8931 -0.6053 -0.3486
10283SOL     OW31418   3.694   4.537   2.741  0.2103  0.0360  0.5646
10283SOL    HW131419   3.738   4.587   2.672  0.3680  0.1012  0.7120
10283SOL    HW231420   3.610   4.512   2.702 -0.2389  1.1489  0.7874
10284SOL     OW31421   7.019   0.453   0.365 -0.6879 -0.6985 -0.1443
10284SOL    HW131422   6.944   0.397   0.382  0.0898 -1.2323  1.7638
10284SOL    HW231423   7.090   0.392   0.345  0.0370 -0.4036  1.4200
10285SOL     OW31424   0.290   1.406   2.565  0.0058  0.0839 -0.3704
10285SOL    HW131425   0.371   1.457   2.560 -0.0949  0.2895  0.0476
10285SOL    HW231426   0.238   1.435   2.490 -1.1254  2.4805  1.2115
10286SOL     OW31427   4.313   6.048   6.134 -0.7842 -0.3458 -0.0007
10286SOL    HW131428   4.353   6.125   6.176  0.0608 -1.2553  0.9190
10286SOL    HW231429   4.239   6.026   6.189  0.3472 -1.5622  1.1131
10287SOL     OW31430   7.205   3.895   1.152  0.2248  0.7941 -0.5320
10287SOL    HW131431   7.162   3.979   1.168  0.0927  0.8928 -1.3664
10287SOL    HW231432   7.298   3.915   1.157  0.2682  0.2799  2.8714
10288SOL     OW31433   6.713   7.003   3.830 -0.2149  0.1319  0.1582
10288SOL    HW131434   6.650   7.053   3.882 -0.2351  0.9902 -0.6642
10288SOL    HW231435   6.709   6.914   3.866 -1.6805  0.2426  0.3052
10289SOL     OW31436   3.125   7.269   4.050 -0.0812  0.4461  0.9292
10289SOL    HW131437   3.114   7.340   4.113  1.0465  0.3168  1.2835
10289SOL    HW231438   3.092   7.305   3.967 -1.7472  0.5525  1.5966
10290SOL     OW31439   7.387   5.420   2.411  0.2216  0.8129 -0.2128
10290SOL    HW131440   7.404   5.407   2.318 -0.0327 -0.1735 -0.1306
10290SOL    HW231441   7.310   5.477   2.414  0.0961  0.6629 -0.5991
10291SOL     OW31442   4.545   5.182   5.861 -0.4339 -0.4738  0.2110
10291SOL    HW131443   4.636   5.210   5.868 -0.6406  0.0742  0.8006
10291SOL    HW231444   4.543   5.095   5.901 -0.3711 -0.0258  1.2229
10292SOL     OW31445   2.109   5.456   6.630 -0.0697  0.4079  0.2140
10292SOL    HW131446   2.096   5.379   6.575 -0.9505  0.7351 -0.0591
10292SOL    HW231447   2.068   5.527   6.581 -2.3125  0.4323  1.9685
10293SOL     OW31448   3.586   1.926   6.909 -0.1329  0.5227  0.2303
10293SOL    HW131449   3.656   1.904   6.970  1.9064  1.4690 -1.6034
10293SOL    HW231450   3.530   1.848   6.907  0.4042  0.0207  2.3179
10294SOL     OW31451   0.795   6.772   3.101 -0.5724 -0.1711 -0.4254
10294SOL    HW131452   0.886   6.751   3.078 -1.0826 -0.8467 -1.9337
10294SOL    HW231453   0.784   6.734   3.188  0.5498 -0.1911 -0.2686
10295SOL     OW31454   2.164   6.412   3.177  0.0258 -0.3432  0.5222
10295SOL    HW131455   2.115   6.341   3.136 -0.1250 -1.5052  2.5774
10295SOL    HW231456   2.098   6.478   3.197  0.0718  0.1486 -0.8224
10296SOL     OW31457   6.502   3.862   0.805  0.2413  0.1442 -0.3274
10296SOL    HW131458   6.507   3.887   0.897 -0.2790  0.2841 -0.3317
10296SOL    HW231459   6.419   3.899   0.775  0.1129 -0.4306 -0.6924
10297SOL     OW31460   5.397   3.599   4.959 -0.4326 -0.0893  0.0256
10297SOL    HW131461   5.301   3.592   4.953 -0.5341  1.2037  0.0051
10297SOL    HW231462   5.413   3.668   5.022  0.4777  0.3185 -0.6255
10298SOL     OW31463   2.787   1.144   2.206  0.2795  0.6553 -0.4320
10298SOL    HW131464   2.729   1.205   2.159 -0.0544  0.5520 -0.1597
10298SOL    HW231465   2.807   1.190   2.288 -1.7924 -0.5017  0.8058
10299SOL     OW31466   0.523   7.113   5.140  0.0999 -0.2147 -0.3260
10299SOL    HW131467   0.610   7.152   5.153 -0.5560  0.8973  1.0538
10299SOL    HW231468   0.504   7.070   5.223 -1.3804  1.0972  0.0538
10300SOL     OW31469   6.147   3.491   5.003 -0.1454  0.2749  0.3640
10300SOL    HW131470   6.181   3.444   4.927  0.5957 -0.6701  1.2556
10300SOL    HW231471   6.202   3.569   5.010 -2.3727  2.2773 -2.0768
10301SOL     OW31472   1.189   5.273   5.799  0.1211 -0.0720 -0.4940
10301SOL    HW131473   1.182   5.365   5.776 -1.4372 -0.2294 -0.7724
10301SOL    HW231474   1.267   5.242   5.752 -0.5754  0.6099 -2.1629
10302SOL     OW31475   3.243   2.061   1.379  0.6765 -0.3202  0.1646
10302SOL    HW131476   3.265   2.067   1.286 -0.6377  0.6628 -0.1125
10302SOL    HW231477   3.287   2.136   1.419  2.6341 -1.6627  0.6803
10303SOL     OW31478   5.563   0.647   5.007  0.2844  0.1319 -0.2173
10303SOL    HW131479   5.468   0.645   5.004  0.2263 -0.4525  1.1170
10303SOL    HW231480   5.591   0.637   4.916 -0.9147  2.0066 -0.8470
10304SOL     OW31481   2.507   1.269   7.148  0.1234  0.1719 -0.3132
10304SOL    HW131482   2.489   1.358   7.118  0.5795  0.5655  0.5357
10304SOL    HW231483   2.601   1.258   7.137  0.3813  0.4906  1.3391
10305SOL     OW31484   6.125   2.122   6.768  0.2406  0.1475  0.0099
10305SOL    HW131485   6.173   2.078   6.698  1.3493  0.3022  0.6552
10305SOL    HW231486   6.077   2.193   6.724  0.8582  0.1927 -0.5969
10306SOL     OW31487   6.415   7.093   0.502 -0.1922  0.1912  0.1584
10306SOL    HW131488   6.338   7.036   0.499 -1.9959  2.3558  1.6868
10306SOL    HW231489   6.430   7.118   0.411 -0.9987 -0.6123 -0.2214
10307SOL     OW31490   2.695   7.194   1.634 -0.8405 -0.2105 -0.3107
10307SOL    HW131491   2.691   7.270   1.576 -1.4294  0.4242  0.5370
10307SOL    HW231492   2.716   7.121   1.576 -1.5154  0.3883 -1.3484
10308SOL     OW31493   5.787   7.022   5.934  0.0371  0.4567 -0.2135
10308SOL    HW131494   5.764   7.112   5.959 -0.4157  0.5227 -0.8485
10308SOL    HW231495   5.704   6.983   5.907  0.4925  0.3634 -1.5279
10309SOL     OW31496   2.196   3.044   4.043 -0.3780  0.2859  0.1080
10309SOL    HW131497   2.202   3.024   4.136 -2.3180 -0.6834  0.0763
10309SOL    HW231498   2.102   3.044   4.025 -0.0101 -0.4710 -2.0441
10310SOL     OW31499   0.634   5.303   7.251 -0.1759 -0.2386 -0.9281
10310SOL    HW131500   0.663   5.216   7.278  1.7051  1.3740  3.0936
10310SOL    HW231501   0.541   5.306   7.273  0.3199 -0.5205  1.5643
10311SOL     OW31502   2.958   0.800   4.318 -0.2728 -0.5646  0.3692
10311SOL    HW131503   2.955   0.876   4.377 -1.8695  1.2503 -1.8733
10311SOL    HW231504   2.934   0.726   4.373  0.7093  0.6242  2.5126
10312SOL     OW31505   5.723   4.304   4.954 -0.0534  0.3188  0.2878
10312SOL    HW131506   5.790   4.244   4.921 -0.4909 -0.9515  1.6386
10312SOL    HW231507   5.667   4.320   4.878 -0.3160 -1.5328  0.0416
10313SOL     OW31508   4.786   2.348   1.592  0.0526 -0.0548 -0.9259
10313SOL    HW131509   4.843   2.399   1.535  0.1046  0.2030 -0.6454
10313SOL    HW231510   4.698   2.380   1.573  0.2678  2.1286  1.1742
10314SOL     OW31511   1.318   2.051   4.640 -0.5218 -0.1388 -0.4272
10314SOL    HW131512   1.273   2.033   4.722 -1.2266 -1.7469 -1.1258
10314SOL    HW231513   1.256   2.104   4.590 -0.4686  0.0687 -0.2715
10315SOL     OW31514   2.842   6.124   4.345 -0.0321  0.2937  0.4898
10315SOL    HW131515   2.778   6.055   4.363 -0.4384  0.1756 -1.2054
10315SOL    HW231516   2.807   6.202   4.389 -1.3254  0.2120 -0.3446
10316SOL     OW31517   6.512   7.300   4.822  0.1938 -0.2775  0.1533
10316SOL    HW131518   6.558   7.380   4.849 -0.0511 -0.7116  2.0235
10316SOL    HW231519   6.559   7.230   4.868 -0.8346 -0.9848  0.1536
10317SOL     OW31520   1.956   4.728   6.591 -0.0547  0.4079 -1.0514
10317SOL    HW131521   2.033   4.775   6.623 -0.8155  2.2455 -1.7436
10317SOL    HW231522   1.979   4.703   6.502  0.0030  0.3222 -1.0127
10318SOL     OW31523   1.796   6.042   6.109 -0.4397  0.6861  0.5261
10318SOL    HW131524   1.804   6.064   6.016  0.0532 -3.6618 -0.6976
10318SOL    HW231525   1.874   5.990   6.128 -0.9772  0.7011  3.1279
10319SOL     OW31526   0.966   6.128   5.926 -0.2505 -0.2166  0.0817
10319SOL    HW131527   0.971   6.071   6.002  0.8661 -1.2714 -0.7414
10319SOL    HW231528   0.955   6.216   5.962 -0.1804 -0.7430  1.4254
10320SOL     OW31529   4.925   2.239   5.669  0.1784  0.5840  0.6807
10320SOL    HW131530   4.973   2.294   5.730  0.3775 -0.3315  1.3750
10320SOL    HW231531   4.883   2.301   5.609  0.6861  1.4662  1.2073
10321SOL     OW31532   5.831   1.701   0.251  0.0292 -0.2467 -0.0237
10321SOL    HW131533   5.846   1.749   0.170 -0.4303  0.3248  0.2266
10321SOL    HW231534   5.907   1.643   0.259  1.9482  2.2544  0.9859
10322SOL     OW31535   1.706   1.087   0.777  0.3517  0.2855 -0.2727
10322SOL    HW131536   1.624   1.095   0.727  0.2591  1.3860  0.0159
10322SOL    HW231537   1.705   1.163   0.836  1.8651  0.6720 -0.7013
10323SOL     OW31538   3.237   4.045   1.099  0.5853  0.7510 -0.6332
10323SOL    HW131539   3.159   4.093   1.071  2.0562  3.6155 -0.2150
10323SOL    HW231540   3.280   4.018   1.017  0.4150  1.3699 -0.9316
10324SOL     OW31541   3.956   7.048   3.491 -0.0593 -0.4657  0.1647
10324SOL    HW131542   3.888   7.079   3.431  0.7151 -0.6074 -0.8228
10324SOL    HW231543   4.038   7.061   3.442  0.4115 -2.8792  0.1769
10325SOL     OW31544   7.112   3.873   6.531  0.5088  0.0372  0.0470
10325SOL    HW131545   7.079   3.959   6.554  0.3326 -0.5495  2.1681
10325SOL    HW231546   7.202   3.871   6.565  0.5337 -0.5968 -0.0325
10326SOL     OW31547   4.945   5.975   4.381  0.0843  0.5328 -0.3362
10326SOL    HW131548   5.005   5.937   4.316  0.0500  1.0041 -0.6442
10326SOL    HW231549   5.002   6.001   4.453  0.0514 -0.6100  0.1326
10327SOL     OW31550   1.333   7.164   0.569 -0.4712 -0.0035  0.5631
10327SOL    HW131551   1.399   7.169   0.500 -1.1287 -3.2720 -0.5119
10327SOL    HW231552   1.251   7.149   0.521 -0.8754 -2.9170  1.9573
10328SOL     OW31553   5.289   7.015   0.013 -0.8953 -0.1824 -0.0546
10328SOL    HW131554   5.302   6.956  -0.062 -2.3272  0.0847 -0.5554
10328SOL    HW231555   5.297   7.102  -0.025  0.4718 -0.0213  0.5428
10329SOL     OW31556   5.736   6.765   4.368  0.8223  0.5322 -0.6081
10329SOL    HW131557   5.791   6.687   4.379 -0.5482 -0.3778  0.0905
10329SOL    HW231558   5.706   6.786   4.456 -0.0749  0.8993 -0.9895
10330SOL     OW31559   2.130   3.789   2.728  0.1689 -0.0506  0.2468
10330SOL    HW131560   2.094   3.795   2.817 -0.3310 -0.2306  0.0582
10330SOL    HW231561   2.072   3.842   2.675  0.3536 -0.1035 -0.0077
10331SOL     OW31562   3.428   5.450   0.525  0.0124 -0.4769  0.0007
10331SOL    HW131563   3.474   5.422   0.605  1.5218  2.3523  0.2669
10331SOL    HW231564   3.487   5.426   0.454  0.2421 -0.0112  0.0330
10332SOL     OW31565   0.119   7.300   4.461  0.2493 -0.5881  0.1612
10332SOL    HW131566   0.100   7.207   4.473  1.5664 -0.8097  0.7310
10332SOL    HW231567   0.214   7.304   4.453  0.1295  0.5965 -1.0588
10333SOL     OW31568   5.059   7.193   5.640  0.9665  0.1654 -0.5315
10333SOL    HW131569   5.147   7.170   5.609  1.4316  1.0503  0.0911
10333SOL    HW231570   5.060   7.171   5.733 -0.0071 -1.2801 -0.8208
10334SOL     OW31571   2.460   5.224   2.271  0.5051  0.7821 -0.0393
10334SOL    HW131572   2.428   5.203   2.184 -2.3420  0.8287  0.9057
10334SOL    HW231573   2.489   5.316   2.265 -0.9582  1.2273 -0.6492
10335SOL     OW31574   4.641   4.418   3.907 -0.0356 -0.6473  0.0790
10335SOL    HW131575   4.736   4.408   3.894  0.1651  1.5714 -0.5107
10335SOL    HW231576   4.634   4.474   3.985 -0.8702 -0.8434  0.1502
10336SOL     OW31577   2.100   5.033   1.229 -0.5328 -0.6320  0.1769
10336SOL    HW131578   2.174   5.089   1.204 -0.7772 -0.3756  0.0256
10336SOL    HW231579   2.110   4.955   1.176 -1.0613 -0.0806 -0.7564
10337SOL     OW31580   2.584   3.654   4.585 -0.5762  0.1948  0.3935
10337SOL    HW131581   2.629   3.712   4.525  1.0413 -1.4439 -0.0799
10337SOL    HW231582   2.632   3.663   4.668 -0.5882 -0.1250  0.4384
10338SOL     OW31583   4.861   5.437   3.187  0.5312  0.1849 -0.3725
10338SOL    HW131584   4.772   5.467   3.204  0.5472 -1.0697  2.5468
10338SOL    HW231585   4.851   5.345   3.162  0.9721  0.0281 -0.0061
10339SOL     OW31586   6.129   6.504   4.335  0.2668  0.2407 -0.1493
10339SOL    HW131587   6.061   6.534   4.396 -0.2076 -2.6404  0.8727
10339SOL    HW231588   6.211   6.522   4.379  0.1070  1.3621 -0.2588
10340SOL     OW31589   6.938   4.742   5.191 -0.0023 -0.3957 -0.3495
10340SOL    HW131590   6.968   4.824   5.231 -0.5066  0.2723 -1.3091
10340SOL    HW231591   7.001   4.725   5.121  0.5337 -1.2447  0.3136
10341SOL     OW31592   2.780   4.992   7.315 -0.1241 -0.5701  0.2371
10341SOL    HW131593   2.814   4.927   7.376 -2.6149 -0.0634  2.3460
10341SOL    HW231594   2.736   5.057   7.370 -0.4192  1.2570 -1.9767
10342SOL     OW31595   2.712   5.096   3.618  0.1943 -0.2268 -0.2520
10342SOL    HW131596   2.697   5.098   3.712  1.7994  0.3473  0.0142
10342SOL    HW231597   2.677   5.011   3.590 -0.6164 -0.2530  0.7873
10343SOL     OW31598   4.392   2.539   2.286 -0.7698  0.9301  0.2962
10343SOL    HW131599   4.335   2.530   2.362 -0.0813  0.7618  0.8025
10343SOL    HW231600   4.475   2.571   2.322 -0.2404  0.2628 -0.2957
10344SOL     OW31601   2.581   4.437   3.313  0.0476 -0.5474  0.1949
10344SOL    HW131602   2.510   4.484   3.268 -0.2000 -0.5933  0.5359
10344SOL    HW231603   2.637   4.406   3.242 -0.1395 -0.2997 -0.0667
10345SOL     OW31604   1.522   6.258   0.534 -0.0038 -0.4001 -0.1509
10345SOL    HW131605   1.452   6.209   0.579  0.4913 -0.4466  0.5931
10345SOL    HW231606   1.584   6.279   0.604  0.1953  0.5849 -0.6043
10346SOL     OW31607   1.174   5.503   5.043 -0.0276 -0.1932 -0.1374
10346SOL    HW131608   1.122   5.444   5.098 -1.0331  1.1333  0.3839
10346SOL    HW231609   1.140   5.489   4.954 -0.0302 -0.6274 -0.0715
10347SOL     OW31610   3.148   3.350   6.616  0.3560 -0.5005  0.2282
10347SOL    HW131611   3.231   3.385   6.585 -0.4140  1.0822 -0.1327
10347SOL    HW231612   3.164   3.330   6.709  1.0412  0.0764  0.2458
10348SOL     OW31613   3.601   1.696   4.448  0.5414  0.7442  0.7326
10348SOL    HW131614   3.624   1.741   4.367 -0.9745  0.2874 -0.0042
10348SOL    HW231615   3.505   1.689   4.444  0.5926 -1.0053  1.6309
10349SOL     OW31616   7.061   5.628   4.754 -0.3608 -0.2340  0.2778
10349SOL    HW131617   6.981   5.576   4.743 -1.1113  1.0969 -0.7757
10349SOL    HW231618   7.119   5.596   4.685  0.1539 -1.3771  1.1995
10350SOL     OW31619   5.837   1.009   1.794 -0.3458 -0.3582  0.4865
10350SOL    HW131620   5.831   0.938   1.858  3.6819 -0.9418  0.4698
10350SOL    HW231621   5.812   0.968   1.711 -0.0812 -1.2107  0.8161
10351SOL     OW31622   2.171   6.182   3.617  0.0534  0.0536  0.2173
10351SOL    HW131623   2.138   6.092   3.616 -1.6096  0.6241 -1.2248
10351SOL    HW231624   2.191   6.201   3.526 -1.1020  1.6296  0.2513
10352SOL     OW31625   5.285   2.215   7.358 -0.0990  0.0686  0.3382
10352SOL    HW131626   5.217   2.281   7.347 -0.7988 -0.8175 -1.0048
10352SOL    HW231627   5.347   2.254   7.419 -1.1416  1.4308  0.5783
10353SOL     OW31628   4.353   7.098   6.816  0.6964  0.1104  0.3842
10353SOL    HW131629   4.300   7.030   6.858  0.3529 -0.4662 -0.9270
10353SOL    HW231630   4.308   7.116   6.734  1.0138  1.6572  0.5246
10354SOL     OW31631   2.401   1.647   4.972 -0.1514  0.3283  0.6506
10354SOL    HW131632   2.321   1.629   5.021  0.4452 -0.3092  1.4255
10354SOL    HW231633   2.387   1.606   4.887 -0.7275  0.3957  0.7116
10355SOL     OW31634   0.164   1.732   3.005  0.0317  0.4698  0.6420
10355SOL    HW131635   0.143   1.760   2.916 -0.1946  2.4598  1.2690
10355SOL    HW231636   0.185   1.639   2.997  1.7535  0.9735 -1.7716
10356SOL     OW31637   5.439   0.717   4.029 -0.3604  0.3722 -0.3198
10356SOL    HW131638   5.440   0.737   3.936  0.0592 -1.6942 -0.7890
10356SOL    HW231639   5.531   0.718   4.055 -0.3564 -0.4850 -0.2713
10357SOL     OW31640   1.004   2.659   4.939 -0.0032  0.1491 -0.2041
10357SOL    HW131641   0.960   2.717   5.002 -0.1001  0.7526 -0.8209
10357SOL    HW231642   1.089   2.700   4.924  0.0687 -0.0625 -0.3669
10358SOL     OW31643   6.578   5.593   5.718  0.0802  0.1307  0.1484
10358SOL    HW131644   6.603   5.527   5.783  0.8784  0.5086  0.2382
10358SOL    HW231645   6.582   5.548   5.634 -1.7744 -0.5956  0.4087
10359SOL     OW31646   3.574   2.405   5.883  0.3528  0.4219  0.7575
10359SOL    HW131647   3.595   2.482   5.830  0.0111 -0.0718 -0.1043
10359SOL    HW231648   3.487   2.425   5.920 -0.9536 -0.6053 -1.5594
10360SOL     OW31649   0.896   0.201   6.541  0.2497 -0.0280 -0.7438
10360SOL    HW131650   0.826   0.264   6.528  0.8568  0.1174 -3.9235
10360SOL    HW231651   0.955   0.244   6.604 -0.9796  1.1084 -0.3291
10361SOL     OW31652   1.657   3.697   5.736  0.2710 -0.5701 -0.0413
10361SOL    HW131653   1.596   3.654   5.676 -0.0576  0.6483 -0.6159
10361SOL    HW231654   1.629   3.789   5.737 -0.6090 -0.7591  3.0515
10362SOL     OW31655   6.938   6.700   6.080 -0.0014  0.2380  0.5100
10362SOL    HW131656   7.010   6.762   6.088 -0.1295  0.6164 -0.8488
10362SOL    HW231657   6.860   6.756   6.075  0.0320  0.2269 -2.8533
10363SOL     OW31658   5.339   2.317   6.752 -0.0666 -0.1935  0.5181
10363SOL    HW131659   5.292   2.360   6.681  1.1996  0.1455 -0.1543
10363SOL    HW231660   5.278   2.252   6.786 -0.2081 -1.4762 -1.9404
10364SOL     OW31661   5.200   2.114   6.024 -0.6001  0.4647 -0.5904
10364SOL    HW131662   5.151   2.062   6.087 -1.2695 -1.6913 -2.7283
10364SOL    HW231663   5.280   2.064   6.009 -0.0604  1.3795 -0.8418
10365SOL     OW31664   5.568   2.439   6.224  0.2058  0.7379 -0.4012
10365SOL    HW131665   5.474   2.452   6.210 -0.3223 -1.0736  0.9965
10365SOL    HW231666   5.601   2.409   6.139 -1.1130 -1.4116 -0.2452
10366SOL     OW31667   0.667   6.455   3.586  0.1264 -0.1907 -0.1746
10366SOL    HW131668   0.580   6.431   3.554 -1.2868  1.9535  1.8073
10366SOL    HW231669   0.679   6.401   3.665 -0.0739  0.5796  0.3911
10367SOL     OW31670   1.470   1.894   5.862 -0.3462  0.3832 -0.0978
10367SOL    HW131671   1.409   1.834   5.906 -0.6134  1.2818  0.7944
10367SOL    HW231672   1.415   1.939   5.797  0.0149 -0.8325 -1.2916
10368SOL     OW31673   4.658   7.026   3.870  0.7811 -0.0893  0.6853
10368SOL    HW131674   4.637   7.039   3.962 -0.2973  0.8317  0.3265
10368SOL    HW231675   4.619   6.941   3.848  2.3741 -1.0557  1.4385
10369SOL     OW31676   0.260   5.181   1.938  0.5711  0.1139 -0.3663
10369SOL    HW131677   0.356   5.188   1.941  0.8857 -2.2033 -2.1868
10369SOL    HW231678   0.239   5.193   1.845 -0.9645  0.8755  0.0533
10370SOL     OW31679   7.242   1.692   4.940  0.6012 -0.0791 -0.1821
10370SOL    HW131680   7.182   1.618   4.950 -0.8019  0.8412 -1.3735
10370SOL    HW231681   7.301   1.666   4.869  0.6729 -0.3915 -0.0113
10371SOL     OW31682   1.778   2.030   6.015 -0.1030 -0.1620  0.5418
10371SOL    HW131683   1.753   2.121   6.032 -0.2567 -0.1804  0.4271
10371SOL    HW231684   1.717   1.978   6.067 -0.3971 -0.2106  0.1608
10372SOL     OW31685   2.219   3.161   0.112  0.7347 -0.2255 -0.4752
10372SOL    HW131686   2.235   3.165   0.206 -1.3002 -0.7061 -0.0667
10372SOL    HW231687   2.179   3.246   0.091 -0.5196 -0.8079 -0.5205
10373SOL     OW31688   3.616   0.504   2.245  0.2493  0.3150 -0.3758
10373SOL    HW131689   3.646   0.414   2.235 -1.0305 -0.2788  0.7555
10373SOL    HW231690   3.681   0.556   2.199  1.7523 -1.0705  0.0696
10374SOL     OW31691   6.317   1.425   1.663  0.0835 -0.6398  0.1577
10374SOL    HW131692   6.259   1.446   1.736 -0.4540  1.3300 -0.7639
10374SOL    HW231693   6.396   1.390   1.704 -0.4021 -0.0520  1.6568
10375SOL     OW31694   6.058   4.878   3.651 -0.1116 -0.0829 -0.3840
10375SOL    HW131695   6.119   4.929   3.704 -0.7891 -0.0190  0.3552
10375SOL    HW231696   5.996   4.942   3.616  0.7129 -0.0280 -1.8341
10376SOL     OW31697   1.738   0.857   0.079  0.0265  0.0485 -0.1121
10376SOL    HW131698   1.713   0.826   0.166 -0.4206 -2.3668 -1.0428
10376SOL    HW231699   1.698   0.944   0.072 -2.4919 -0.9524  0.9824
10377SOL     OW31700   1.740   0.624   2.053 -0.6363 -0.1799 -0.2104
10377SOL    HW131701   1.729   0.688   1.982  2.1645 -0.6910 -1.2305
10377SOL    HW231702   1.678   0.652   2.120 -0.7296  2.5780 -1.3237
10378SOL     OW31703   1.632   5.403   2.336 -0.3667 -0.2953 -0.0595
10378SOL    HW131704   1.592   5.334   2.283 -0.8350 -0.0252 -0.0641
10378SOL    HW231705   1.638   5.365   2.424 -0.4944 -0.3891 -0.0908
10379SOL     OW31706   3.657   6.295   3.183  0.2295 -0.2805 -0.1367
10379SOL    HW131707   3.675   6.220   3.127  0.3490 -0.8010  0.5825
10379SOL    HW231708   3.563   6.312   3.172  0.3554 -0.0228 -0.9057
10380SOL     OW31709   2.986   6.328   0.670  0.5238  0.1939 -0.1734
10380SOL    HW131710   3.031   6.264   0.614 -1.4819 -1.2098 -0.2871
10380SOL    HW231711   2.893   6.310   0.657 -0.0677  0.2737  3.0532
10381SOL     OW31712   4.069   6.785   5.821 -0.0786 -0.1073  0.1405
10381SOL    HW131713   4.019   6.860   5.854  1.8897  0.4280  2.2076
10381SOL    HW231714   4.003   6.718   5.803 -1.6070  0.6997  2.2906
10382SOL     OW31715   6.503   6.310   7.306  0.7731  0.3274 -0.6599
10382SOL    HW131716   6.569   6.333   7.371  0.2995 -1.3224  0.4679
10382SOL    HW231717   6.554   6.287   7.228  1.3438  2.4264 -0.9732
10383SOL     OW31718   4.759   2.945   4.279 -0.0963  0.0865  0.5445
10383SOL    HW131719   4.699   3.014   4.307  0.8122  1.4464 -0.7251
10383SOL    HW231720   4.835   2.955   4.336  0.0829  0.2202  0.2843
10384SOL     OW31721   6.472   1.426   2.853  0.1927 -0.0767 -0.2246
10384SOL    HW131722   6.494   1.461   2.766  1.0180  1.4732  0.5566
10384SOL    HW231723   6.428   1.343   2.835  1.0843 -0.2047 -2.1007
10385SOL     OW31724   5.941   2.020   3.991 -0.3597 -0.1428 -0.2839
10385SOL    HW131725   5.925   2.114   3.991 -0.5570 -0.1341 -1.9970
10385SOL    HW231726   5.853   1.981   3.991 -0.2786 -0.3379  0.3763
10386SOL     OW31727   6.444   1.655   0.407 -0.0584 -0.4224 -0.0110
10386SOL    HW131728   6.510   1.604   0.455  0.3550  0.0937 -0.0223
10386SOL    HW231729   6.412   1.595   0.339  0.8556 -0.4807 -0.4078
10387SOL     OW31730   4.707   3.924   7.407 -0.1599 -0.1678  0.0162
10387SOL    HW131731   4.753   3.871   7.342  0.9131  0.9279 -0.1497
10387SOL    HW231732   4.620   3.938   7.369  0.5226  0.6436 -1.2991
10388SOL     OW31733   2.125   2.422   0.985  0.3658 -0.1443  0.2748
10388SOL    HW131734   2.094   2.436   0.895  2.9764 -2.3379 -1.0972
10388SOL    HW231735   2.097   2.334   1.007  1.5992 -0.4393  0.7522
10389SOL     OW31736   5.750   6.302   5.090 -0.3107 -0.2543  0.0844
10389SOL    HW131737   5.770   6.224   5.143 -0.6557 -0.1525  0.3679
10389SOL    HW231738   5.725   6.267   5.005  1.6420 -0.3733 -0.4986
10390SOL     OW31739   1.703   3.382   7.271  0.1003 -0.1269 -0.3012
10390SOL    HW131740   1.786   3.412   7.306  0.8927  0.1871 -2.3274
10390SOL    HW231741   1.724   3.302   7.223 -1.0133 -0.7819  0.2583
10391SOL     OW31742   1.054   2.668   2.880  0.2509 -0.1636  0.7690
10391SOL    HW131743   1.071   2.634   2.792  1.0164 -0.8547  1.1725
10391SOL    HW231744   1.134   2.649   2.930  0.3104  1.3221  1.3026
10392SOL     OW31745   3.131   5.485   3.181  0.0910 -0.0904 -0.0443
10392SOL    HW131746   3.175   5.468   3.264  1.2790 -0.7381 -0.7708
10392SOL    HW231747   3.070   5.412   3.171  0.8852 -0.7317 -0.3340
10393SOL     OW31748   3.031   1.341   2.693  0.6221  0.2781  0.1363
10393SOL    HW131749   2.961   1.351   2.757  1.1530 -0.8609  0.9292
10393SOL    HW231750   3.056   1.249   2.698  2.4713  0.7295  0.1967
10394SOL     OW31751   6.432   4.713   7.223  0.1945 -0.1042 -0.1177
10394SOL    HW131752   6.426   4.624   7.257 -0.9037  0.5287  1.4623
10394SOL    HW231753   6.376   4.713   7.145 -1.4264 -0.3362  0.9947
10395SOL     OW31754   1.924   0.303   1.845  0.4067 -0.5246  0.1468
10395SOL    HW131755   1.832   0.326   1.833  0.6121 -0.3808 -1.2565
10395SOL    HW231756   1.922   0.228   1.904 -0.6831 -1.2082 -0.7204
10396SOL     OW31757   0.812   7.141   5.135  0.3186 -0.6839  0.0129
10396SOL    HW131758   0.845   7.206   5.072  1.2783  0.4640  1.6475
10396SOL    HW231759   0.842   7.057   5.100  2.6467  0.0950 -0.0193
10397SOL     OW31760   2.096   7.128   6.451 -0.1844  0.0611  0.3136
10397SOL    HW131761   2.089   7.076   6.531 -1.1767 -1.2498 -0.5858
10397SOL    HW231762   2.099   7.219   6.482 -0.4398 -0.4200  1.8375
10398SOL     OW31763   5.551   3.429   7.326 -0.2938  0.4882  0.3734
10398SOL    HW131764   5.624   3.371   7.348  0.2305  0.8109 -0.4957
10398SOL    HW231765   5.562   3.505   7.384  0.9580  1.2359 -0.7952
10399SOL     OW31766   5.948   0.830   6.689  0.1630 -0.4835  0.2431
10399SOL    HW131767   5.983   0.919   6.692 -0.9106 -0.0253 -0.3308
10399SOL    HW231768   5.916   0.814   6.778 -0.4259  0.0489  0.1411
10400SOL     OW31769   0.168   6.106   3.489 -0.4690 -0.0284 -0.1526
10400SOL    HW131770   0.170   6.132   3.397  0.1338  0.8351  0.0933
10400SOL    HW231771   0.075   6.105   3.512 -0.5532  0.9469 -0.4415
10401SOL     OW31772   6.924   4.999   5.066 -0.2718  0.4606  0.6913
10401SOL    HW131773   6.908   5.044   5.149  0.3823 -1.3241  1.8338
10401SOL    HW231774   7.006   4.953   5.079  0.0368  0.4426 -1.1114
10402SOL     OW31775   4.861   3.331   2.575  0.1768 -0.5844  0.4791
10402SOL    HW131776   4.923   3.404   2.584 -0.9324  0.5517 -0.7670
10402SOL    HW231777   4.898   3.277   2.505 -0.5596  0.4735 -0.7602
10403SOL     OW31778   3.870   0.647   6.470 -0.2764  0.0312  0.3523
10403SOL    HW131779   3.938   0.610   6.525 -0.6880 -1.4773 -0.0872
10403SOL    HW231780   3.869   0.740   6.491  0.6861 -0.2315  1.6657
10404SOL     OW31781   3.243   3.580   2.225 -0.1414 -0.2299  0.0390
10404SOL    HW131782   3.304   3.547   2.292 -1.8980  1.0730  2.4473
10404SOL    HW231783   3.198   3.501   2.194 -0.6206 -0.7107  1.8372
10405SOL     OW31784   1.437   3.536   2.231 -0.7676 -0.2597  0.4186
10405SOL    HW131785   1.479   3.536   2.145 -1.2263  0.6258  0.1825
10405SOL    HW231786   1.429   3.444   2.254  0.2403 -0.4824 -0.0513
10406SOL     OW31787   4.785   3.897   5.766  0.5112  0.1135  0.5194
10406SOL    HW131788   4.764   3.896   5.859 -0.9898  1.4599  0.2320
10406SOL    HW231789   4.706   3.864   5.723  1.7866 -2.1980 -0.2479
10407SOL     OW31790   6.229   3.382   6.101 -0.2263 -0.6829  0.5136
10407SOL    HW131791   6.178   3.301   6.094 -0.4223 -0.4529 -1.1108
10407SOL    HW231792   6.167   3.446   6.135 -0.7619 -0.6512 -0.4848
10408SOL     OW31793   0.203   4.427   5.464  0.2659 -0.1544  0.4897
10408SOL    HW131794   0.258   4.501   5.492 -0.1085 -0.5274  2.3358
10408SOL    HW231795   0.219   4.360   5.530  0.0961 -1.5056 -0.8015
10409SOL     OW31796   5.970   1.843   0.058 -0.6429 -0.2408  0.4623
10409SOL    HW131797   5.978   1.936   0.080  0.8378  0.0976 -1.2521
10409SOL    HW231798   5.895   1.838  -0.001 -0.3742 -0.0258  0.0973
10410SOL     OW31799   3.873   3.593   4.195  0.3007  0.4779  0.8359
10410SOL    HW131800   3.910   3.588   4.107  1.0748  1.3724  1.0946
10410SOL    HW231801   3.938   3.552   4.251  0.9114  1.9893  1.2844
10411SOL     OW31802   5.553   6.218   1.608  0.4025  0.6419 -0.3972
10411SOL    HW131803   5.476   6.213   1.665  0.9533  1.0475  0.3859
10411SOL    HW231804   5.627   6.201   1.665  0.8558 -0.7636 -1.3355
10412SOL     OW31805   4.256   5.968   7.169  0.2264  0.0226  0.4354
10412SOL    HW131806   4.204   5.966   7.088 -2.2477  1.1858  1.8593
10412SOL    HW231807   4.213   5.904   7.226  1.9827 -0.8324  0.8565
10413SOL     OW31808   6.103   3.764   3.692  0.0203  0.2634 -0.2959
10413SOL    HW131809   6.189   3.796   3.718  0.2981 -0.1858 -0.6505
10413SOL    HW231810   6.042   3.830   3.725  0.4447  0.2632  0.5026
10414SOL     OW31811   1.550   4.000   1.862  0.1474  0.0500  0.2568
10414SOL    HW131812   1.489   4.032   1.929 -1.8617 -0.9617 -0.9932
10414SOL    HW231813   1.603   3.934   1.906  0.1733  0.7552  1.3068
10415SOL     OW31814   0.353   4.091   0.193 -0.3858  0.2335 -0.6293
10415SOL    HW131815   0.430   4.071   0.141  0.6151  0.3901  0.7266
10415SOL    HW231816   0.310   4.007   0.207  0.8337 -0.2284  0.5338
10416SOL     OW31817   6.353   7.113   3.726  0.0074  0.5184 -0.0212
10416SOL    HW131818   6.391   7.186   3.676  0.2907  1.2467  1.2142
10416SOL    HW231819   6.273   7.149   3.764 -0.8605 -0.3953 -0.9078
10417SOL     OW31820   1.720   5.306   7.301 -0.5057 -0.1470 -0.2098
10417SOL    HW131821   1.691   5.341   7.385 -3.4358 -0.0120 -1.1975
10417SOL    HW231822   1.739   5.383   7.248  2.1220 -0.2197  0.4411
10418SOL     OW31823   5.334   1.849   1.298 -0.1368  0.0748 -0.2182
10418SOL    HW131824   5.339   1.801   1.215 -1.3254  2.0478 -1.4982
10418SOL    HW231825   5.284   1.791   1.356 -0.7839 -0.6140 -1.4225
10419SOL     OW31826   4.207   4.503   3.218 -0.8187  0.2605 -0.0347
10419SOL    HW131827   4.166   4.588   3.232  0.3819  0.6529  1.2755
10419SOL    HW231828   4.140   4.439   3.242 -1.5615  0.8173 -0.5606
10420SOL     OW31829   2.027   2.123   1.081 -0.1364  1.1715  0.0680
10420SOL    HW131830   1.989   2.144   1.167 -2.6056  0.2865 -0.6963
10420SOL    HW231831   2.033   2.027   1.080 -2.2714  0.9741 -1.4755
10421SOL     OW31832   5.830   3.809   5.434  0.6278  0.3586 -0.0666
10421SOL    HW131833   5.812   3.895   5.396  0.5708  0.0294 -0.8158
10421SOL    HW231834   5.842   3.825   5.527  0.4979  1.1602 -0.1838
10422SOL     OW31835   5.171   0.456   7.331  0.5509  0.2151 -0.0591
10422SOL    HW131836   5.203   0.401   7.260  1.8181  0.1958  0.5033
10422SOL    HW231837   5.233   0.528   7.336 -0.7233  1.3751 -0.3566
10423SOL     OW31838   4.242   7.358   4.234  0.0011  0.0955  0.6068
10423SOL    HW131839   4.257   7.268   4.206 -2.9391 -0.4487  0.4347
10423SOL    HW231840   4.225   7.351   4.328 -0.5328  0.4242  0.5396
10424SOL     OW31841   2.948   6.069   4.908  0.0870 -0.2179  0.1033
10424SOL    HW131842   2.862   6.037   4.879  0.8065 -2.0457 -0.1476
10424SOL    HW231843   2.928   6.139   4.969 -1.5648  0.1425 -0.7873
10425SOL     OW31844   3.861   6.749   5.343  0.3757  0.3799  0.5997
10425SOL    HW131845   3.802   6.710   5.278  2.3125 -1.3546 -0.2325
10425SOL    HW231846   3.884   6.835   5.307 -0.5656  0.5050  0.2786
10426SOL     OW31847   3.889   3.467   4.718  0.0217  0.2185 -0.3922
10426SOL    HW131848   3.953   3.400   4.742 -1.4378 -1.3273 -0.6287
10426SOL    HW231849   3.835   3.478   4.796 -1.1812 -0.6294 -1.0579
10427SOL     OW31850   6.362   4.842   2.408 -0.1492  0.4730  0.0520
10427SOL    HW131851   6.361   4.937   2.416 -2.2733  0.5589 -0.5197
10427SOL    HW231852   6.283   4.822   2.357  0.9756 -1.4993 -1.0364
10428SOL     OW31853   6.082   5.479   2.943 -0.1741  0.3934  0.3595
10428SOL    HW131854   6.128   5.515   3.019 -0.6607 -1.7723  1.7918
10428SOL    HW231855   6.141   5.413   2.908 -0.8093 -0.1045  0.1931
10429SOL     OW31856   0.221   1.188   3.145 -0.2516 -0.4898 -0.3375
10429SOL    HW131857   0.167   1.155   3.217 -0.5875 -1.3767 -0.9755
10429SOL    HW231858   0.310   1.165   3.170 -0.1047  1.1806  0.8271
10430SOL     OW31859   4.530   2.213   7.351  0.3639 -0.0966 -0.1723
10430SOL    HW131860   4.604   2.268   7.327 -0.7608  1.5880  0.0220
10430SOL    HW231861   4.488   2.259   7.424 -0.5287 -1.3245  0.1348
10431SOL     OW31862   6.220   1.543   6.414 -0.4801 -0.2520  0.4071
10431SOL    HW131863   6.251   1.591   6.337  0.5628  0.2679  1.1283
10431SOL    HW231864   6.245   1.453   6.398 -1.7197 -0.4493 -0.5850
10432SOL     OW31865   0.350   4.785   2.583  0.5166  0.2063 -0.1154
10432SOL    HW131866   0.390   4.789   2.670  1.1607  0.7219 -0.4316
10432SOL    HW231867   0.263   4.825   2.596 -0.5036 -2.1055  0.8605
10433SOL     OW31868   5.942   6.198   2.046 -0.0016 -0.1166  0.4342
10433SOL    HW131869   6.029   6.162   2.031  0.1994  0.4040  0.3376
10433SOL    HW231870   5.943   6.224   2.138  0.8241  2.1981 -0.1623
10434SOL     OW31871   6.160   6.599   1.444  0.0401 -0.3000 -0.1514
10434SOL    HW131872   6.093   6.663   1.421 -0.0297 -0.6359 -0.9414
10434SOL    HW231873   6.224   6.606   1.373 -0.4120 -1.7021 -0.7362
10435SOL     OW31874   6.696   2.826   3.547  0.5850  0.3728 -0.5598
10435SOL    HW131875   6.754   2.769   3.598  0.2791  2.4435  2.3642
10435SOL    HW231876   6.615   2.830   3.599  0.1793  2.4659 -1.2472
10436SOL     OW31877   4.479   0.027   2.495  0.0105  0.0467  0.1644
10436SOL    HW131878   4.432   0.098   2.452  0.7453  0.6732  0.3894
10436SOL    HW231879   4.506   0.062   2.579  1.3228 -0.1197 -0.1587
10437SOL     OW31880   1.532   6.863   1.772  0.3271 -0.2453  0.4257
10437SOL    HW131881   1.618   6.859   1.730  0.1114 -0.7510  0.0174
10437SOL    HW231882   1.550   6.845   1.864  0.7448  0.3585  0.4647
10438SOL     OW31883   0.062   7.440   2.906 -0.0141 -0.3696  0.3472
10438SOL    HW131884   0.021   7.405   2.985 -0.6492 -1.5202 -0.4650
10438SOL    HW231885   0.119   7.510   2.938 -0.1532 -0.8934  1.8378
10439SOL     OW31886   3.682   6.134   4.848 -0.0554 -0.0101  0.2529
10439SOL    HW131887   3.595   6.097   4.862  0.7238 -1.7618  0.7665
10439SOL    HW231888   3.735   6.098   4.919  1.5231 -0.4810 -1.1026
10440SOL     OW31889   2.474   4.313   5.086  0.0863  0.7456 -0.1627
10440SOL    HW131890   2.539   4.311   5.156 -0.9796  1.8835  0.9111
10440SOL    HW231891   2.456   4.406   5.072  0.1912  0.5366 -1.9010
10441SOL     OW31892   3.663   1.419   0.090  0.0126 -0.1280 -0.2660
10441SOL    HW131893   3.675   1.406   0.184  0.6690 -0.7695 -0.4317
10441SOL    HW231894   3.622   1.505   0.083  0.0992 -0.0081  0.5994
10442SOL     OW31895   0.479   1.399   4.584 -0.6238  0.1158 -0.3278
10442SOL    HW131896   0.571   1.387   4.561 -0.4990 -0.3271  0.3577
10442SOL    HW231897   0.437   1.319   4.555 -1.0106  0.7872 -1.6619
10443SOL     OW31898   2.616   3.949   2.526 -0.4380 -0.2602 -0.2076
10443SOL    HW131899   2.687   3.898   2.565  0.6234  2.0626  1.1101
10443SOL    HW231900   2.545   3.943   2.591 -0.8758 -1.2121 -0.7492
10444SOL     OW31901   6.162   4.997   5.863  0.0111 -0.1231 -0.2337
10444SOL    HW131902   6.079   4.950   5.860  1.4063 -2.8338  0.1870
10444SOL    HW231903   6.209   4.966   5.785  0.6937  1.2770 -0.4074
10445SOL     OW31904   1.651   0.982   4.677 -0.0568  0.3560  0.8231
10445SOL    HW131905   1.557   0.965   4.672  0.1803 -1.3269  1.3436
10445SOL    HW231906   1.690   0.895   4.688  1.8256  0.6699 -2.3580
10446SOL     OW31907   3.871   0.489   6.788  0.0134  0.1858 -0.3639
10446SOL    HW131908   3.921   0.570   6.798 -0.6952  0.5736  0.1511
10446SOL    HW231909   3.794   0.502   6.843  1.1870 -1.9597  1.9786
10447SOL     OW31910   7.007   3.356   6.648 -0.1569 -0.8028  0.6321
10447SOL    HW131911   6.993   3.385   6.738  1.4978  1.1964  0.3316
10447SOL    HW231912   7.092   3.311   6.650  0.2956 -0.0160 -0.0368
10448SOL     OW31913   2.157   4.480   0.746  0.0905  0.2259 -0.2202
10448SOL    HW131914   2.090   4.419   0.716  0.2370  0.6835 -1.5471
10448SOL    HW231915   2.230   4.424   0.774 -0.4851 -0.2415  0.3896
10449SOL     OW31916   5.266   6.780   2.446  0.2560  0.3245 -0.3780
10449SOL    HW131917   5.232   6.693   2.467  1.1071  0.1203  0.1934
10449SOL    HW231918   5.282   6.777   2.352  1.8362 -0.7251 -0.1294
10450SOL     OW31919   6.165   5.872   6.288  0.1994  0.3906  0.3675
10450SOL    HW131920   6.142   5.780   6.304 -1.4460  0.5626 -0.7788
10450SOL    HW231921   6.130   5.919   6.364  1.4541  0.0482  1.1862
10451SOL     OW31922   4.526   3.794   3.852  0.6314 -0.4648  0.5272
10451SOL    HW131923   4.562   3.784   3.765 -0.8236 -3.4054  0.1252
10451SOL    HW231924   4.431   3.794   3.839  0.2457 -3.7674  2.1381
10452SOL     OW31925   4.162   0.479   6.361  0.4415  0.0287  0.5724
10452SOL    HW131926   4.091   0.444   6.415  0.8989 -0.5373  0.8156
10452SOL    HW231927   4.153   0.574   6.368 -0.0033 -0.0406  0.9850
10453SOL     OW31928   7.316   1.704   6.160  0.5536 -0.1800 -0.0912
10453SOL    HW131929   7.392   1.690   6.105  0.1756 -0.8852 -0.4408
10453SOL    HW231930   7.329   1.792   6.197  0.8104  0.3075 -1.2985
10454SOL     OW31931   3.737   0.447   4.634 -0.3661  0.1907  1.1231
10454SOL    HW131932   3.677   0.418   4.566 -0.7410 -0.2579  1.6330
10454SOL    HW231933   3.680   0.466   4.710 -0.2281  2.7716  0.6919
10455SOL     OW31934   2.563   4.414   2.381 -0.7089  0.2220 -0.1783
10455SOL    HW131935   2.652   4.388   2.402 -1.1710  0.1058  1.8124
10455SOL    HW231936   2.512   4.333   2.388 -0.8272  0.0183 -2.5660
10456SOL     OW31937   4.788   2.582   5.196 -0.6685  0.2894  0.2371
10456SOL    HW131938   4.727   2.548   5.131 -2.1894  2.0325  0.6593
10456SOL    HW231939   4.857   2.624   5.145 -2.0461  1.9775 -0.3323
10457SOL     OW31940   6.848   3.327   5.775 -0.0321 -0.3254  0.1892
10457SOL    HW131941   6.788   3.259   5.743  0.0485  0.4985 -1.9210
10457SOL    HW231942   6.931   3.306   5.733 -0.0871  1.2059 -0.7591
10458SOL     OW31943   6.114   3.812   5.502 -0.4368  0.0536 -0.2785
10458SOL    HW131944   6.047   3.814   5.433 -1.0721 -1.7465  0.2364
10458SOL    HW231945   6.072   3.766   5.575 -0.0066  2.4719  1.6037
10459SOL     OW31946   1.554   2.766   4.910 -0.5435  0.3183  0.3699
10459SOL    HW131947   1.638   2.812   4.916 -0.5561  0.3800  0.0847
10459SOL    HW231948   1.578   2.676   4.889 -0.4759 -0.0032  1.7486
10460SOL     OW31949   0.234   2.649   4.090  0.4531 -0.5348  0.3091
10460SOL    HW131950   0.231   2.599   4.171  0.9561 -0.5413  0.3259
10460SOL    HW231951   0.275   2.589   4.027  2.2602  0.2739  0.6465
10461SOL     OW31952   3.782   3.807   4.605  0.4286  0.1438  0.5425
10461SOL    HW131953   3.827   3.891   4.599 -0.1221  0.4379  0.4619
10461SOL    HW231954   3.849   3.742   4.587  0.2531  0.6771 -2.4649
10462SOL     OW31955   0.111   6.237   7.257  0.4466 -0.3359  0.3043
10462SOL    HW131956   0.121   6.200   7.170 -0.2908 -0.0494  0.0887
10462SOL    HW231957   0.036   6.297   7.250 -0.2387 -1.0156  1.3364
10463SOL     OW31958   0.052   2.495   2.272 -0.1007  0.0427 -0.1881
10463SOL    HW131959   0.006   2.570   2.234 -0.6448 -0.2761 -0.1633
10463SOL    HW231960   0.079   2.524   2.359 -0.3956  0.1781 -0.1423
10464SOL     OW31961   2.764   4.049   4.110 -0.1854  0.2203 -0.0422
10464SOL    HW131962   2.844   4.035   4.161  0.4454  1.2821 -0.6938
10464SOL    HW231963   2.737   4.138   4.131 -0.1440  0.5361 -1.2214
10465SOL     OW31964   0.865   4.170   6.057 -0.2924 -0.1410 -0.4023
10465SOL    HW131965   0.820   4.197   6.137 -1.1184  1.4509 -1.3442
10465SOL    HW231966   0.936   4.114   6.087 -0.5235  0.4854  1.4478
10466SOL     OW31967   7.409   6.018   6.752  0.4857 -0.3190  0.3421
10466SOL    HW131968   7.496   5.989   6.780 -0.1659 -3.9083 -0.8162
10466SOL    HW231969   7.349   5.976   6.813 -0.5792  2.8089  1.6838
10467SOL     OW31970   4.971   3.776   1.106 -0.0788 -0.2235 -0.4763
10467SOL    HW131971   4.987   3.866   1.135 -0.9339 -0.2548  0.1289
10467SOL    HW231972   4.922   3.736   1.178  0.9879 -1.4198 -0.3900
10468SOL     OW31973   1.736   3.950   1.060 -0.1188 -0.0112 -0.3871
10468SOL    HW131974   1.796   4.017   1.093  1.0022 -1.0512 -0.2007
10468SOL    HW231975   1.785   3.908   0.989 -0.0869 -1.7098  0.5837
10469SOL     OW31976   4.395   0.389   4.472  0.2140 -0.0737 -0.4637
10469SOL    HW131977   4.378   0.316   4.413  0.2532 -0.3327 -0.1573
10469SOL    HW231978   4.330   0.380   4.541  0.3442  0.0644 -0.3206
10470SOL     OW31979   6.402   2.446   0.743 -0.1552 -1.0851 -0.1126
10470SOL    HW131980   6.406   2.351   0.751  3.0018 -0.9785  0.9303
10470SOL    HW231981   6.431   2.464   0.653 -0.6605 -1.0871 -0.2791
10471SOL     OW31982   0.708   5.741   1.895  0.3196 -0.3379 -0.0122
10471SOL    HW131983   0.785   5.743   1.838  0.6188  0.0177  0.3989
10471SOL    HW231984   0.667   5.826   1.883  0.3696 -0.2710  0.2831
10472SOL     OW31985   3.518   3.251   5.324 -0.1195 -0.3703  0.0242
10472SOL    HW131986   3.578   3.179   5.307  1.3568  0.6548  0.7282
10472SOL    HW231987   3.564   3.308   5.386 -2.0340  0.1857  1.0355
10473SOL     OW31988   6.866   4.767   2.638 -0.0559 -0.0318  0.4852
10473SOL    HW131989   6.827   4.852   2.619 -1.5602 -0.8966 -0.5917
10473SOL    HW231990   6.884   4.768   2.732 -2.1494  0.6635  0.9207
10474SOL     OW31991   4.797   3.586   5.814  0.0189 -0.8548  0.2963
10474SOL    HW131992   4.851   3.651   5.769 -1.1356 -0.9143 -1.2706
10474SOL    HW231993   4.806   3.607   5.907  1.0782  0.4202 -0.0694
10475SOL     OW31994   0.903   4.594   5.227  0.2596  0.2605 -0.3205
10475SOL    HW131995   0.884   4.506   5.259 -1.8164  0.2321 -1.5160
10475SOL    HW231996   0.908   4.647   5.307 -0.1893 -0.6281  0.3177
10476SOL     OW31997   2.397   6.905   2.646  0.4573  0.5111  0.1877
10476SOL    HW131998   2.377   6.821   2.687  0.1123  1.4834  2.1400
10476SOL    HW231999   2.449   6.952   2.712 -0.3766  2.2730 -0.3462
10477SOL     OW32000   6.385   6.342   5.980 -0.1173  0.2273 -0.7582
10477SOL    HW132001   6.304   6.391   5.995 -0.8902 -0.2643 -2.9768
10477SOL    HW232002   6.396   6.289   6.060 -1.0436  1.5190  0.2789
10478SOL     OW32003   6.049   6.863   5.105 -0.2316  0.0940  0.5335
10478SOL    HW132004   5.989   6.813   5.050  0.9969  1.4939 -2.2720
10478SOL    HW232005   5.994   6.933   5.141 -0.8328 -0.1754  0.1627
10479SOL     OW32006   4.016   5.492   7.425 -0.0997  0.2091 -0.2186
10479SOL    HW132007   3.936   5.448   7.453  0.8885  0.7571  4.3159
10479SOL    HW232008   3.992   5.584   7.418  0.1133  0.4243  1.4939
10480SOL     OW32009   2.191   3.534   3.550 -0.3258 -0.3240 -0.1678
10480SOL    HW132010   2.255   3.477   3.592  1.1015  0.5744 -1.0011
10480SOL    HW232011   2.122   3.546   3.615  0.5431 -1.0232  0.9182
10481SOL     OW32012   6.903   6.380   4.255 -0.0151  0.0280  0.2504
10481SOL    HW132013   6.956   6.417   4.185 -0.4965 -0.3893 -0.3508
10481SOL    HW232014   6.966   6.333   4.310  0.3439  0.1842 -0.0188
10482SOL     OW32015   2.995   2.918   1.275 -0.2550 -0.2244  0.2525
10482SOL    HW132016   3.017   3.010   1.292  0.0320  0.1846 -1.9470
10482SOL    HW232017   2.899   2.917   1.271 -0.2631 -0.0330  0.3608
10483SOL     OW32018   4.320   1.928   1.128  0.6218  0.4624 -0.0129
10483SOL    HW132019   4.292   1.887   1.047 -1.1772 -1.2528  1.3632
10483SOL    HW232020   4.329   1.855   1.190  1.2664  1.7685  1.5140
10484SOL     OW32021   6.965   4.082   4.509  0.0101 -0.5766  0.0982
10484SOL    HW132022   7.039   4.131   4.473  1.0385 -2.1818 -0.0884
10484SOL    HW232023   6.983   4.075   4.602  0.0472 -0.8659  0.0718
10485SOL     OW32024   2.388   6.493   5.136 -0.3905 -0.1196  0.2766
10485SOL    HW132025   2.304   6.523   5.101  0.7563  2.1718 -0.7167
10485SOL    HW232026   2.413   6.560   5.200  2.1062  1.0440 -1.7436
10486SOL     OW32027   0.727   3.485   3.094 -0.1594  0.7527 -0.4650
10486SOL    HW132028   0.701   3.446   3.010  0.7773  1.4387 -1.0996
10486SOL    HW232029   0.822   3.472   3.098 -0.4040 -0.9021  1.3739
10487SOL     OW32030   1.572   2.824   0.150  0.1576 -0.3559  0.4401
10487SOL    HW132031   1.533   2.762   0.212 -1.9299 -0.7087 -1.0985
10487SOL    HW232032   1.638   2.774   0.102 -1.1087 -1.2886 -0.3896
10488SOL     OW32033   0.128   6.326   2.024  0.0998 -0.6529 -0.4101
10488SOL    HW132034   0.059   6.278   2.070 -2.7031  2.6356 -0.7634
10488SOL    HW232035   0.122   6.297   1.934 -1.5293  0.2053 -0.6143
10489SOL     OW32036   0.720   2.248   2.536  0.0379  0.0004 -0.1627
10489SOL    HW132037   0.755   2.318   2.591  0.6033  0.1871 -0.7402
10489SOL    HW232038   0.633   2.278   2.510 -0.2345 -0.0927  0.6221
10490SOL     OW32039   1.146   2.323   3.715  0.0401  0.4710  0.2927
10490SOL    HW132040   1.109   2.389   3.657 -0.4739  1.0018  1.1910
10490SOL    HW232041   1.121   2.352   3.803 -0.8504 -1.3218  0.6809
10491SOL     OW32042   5.686   1.243   4.228 -0.3563  0.4680 -0.4220
10491SOL    HW132043   5.685   1.222   4.322 -0.3718  1.0246 -0.2974
10491SOL    HW232044   5.754   1.185   4.192  0.0254  0.6255  0.0252
10492SOL     OW32045   5.218   5.635   2.780  0.3516  0.1172 -0.2285
10492SOL    HW132046   5.185   5.545   2.782  1.7258 -0.4432  3.0020
10492SOL    HW232047   5.140   5.690   2.780 -0.7257 -1.1502  3.1697
10493SOL     OW32048   2.155   5.114   2.305 -0.3562 -0.5501 -0.1265
10493SOL    HW132049   2.220   5.047   2.325 -0.0696 -0.2734 -0.1301
10493SOL    HW232050   2.176   5.143   2.216  1.8482  2.1324  1.0982
10494SOL     OW32051   2.227   2.989   2.386 -0.2716  0.2593 -0.0988
10494SOL    HW132052   2.174   2.992   2.306  0.7882 -0.4580 -0.8445
10494SOL    HW232053   2.197   2.911   2.432 -0.9724  0.7431  0.2936
10495SOL     OW32054   2.958   6.072   7.408  0.2066 -0.0031 -0.7970
10495SOL    HW132055   2.989   6.004   7.468  1.7761  0.9586 -0.4484
10495SOL    HW232056   2.988   6.154   7.447 -2.4098  1.0248 -0.7303
10496SOL     OW32057   6.458   3.938   0.070 -0.3939  0.0178  0.4763
10496SOL    HW132058   6.456   3.844   0.052  0.7067 -0.0118  0.4259
10496SOL    HW232059   6.389   3.975   0.015  1.6704 -0.2916 -2.5482
10497SOL     OW32060   6.695   0.172   2.399 -0.3453 -0.9098 -0.2558
10497SOL    HW132061   6.692   0.138   2.310 -0.3824 -0.1668 -0.5457
10497SOL    HW232062   6.612   0.147   2.438 -0.6144 -0.6529 -0.6562
10498SOL     OW32063   2.881   1.580   3.305  0.2598  0.4455  0.7222
10498SOL    HW132064   2.920   1.616   3.384 -1.3514  3.7169  0.1982
10498SOL    HW232065   2.789   1.604   3.310 -0.1025 -0.1644 -1.6695
10499SOL     OW32066   4.119   4.398   0.934  0.7797  0.0174 -0.2181
10499SOL    HW132067   4.142   4.489   0.950  0.5238  0.0137  0.1732
10499SOL    HW232068   4.108   4.392   0.839 -0.5743  0.7300 -0.1291
10500SOL     OW32069   4.242   1.608   3.000 -0.1741  0.9116  0.1362
10500SOL    HW132070   4.265   1.650   2.916  0.1168  1.0441  0.2789
10500SOL    HW232071   4.277   1.668   3.066  0.2232  0.4581  0.3442
10501SOL     OW32072   6.140   6.055   1.237  0.3665  0.8710  0.5834
10501SOL    HW132073   6.113   5.980   1.289 -0.5104  0.9356  0.2374
10501SOL    HW232074   6.065   6.114   1.239  0.4392  1.0252 -0.4582
10502SOL     OW32075   3.776   4.625   0.219 -0.1386  0.3487  0.4627
10502SOL    HW132076   3.730   4.675   0.287 -0.5466  2.0482 -0.9612
10502SOL    HW232077   3.767   4.534   0.245 -0.3926  0.9256  2.5901
10503SOL     OW32078   0.601   6.050   5.090  0.2628 -0.0595 -0.2410
10503SOL    HW132079   0.533   6.019   5.151  0.7754  1.5360  1.2131
10503SOL    HW232080   0.611   6.143   5.110  3.6898 -0.4474  0.4225
10504SOL     OW32081   7.332   0.260   3.600  0.1137 -0.2024  0.2859
10504SOL    HW132082   7.271   0.326   3.568 -0.0368 -0.2649  0.4406
10504SOL    HW232083   7.297   0.177   3.568  1.7676 -0.0194 -2.2674
10505SOL     OW32084   6.007   4.407   5.837  0.4630  0.0599 -0.2439
10505SOL    HW132085   6.080   4.439   5.889 -0.2522  1.4280 -0.0510
10505SOL    HW232086   5.970   4.335   5.889  0.1048  1.0389  0.8963
10506SOL     OW32087   3.483   0.531   0.643  0.2382  0.2851  0.3187
10506SOL    HW132088   3.517   0.528   0.554 -0.1841  0.0427  0.1623
10506SOL    HW232089   3.453   0.442   0.660  1.1041  0.1186  1.0197
10507SOL     OW32090   3.954   2.004   2.430  0.1032 -0.3216 -0.0796
10507SOL    HW132091   3.874   1.986   2.381  0.4999 -1.1509 -0.4365
10507SOL    HW232092   4.022   2.010   2.364  0.2146  1.2858  0.1353
10508SOL     OW32093   3.585   6.996   5.327 -0.5473  1.1340 -0.0666
10508SOL    HW132094   3.675   7.023   5.349 -0.7041  2.1819 -0.6474
10508SOL    HW232095   3.590   6.901   5.319  0.7575  1.2630 -1.1410
10509SOL     OW32096   6.008   0.268   2.013 -0.0707  0.4468  0.2312
10509SOL    HW132097   5.939   0.261   1.947  0.9648  3.2860 -1.3135
10509SOL    HW232098   5.965   0.304   2.090 -0.4868  1.4523 -0.4563
10510SOL     OW32099   0.785   0.451   6.779 -0.0054 -0.2841  0.3548
10510SOL    HW132100   0.839   0.404   6.715  0.4565  1.0947 -0.3172
10510SOL    HW232101   0.846   0.472   6.850  0.3672  1.2393 -0.3857
10511SOL     OW32102   5.481   6.022   2.906  0.4046  0.4541 -0.7039
10511SOL    HW132103   5.525   5.938   2.897 -0.1024  0.1304 -0.2912
10511SOL    HW232104   5.388   6.001   2.897  0.3186  1.0843 -1.3359
10512SOL     OW32105   3.688   5.385   6.477  0.2021 -0.4579 -0.0575
10512SOL    HW132106   3.627   5.456   6.492  0.2066  0.1174 -2.3751
10512SOL    HW232107   3.634   5.313   6.445  0.2861 -1.3398  1.6445
10513SOL     OW32108   6.617   3.147   1.416 -0.4376  0.5906 -0.1524
10513SOL    HW132109   6.526   3.177   1.416 -0.0875  1.7858  1.6778
10513SOL    HW232110   6.649   3.168   1.503  1.3775 -0.5415 -0.5057
10514SOL     OW32111   1.474   0.462   3.297  0.2437 -0.0981  0.0709
10514SOL    HW132112   1.458   0.371   3.269  0.2261  0.5176 -2.0983
10514SOL    HW232113   1.569   0.467   3.305  0.2279 -0.3748  0.4791
10515SOL     OW32114   4.039   0.854   5.162 -0.7343  0.6353  0.0364
10515SOL    HW132115   4.134   0.849   5.148 -0.8790  0.0860 -0.7802
10515SOL    HW232116   4.014   0.940   5.129 -0.4314  1.0594  0.8684
10516SOL     OW32117   2.958   0.840   0.922 -0.1246  0.4319  0.0920
10516SOL    HW132118   2.941   0.903   0.992  1.1407  1.1668 -0.2165
10516SOL    HW232119   2.878   0.838   0.870  0.0791  2.4745 -0.3904
10517SOL     OW32120   6.890   3.283   4.165 -0.1439 -0.7097  0.0245
10517SOL    HW132121   6.809   3.273   4.115 -0.0619  0.7462 -0.4528
10517SOL    HW232122   6.869   3.249   4.252 -1.4842  0.2218  0.0996
10518SOL     OW32123   5.766   7.400   4.685  0.7605  0.1310 -0.3437
10518SOL    HW132124   5.713   7.375   4.609 -1.1500  2.4957  0.0971
10518SOL    HW232125   5.826   7.467   4.653  0.9882  0.0602 -0.0747
10519SOL     OW32126   3.434   1.413   0.326 -0.1088 -0.2577  0.0676
10519SOL    HW132127   3.515   1.362   0.330 -0.2326 -0.9129 -2.8940
10519SOL    HW232128   3.414   1.435   0.417  2.4184 -1.5825  1.0421
10520SOL     OW32129   5.972   7.284   2.833  0.1592  0.3981  0.5543
10520SOL    HW132130   5.908   7.264   2.765 -0.4033  1.2538  0.8226
10520SOL    HW232131   6.052   7.306   2.785  0.5566 -1.5322  0.2267
10521SOL     OW32132   1.461   3.758   3.908  0.5704 -0.1955 -0.2910
10521SOL    HW132133   1.369   3.772   3.887  0.9481 -0.4652 -2.2182
10521SOL    HW232134   1.472   3.663   3.913  0.8683 -0.1842 -0.6704
10522SOL     OW32135   1.975   5.447   7.261  0.1672  0.1788 -0.6178
10522SOL    HW132136   2.065   5.440   7.229  0.1242 -2.4122 -0.4115
10522SOL    HW232137   1.941   5.526   7.220  2.1548  0.5344 -1.7006
10523SOL     OW32138   7.273   6.716   5.822  0.3131 -0.0943 -0.2326
10523SOL    HW132139   7.311   6.716   5.910  2.7917  1.1073 -1.2091
10523SOL    HW232140   7.227   6.632   5.817 -1.2013  0.4138  2.6674
10524SOL     OW32141   2.420   4.243   6.943  0.4350 -0.2349  0.2794
10524SOL    HW132142   2.474   4.318   6.966  0.0561  0.7420 -1.7972
10524SOL    HW232143   2.333   4.280   6.927 -0.6163 -1.5964  2.3012
10525SOL     OW32144   1.489   1.950   4.304  0.5984 -0.1776  0.2445
10525SOL    HW132145   1.515   2.042   4.311 -1.1714  0.4783 -0.9674
10525SOL    HW232146   1.565   1.907   4.266  1.3882  0.8155  0.6319
10526SOL     OW32147   0.991   6.723   6.363 -0.1744  0.0803  0.0176
10526SOL    HW132148   1.071   6.670   6.358  0.2326  0.6114  0.7565
10526SOL    HW232149   1.003   6.793   6.300 -0.8498 -0.8596 -1.1950
10527SOL     OW32150   3.530   4.508   5.823  0.3590  0.6012  0.0186
10527SOL    HW132151   3.453   4.532   5.770  2.1613  1.6156 -2.3152
10527SOL    HW232152   3.525   4.413   5.832 -1.4795  0.7050  0.4852
10528SOL     OW32153   2.229   3.868   6.111  0.4081  0.0673 -0.2204
10528SOL    HW132154   2.252   3.912   6.029 -1.4391  1.9040  0.1758
10528SOL    HW232155   2.256   3.930   6.179  2.4449 -1.6691  0.6683
10529SOL     OW32156   4.950   6.970   0.411 -0.5149  0.2216 -0.7551
10529SOL    HW132157   5.006   7.048   0.413  0.1928 -0.2622  1.2653
10529SOL    HW232158   4.889   6.986   0.340  1.3419  1.3895 -2.1958
10530SOL     OW32159   0.937   3.250   3.087 -0.1826 -0.3200 -0.1532
10530SOL    HW132160   0.893   3.178   3.132 -0.0883  0.1902  0.7758
10530SOL    HW232161   0.994   3.206   3.024 -1.2036 -1.0158 -0.6233
10531SOL     OW32162   4.295   4.904   6.027 -0.4395 -0.8318 -0.2375
10531SOL    HW132163   4.297   4.939   5.938  0.7669 -1.9404 -0.6838
10531SOL    HW232164   4.338   4.971   6.080 -0.6571 -0.4059 -0.5939
10532SOL     OW32165   1.979   1.522   1.197 -0.0980 -0.2872  0.2284
10532SOL    HW132166   1.991   1.587   1.266 -0.4140 -0.6680  0.6479
10532SOL    HW232167   2.065   1.516   1.155  0.3684 -0.7282  1.1967
10533SOL     OW32168   4.783   1.295   5.619  0.2782 -0.5753  0.0995
10533SOL    HW132169   4.744   1.220   5.573 -0.0533 -0.5705  0.3663
10533SOL    HW232170   4.836   1.339   5.552 -0.4063 -0.4158 -0.3559
10534SOL     OW32171   7.286   3.309   3.862 -0.7436  0.6181 -0.8167
10534SOL    HW132172   7.209   3.281   3.812 -2.9512 -2.1124  3.4678
10534SOL    HW232173   7.338   3.229   3.872  0.7265  1.5712 -0.5013
10535SOL     OW32174   3.424   2.054   1.175 -0.0357  0.6134 -0.1768
10535SOL    HW132175   3.368   2.022   1.104  0.1073 -0.5489  0.2079
10535SOL    HW232176   3.510   2.017   1.155 -0.7482 -3.1626  2.6104
10536SOL     OW32177   4.665   4.825   3.872 -0.8587  0.1102 -0.3062
10536SOL    HW132178   4.687   4.898   3.930  0.1372  0.0091 -0.5327
10536SOL    HW232179   4.750   4.788   3.847 -1.3562 -1.5269  0.2996
10537SOL     OW32180   2.496   5.151   7.079 -0.0023  0.8407  0.0628
10537SOL    HW132181   2.460   5.146   6.990  1.1889  1.5989 -0.4974
10537SOL    HW232182   2.467   5.236   7.112 -1.1080  0.2181  0.7167
10538SOL     OW32183   5.404   1.850   5.675  0.1851  0.3426 -0.4410
10538SOL    HW132184   5.423   1.792   5.748  0.4344  0.4590 -0.4138
10538SOL    HW232185   5.475   1.914   5.675  1.6555 -1.1575 -2.3504
10539SOL     OW32186   4.942   2.608   0.256  0.0673 -0.4600  0.4169
10539SOL    HW132187   4.978   2.673   0.196 -0.7228  0.3991  0.8393
10539SOL    HW232188   4.921   2.533   0.200 -0.1153  0.1043 -0.2897
10540SOL     OW32189   5.336   3.684   3.138 -0.1435 -0.3382  0.1297
10540SOL    HW132190   5.274   3.658   3.206 -0.2483  1.4801  0.8044
10540SOL    HW232191   5.281   3.714   3.066 -0.1043  1.1453  0.6757
10541SOL     OW32192   0.287   4.300   7.212  0.1277  0.4143  0.2278
10541SOL    HW132193   0.265   4.348   7.132 -0.5388  1.9988  1.3060
10541SOL    HW232194   0.212   4.242   7.225 -0.5870  1.3930  0.6008
10542SOL     OW32195   0.613   0.387   2.649  0.2282  0.2751 -0.0463
10542SOL    HW132196   0.677   0.321   2.624  1.7512  1.9708 -0.9052
10542SOL    HW232197   0.646   0.423   2.731 -2.3723 -2.1887  2.2849
10543SOL     OW32198   1.858   3.785   5.436 -0.4668  0.1644 -0.4806
10543SOL    HW132199   1.805   3.706   5.433 -0.7788  0.3839 -1.6752
10543SOL    HW232200   1.935   3.762   5.488 -1.2956 -0.4363  0.4986
10544SOL     OW32201   6.384   4.109   5.935  0.0587 -0.2551 -0.5745
10544SOL    HW132202   6.317   4.051   5.900  1.1578  0.8037 -5.2038
10544SOL    HW232203   6.466   4.063   5.920  0.6834  0.6798 -0.1502
10545SOL     OW32204   3.270   4.478   6.296 -0.5008  0.1094 -0.0796
10545SOL    HW132205   3.292   4.406   6.356 -2.7766  1.3891  2.5320
10545SOL    HW232206   3.333   4.469   6.224  1.7615 -2.2000  1.9588
10546SOL     OW32207   2.490   4.472   4.503 -0.0595  0.3647  0.5636
10546SOL    HW132208   2.502   4.514   4.417 -0.6997  0.8513  0.7084
10546SOL    HW232209   2.395   4.469   4.515 -0.0425 -1.2272  0.5144
10547SOL     OW32210   1.334   6.911   3.790 -0.5173  0.0120 -0.1427
10547SOL    HW132211   1.336   6.829   3.838 -0.7014  0.0772 -0.0232
10547SOL    HW232212   1.425   6.941   3.788 -0.6090  0.3764  0.7962
10548SOL     OW32213   3.504   4.465   6.124  0.1895  0.4697 -0.1881
10548SOL    HW132214   3.508   4.480   6.030  0.4712  1.2594 -0.0602
10548SOL    HW232215   3.567   4.396   6.140  0.6564  0.8200 -0.4939
10549SOL     OW32216   1.843   1.378   5.839 -0.6523 -0.1081 -0.3501
10549SOL    HW132217   1.822   1.402   5.749 -1.2211 -2.5841 -0.9649
10549SOL    HW232218   1.938   1.369   5.841 -0.6066  0.3205 -0.5973
10550SOL     OW32219   2.653   7.251   2.099  0.6877 -0.2287 -0.4594
10550SOL    HW132220   2.747   7.263   2.085  0.6952 -0.8083 -0.9360
10550SOL    HW232221   2.646   7.167   2.145  0.2929 -1.1884 -2.2045
10551SOL     OW32222   5.597   0.250   3.544 -0.6182  0.5149  0.0574
10551SOL    HW132223   5.509   0.286   3.531 -0.5503 -0.3185 -3.7168
10551SOL    HW232224   5.586   0.156   3.537  0.4213  0.3233  0.8362
10552SOL     OW32225   6.734   1.731   6.284  0.1693  0.0692  0.5774
10552SOL    HW132226   6.814   1.767   6.246  0.6382 -0.9345  0.5933
10552SOL    HW232227   6.743   1.747   6.378  0.4649 -0.2551  0.6056
10553SOL     OW32228   0.886   3.971   6.743 -0.4846 -0.1932 -0.8417
10553SOL    HW132229   0.820   3.924   6.792 -0.2898 -1.1010 -1.4264
10553SOL    HW232230   0.965   3.967   6.797 -0.7996  0.6126 -0.2944
10554SOL     OW32231   2.412   1.317   1.885  0.4523  0.1725  0.1979
10554SOL    HW132232   2.423   1.225   1.910  0.2879 -0.5029 -2.0058
10554SOL    HW232233   2.343   1.316   1.819  1.2269  1.7005 -0.6930
10555SOL     OW32234   2.082   5.131   4.414 -0.2198 -0.2868  0.4357
10555SOL    HW132235   2.117   5.117   4.502  0.5739 -0.6649  0.0726
10555SOL    HW232236   2.144   5.085   4.356 -1.5491 -1.3474 -0.2018
10556SOL     OW32237   6.745   1.187   2.551 -0.0389 -0.5854  0.2190
10556SOL    HW132238   6.815   1.190   2.616  1.2414 -3.1304 -0.8912
10556SOL    HW232239   6.710   1.275   2.550  0.8335 -0.0716  3.2891
10557SOL     OW32240   7.289   6.764   1.188  0.0187  0.1810  0.8783
10557SOL    HW132241   7.303   6.858   1.174 -1.0466  0.2988  0.4826
10557SOL    HW232242   7.218   6.761   1.252  0.5122 -0.3676  1.4080
10558SOL     OW32243   7.186   0.891   4.389  0.1242  0.1059  0.2293
10558SOL    HW132244   7.186   0.942   4.308  0.3963  1.3676  1.0026
10558SOL    HW232245   7.236   0.812   4.367 -0.5611 -0.0034 -1.0696
10559SOL     OW32246   1.315   1.580   4.332  0.1238 -0.5162  0.4300
10559SOL    HW132247   1.360   1.498   4.313  1.5860 -0.1648  2.1320
10559SOL    HW232248   1.379   1.648   4.314 -1.4438  0.4122 -2.1120
10560SOL     OW32249   1.022   2.372   6.374  0.6502 -0.3323 -0.1665
10560SOL    HW132250   0.948   2.426   6.404 -0.2405 -2.1680  1.1431
10560SOL    HW232251   0.995   2.341   6.287  1.6522  2.0877 -1.4434
10561SOL     OW32252   7.260   6.681   2.991 -0.0912  0.4141 -0.5597
10561SOL    HW132253   7.200   6.630   3.046  0.1160 -0.6538 -1.2942
10561SOL    HW232254   7.213   6.763   2.975 -0.1231  0.7987  1.2582
10562SOL     OW32255   5.241   7.382   2.142 -0.0653  0.3876 -0.3412
10562SOL    HW132256   5.220   7.298   2.184  2.8249  0.7594  2.2052
10562SOL    HW232257   5.178   7.444   2.179 -1.5598 -0.3803 -1.4672
10563SOL     OW32258   4.777   0.316   5.637 -0.2696  0.1226 -0.2690
10563SOL    HW132259   4.736   0.301   5.552 -0.1185  0.6456 -0.4360
10563SOL    HW232260   4.712   0.285   5.701 -0.4464 -0.1224 -0.5680
10564SOL     OW32261   2.664   7.067   2.751  0.3026  0.6553 -0.1880
10564SOL    HW132262   2.727   7.122   2.703  0.0930 -0.5439 -1.9066
10564SOL    HW232263   2.709   7.048   2.834  1.4253  1.3353 -0.6045
10565SOL     OW32264   5.329   6.796   5.193  0.0855 -0.0275 -0.3377
10565SOL    HW132265   5.268   6.861   5.161  0.8158 -0.7338 -3.4653
10565SOL    HW232266   5.311   6.717   5.142  2.3580 -0.7993 -0.1043
10566SOL     OW32267   2.057   4.411   5.125  0.0384 -0.2092 -0.1564
10566SOL    HW132268   2.066   4.494   5.078  0.4113 -1.3541 -2.1994
10566SOL    HW232269   2.135   4.406   5.180 -0.0736  0.8504  0.1191
10567SOL     OW32270   4.930   3.098   3.683  0.3700 -0.7148  0.5910
10567SOL    HW132271   4.904   3.145   3.604  1.1951  1.2218  1.4019
10567SOL    HW232272   4.851   3.052   3.712 -0.5508  0.3807 -0.1136
10568SOL     OW32273   3.449   3.342   1.303  0.1111  0.2645  0.5211
10568SOL    HW132274   3.391   3.293   1.245  1.5939  0.2749 -1.0354
10568SOL    HW232275   3.429   3.308   1.390 -2.4898  0.5712  0.1172
10569SOL     OW32276   6.611   1.088   2.062 -0.3169 -0.1624 -0.3253
10569SOL    HW132277   6.636   1.007   2.018 -0.5807 -1.4170  1.7029
10569SOL    HW232278   6.680   1.103   2.127 -0.3198  1.2250 -0.5931
10570SOL     OW32279   1.716   5.740   1.326  0.1841 -0.9833  0.5566
10570SOL    HW132280   1.801   5.706   1.354  0.0214 -0.3086  1.9172
10570SOL    HW232281   1.655   5.712   1.394 -0.2800  0.4022  0.7329
10571SOL     OW32282   0.570   5.022   0.884 -0.3807 -0.5272 -0.8454
10571SOL    HW132283   0.620   4.990   0.959  0.1740  0.9779 -0.5234
10571SOL    HW232284   0.535   4.944   0.842 -0.0080 -1.4466  0.5094
10572SOL     OW32285   0.861   5.053   3.414 -0.4320  0.4993  0.2298
10572SOL    HW132286   0.881   5.061   3.507 -2.3634 -1.3194  0.8719
10572SOL    HW232287   0.800   5.125   3.397  1.8440  2.4052 -0.3181
10573SOL     OW32288   0.393   1.900   2.188  0.3216  0.2832 -0.1978
10573SOL    HW132289   0.391   1.868   2.098  0.0772 -0.4290  0.0545
10573SOL    HW232290   0.470   1.857   2.227  1.5764  2.0449 -0.5800
10574SOL     OW32291   6.571   7.261   6.293  0.1978 -0.1950 -0.4912
10574SOL    HW132292   6.507   7.235   6.226  0.1858 -1.6969  0.0629
10574SOL    HW232293   6.629   7.322   6.248 -0.5702 -0.1879 -1.5095
10575SOL     OW32294   6.602   5.592   0.444 -0.5266  0.8402  0.4568
10575SOL    HW132295   6.615   5.617   0.353  0.4410 -0.4524  0.2141
10575SOL    HW232296   6.567   5.503   0.441 -0.8371  0.9156  1.3452
10576SOL     OW32297   4.089   3.335   3.900  0.3393  0.2745  0.5524
10576SOL    HW132298   4.018   3.287   3.857  0.3683 -0.2306  1.0459
10576SOL    HW232299   4.169   3.303   3.857  0.2599  1.0454 -0.1915
10577SOL     OW32300   4.228   2.041   3.290 -0.4544 -0.3753 -0.2149
10577SOL    HW132301   4.313   2.084   3.282 -0.2838 -0.8480 -1.0057
10577SOL    HW232302   4.164   2.111   3.274 -0.3384  0.5598  2.7444
10578SOL     OW32303   6.057   0.910   2.690  0.3500 -0.1658  0.5135
10578SOL    HW132304   6.001   0.963   2.747 -0.5199 -1.3797  0.8115
10578SOL    HW232305   6.043   0.946   2.602 -0.1780  0.1489  0.7227
10579SOL     OW32306   4.368   4.895   0.750  0.1828 -0.4947  0.3050
10579SOL    HW132307   4.356   4.920   0.842  0.2303 -1.5895  0.6335
10579SOL    HW232308   4.432   4.823   0.754  0.9385  0.1075 -0.6773
10580SOL     OW32309   7.227   3.011   4.590 -0.4952  0.5437 -0.2175
10580SOL    HW132310   7.302   3.050   4.634 -0.8107 -0.5371  1.3890
10580SOL    HW232311   7.251   3.007   4.498  0.7024  1.7703  0.0147
10581SOL     OW32312   7.290   2.485   5.895  0.3162 -0.4281 -0.2542
10581SOL    HW132313   7.384   2.489   5.913  0.5999 -1.4617 -1.3754
10581SOL    HW232314   7.249   2.511   5.977  1.5674 -0.6056  0.4549
10582SOL     OW32315   0.616   4.836   3.268 -0.0606  0.3085 -0.3098
10582SOL    HW132316   0.586   4.914   3.315 -0.8732 -0.8504  1.2078
10582SOL    HW232317   0.708   4.827   3.294  0.3668  1.3185 -1.3527
10583SOL     OW32318   0.906   5.008   1.285  0.1774 -0.9210 -0.1014
10583SOL    HW132319   0.998   5.020   1.263 -0.1443  0.9893 -0.5908
10583SOL    HW232320   0.907   4.955   1.365  1.7325 -0.2700  0.3419
10584SOL     OW32321   1.715   5.064   1.993 -0.6843  0.2857 -0.2501
10584SOL    HW132322   1.671   5.058   2.078  0.2282  1.5020  0.3440
10584SOL    HW232323   1.670   5.135   1.948 -0.7387  0.0821 -0.5171
10585SOL     OW32324   0.544   1.958   0.640  0.0520 -0.2375  0.3785
10585SOL    HW132325   0.578   1.989   0.724 -3.4369  0.6311  1.6154
10585SOL    HW232326   0.475   1.896   0.663 -0.8737 -0.1216 -1.8309
10586SOL     OW32327   3.275   2.727   3.884 -0.0064  0.2469 -0.2759
10586SOL    HW132328   3.267   2.821   3.900  0.5253  0.4054 -0.8951
10586SOL    HW232329   3.301   2.721   3.792  1.3459 -0.4416  0.1339
10587SOL     OW32330   3.937   3.424   2.179  0.4778 -0.3774 -0.2114
10587SOL    HW132331   3.855   3.376   2.193 -0.7780  1.2300 -1.5943
10587SOL    HW232332   3.980   3.377   2.108  0.3308 -0.7179 -0.0800
10588SOL     OW32333   2.796   1.605   1.960  0.1654 -0.2929  0.2164
10588SOL    HW132334   2.729   1.585   1.895  2.3570 -1.7095 -1.7703
10588SOL    HW232335   2.816   1.698   1.946 -2.2044  0.5379  1.7669
10589SOL     OW32336   2.695   4.228   1.672  0.3836  0.2736  0.5384
10589SOL    HW132337   2.718   4.319   1.690  0.5929  0.1370  0.9854
10589SOL    HW232338   2.770   4.178   1.704 -0.7908 -0.2502  2.6790
10590SOL     OW32339   2.579   7.367   3.682  0.0936  0.2471 -0.2811
10590SOL    HW132340   2.624   7.307   3.741  0.2209 -0.4714 -1.0975
10590SOL    HW232341   2.516   7.313   3.635 -1.4701  1.1808  0.6343
10591SOL     OW32342   5.986   2.118   0.611  0.0263  0.1168 -0.0804
10591SOL    HW132343   5.911   2.167   0.579 -0.3429 -0.7759 -0.5807
10591SOL    HW232344   6.043   2.185   0.650 -1.3564  0.7207  0.9940
10592SOL     OW32345   4.924   7.401   4.649  0.2801 -0.1599 -0.1051
10592SOL    HW132346   4.967   7.411   4.734  0.0620 -0.6057  0.0579
10592SOL    HW232347   4.851   7.463   4.652  0.6883  0.3409 -0.2462
10593SOL     OW32348   4.268   3.779   5.485 -0.0693 -0.0173  0.0777
10593SOL    HW132349   4.266   3.822   5.570 -1.1921  0.9303 -0.3996
10593SOL    HW232350   4.248   3.849   5.423  0.8690 -0.6605 -0.9923
10594SOL     OW32351   0.549   0.533   0.503 -0.1313 -0.1463  0.0241
10594SOL    HW132352   0.571   0.501   0.416  1.0900 -1.3861  0.7421
10594SOL    HW232353   0.613   0.492   0.561  0.4138  2.2644  1.2811
10595SOL     OW32354   1.935   3.965   1.601 -0.1308 -0.5204 -0.3067
10595SOL    HW132355   1.867   3.898   1.599  2.2420 -3.1454  1.2462
10595SOL    HW232356   2.003   3.932   1.541  1.8378 -0.4550  1.7756
10596SOL     OW32357   1.131   6.245   0.352  0.1327  0.1046  0.4261
10596SOL    HW132358   1.051   6.243   0.300 -0.5110 -1.1944  1.4053
10596SOL    HW232359   1.194   6.194   0.301 -0.4200 -0.9593  0.7834
10597SOL     OW32360   5.907   4.668   4.547 -0.2633  0.2332 -0.4164
10597SOL    HW132361   5.897   4.602   4.616  0.8782  1.3168  0.8332
10597SOL    HW232362   5.876   4.624   4.468  0.8104 -1.9624  0.2894
10598SOL     OW32363   6.784   0.955   1.861  0.1698  0.3424  0.1532
10598SOL    HW132364   6.777   1.006   1.780 -0.3570 -1.1376 -0.7874
10598SOL    HW232365   6.698   0.915   1.871 -0.2036  1.5348  2.2176
10599SOL     OW32366   5.510   2.718   1.778 -0.0374  0.2926  0.0681
10599SOL    HW132367   5.472   2.704   1.865  2.2849  0.9088  1.2633
10599SOL    HW232368   5.497   2.635   1.733 -1.2362 -0.0565  1.0008
10600SOL     OW32369   1.395   2.270   5.478 -0.0012 -0.4025 -0.3169
10600SOL    HW132370   1.467   2.233   5.529 -0.0655  0.7470  0.6463
10600SOL    HW232371   1.438   2.305   5.399  0.2399 -1.2499 -0.5768
10601SOL     OW32372   3.181   6.656   2.211 -0.3331  0.3684  0.5439
10601SOL    HW132373   3.207   6.599   2.138 -1.2661  1.6722 -0.8665
10601SOL    HW232374   3.228   6.621   2.287  0.2749 -1.3494 -0.5672
10602SOL     OW32375   4.222   3.458   5.659  0.1531 -0.1498 -0.6896
10602SOL    HW132376   4.150   3.416   5.706 -0.1250  0.2171 -0.7829
10602SOL    HW232377   4.279   3.493   5.727 -1.2181  2.0423 -0.5878
10603SOL     OW32378   3.504   4.410   4.529  0.4404  0.7342 -0.1336
10603SOL    HW132379   3.575   4.372   4.580 -0.0510 -0.9486 -0.6327
10603SOL    HW232380   3.547   4.456   4.458  1.0579 -1.4887 -1.2712
10604SOL     OW32381   1.567   0.522   6.756 -0.3602  0.0600  0.0316
10604SOL    HW132382   1.545   0.429   6.747 -1.3821  0.1754  1.1191
10604SOL    HW232383   1.523   0.549   6.836  2.8325  0.6152  1.7478
10605SOL     OW32384   3.570   2.834   2.261 -0.1148 -0.3262  0.4877
10605SOL    HW132385   3.497   2.837   2.323 -0.5937  0.0672 -0.0880
10605SOL    HW232386   3.587   2.740   2.249 -0.3802 -0.4153  0.7834
10606SOL     OW32387   6.782   5.320   5.441  0.4016  0.2207  0.1587
10606SOL    HW132388   6.709   5.377   5.464 -0.6767 -1.2605  0.5420
10606SOL    HW232389   6.847   5.335   5.510 -1.1717 -1.2564  2.0822
10607SOL     OW32390   4.903   3.215   0.314  0.1764  0.1057  0.0956
10607SOL    HW132391   4.953   3.136   0.333  0.1512  0.2978  0.9916
10607SOL    HW232392   4.815   3.196   0.347  0.4452  0.8970  1.3472
10608SOL     OW32393   0.611   4.341   6.790 -0.1509  0.1445  0.2530
10608SOL    HW132394   0.568   4.415   6.748  0.7191 -0.3450 -1.6246
10608SOL    HW232395   0.573   4.264   6.748  1.6370 -0.3336 -0.6100
10609SOL     OW32396   0.210   2.138   6.132 -0.0663  0.1912  0.1799
10609SOL    HW132397   0.131   2.184   6.160 -1.9914 -1.9445 -1.3591
10609SOL    HW232398   0.238   2.185   6.053  0.3379  1.0376  0.8066
10610SOL     OW32399   1.979   2.512   2.734  0.0307 -0.3831  0.2801
10610SOL    HW132400   2.005   2.420   2.741  1.6837  0.0164 -0.2845
10610SOL    HW232401   2.059   2.562   2.748 -0.9165  1.0098  0.9969
10611SOL     OW32402   5.695   3.379   2.459 -0.1085 -0.0984  0.0936
10611SOL    HW132403   5.668   3.297   2.417 -0.7788 -0.6175  1.4646
10611SOL    HW232404   5.634   3.389   2.532 -0.1839  1.7564 -0.1851
10612SOL     OW32405   4.558   0.478   4.088  0.3114  0.2660  0.0118
10612SOL    HW132406   4.545   0.430   4.006  0.5740  0.8386 -0.3709
10612SOL    HW232407   4.653   0.483   4.098  0.3392 -2.0287  1.6939
10613SOL     OW32408   6.348   6.704   4.093 -0.4828  0.1842 -0.4262
10613SOL    HW132409   6.262   6.741   4.113 -0.4910  0.0633 -0.2321
10613SOL    HW232410   6.410   6.773   4.119 -0.5478  0.5283 -1.1796
10614SOL     OW32411   4.944   1.527   6.635  0.1478  0.0972  0.3672
10614SOL    HW132412   4.877   1.561   6.575  0.9931 -0.0411 -0.6902
10614SOL    HW232413   4.895   1.498   6.712 -0.8902  0.9734  0.0600
10615SOL     OW32414   2.388   0.880   4.559 -0.1417 -0.4143  0.1589
10615SOL    HW132415   2.325   0.950   4.571 -0.6265 -1.0229  1.2746
10615SOL    HW232416   2.471   0.916   4.589  0.2662  0.6565 -2.0391
10616SOL     OW32417   6.369   4.724   3.281 -0.0306 -0.5016 -0.4671
10616SOL    HW132418   6.345   4.811   3.312  0.6330 -1.0284  1.6957
10616SOL    HW232419   6.286   4.680   3.264 -0.3716  0.4609 -1.4190
10617SOL     OW32420   1.027   3.979   6.192 -0.3143  0.0450  0.6812
10617SOL    HW132421   1.084   3.906   6.168 -3.5440 -1.3895 -4.0461
10617SOL    HW232422   0.953   3.937   6.237 -0.9268  0.7720  0.3657
10618SOL     OW32423   1.614   4.232   1.188  0.2355 -0.0104  0.4911
10618SOL    HW132424   1.683   4.294   1.214  0.6615 -0.6153  0.8233
10618SOL    HW232425   1.657   4.173   1.126  0.4715 -1.3446  1.8626
10619SOL     OW32426   2.093   5.479   6.326 -0.4098 -0.3633 -0.4992
10619SOL    HW132427   2.112   5.572   6.344 -0.9097 -0.2030 -0.7965
10619SOL    HW232428   2.014   5.480   6.273  0.3089 -0.8984 -1.6237
10620SOL     OW32429   2.384   6.371   3.731 -0.1993  0.8938  0.3164
10620SOL    HW132430   2.329   6.293   3.722  0.9671 -0.0644  1.1243
10620SOL    HW232431   2.397   6.402   3.642  1.4271 -1.3823 -0.3385
10621SOL     OW32432   4.875   5.649   4.563  0.4437 -0.1152  0.0600
10621SOL    HW132433   4.784   5.657   4.592  0.0691 -0.4426 -0.9720
10621SOL    HW232434   4.877   5.693   4.478  1.7241  1.6700  0.9201
10622SOL     OW32435   5.006   1.279   4.082  0.4380 -0.3587  0.0157
10622SOL    HW132436   4.926   1.231   4.063  1.7262 -1.8161 -2.2138
10622SOL    HW232437   5.038   1.242   4.164 -1.6750  1.1023  1.6378
10623SOL     OW32438   5.491   1.311   7.090  0.3588 -0.3089 -0.9282
10623SOL    HW132439   5.470   1.366   7.015  0.2869  0.0858 -0.6250
10623SOL    HW232440   5.515   1.226   7.052  1.3634  0.1910 -1.4755
10624SOL     OW32441   7.037   4.510   4.059  0.1378 -0.2466 -0.5118
10624SOL    HW132442   7.126   4.537   4.034 -0.1946  1.2465 -0.1963
10624SOL    HW232443   7.016   4.439   3.999  1.0915  0.2135 -1.4270
10625SOL     OW32444   7.184   7.005   5.426 -0.6924  0.0471 -0.1971
10625SOL    HW132445   7.160   6.996   5.518 -0.4351  0.4331 -0.0898
10625SOL    HW232446   7.188   6.915   5.393 -0.3607 -0.1172  0.2813
10626SOL     OW32447   3.314   6.694   0.956 -0.3999  0.3307  0.0295
10626SOL    HW132448   3.316   6.603   0.926  1.1109 -0.1463  1.4267
10626SOL    HW232449   3.303   6.745   0.876 -0.4382 -1.0381 -0.8759
10627SOL     OW32450   3.534   4.879   3.937 -0.6149 -0.1854 -0.3353
10627SOL    HW132451   3.484   4.954   3.904 -1.0018 -1.2838 -2.4547
10627SOL    HW232452   3.544   4.896   4.031 -2.3054  1.5798 -0.4062
10628SOL     OW32453   1.451   7.199   6.217 -0.2914 -0.3103 -0.7154
10628SOL    HW132454   1.370   7.175   6.171 -0.5757  0.6769 -0.7545
10628SOL    HW232455   1.449   7.147   6.297 -0.8976 -0.4113 -0.7874
10629SOL     OW32456   1.450   5.546   4.058 -0.4593  0.3518 -0.0937
10629SOL    HW132457   1.475   5.540   3.966  0.1897  3.2568 -0.2249
10629SOL    HW232458   1.525   5.510   4.106  0.0423  0.5807 -0.6945
10630SOL     OW32459   1.396   5.995   6.984  0.1824 -0.6048 -0.3408
10630SOL    HW132460   1.362   5.996   7.074  1.5684 -1.3585  0.2185
10630SOL    HW232461   1.354   5.919   6.944  0.7690 -1.2187  0.1827
10631SOL     OW32462   7.060   2.820   1.089 -0.0795 -0.6100 -0.1920
10631SOL    HW132463   7.012   2.866   1.020 -2.6299 -1.0430  1.1820
10631SOL    HW232464   7.029   2.730   1.084  1.0639 -1.0574  0.3951
10632SOL     OW32465   1.002   3.004   0.777  0.3200  0.0524  0.2642
10632SOL    HW132466   0.999   3.073   0.710  1.0993 -0.6460 -0.5301
10632SOL    HW232467   1.048   3.044   0.850 -0.0119  0.6493  0.1553
10633SOL     OW32468   6.447   5.406   2.386 -0.1726  0.2093  0.3005
10633SOL    HW132469   6.369   5.458   2.368 -1.6172 -1.1534  2.2369
10633SOL    HW232470   6.478   5.379   2.299 -0.3160  2.8078 -0.6659
10634SOL     OW32471   0.467   1.856   5.073  0.2770 -0.4935  0.6605
10634SOL    HW132472   0.475   1.771   5.116 -0.4767 -0.4580  0.8982
10634SOL    HW232473   0.533   1.910   5.116 -2.1290  0.3155  3.8003
10635SOL     OW32474   5.172   3.691   2.886  0.4993 -0.1051  0.2749
10635SOL    HW132475   5.214   3.736   2.813 -2.3996 -0.5291 -1.8592
10635SOL    HW232476   5.171   3.599   2.859  2.9145 -0.9737  2.7915
10636SOL     OW32477   0.290   5.560   3.811  0.1102 -0.5656 -0.3355
10636SOL    HW132478   0.344   5.631   3.777  0.2393 -0.4708  0.0550
10636SOL    HW232479   0.297   5.568   3.906  0.4457 -1.3527 -0.2853
10637SOL     OW32480   2.360   6.120   4.879  0.4382  0.3616  0.6871
10637SOL    HW132481   2.419   6.083   4.945 -0.0239 -0.0609  0.8614
10637SOL    HW232482   2.399   6.206   4.859  0.5555  0.5158  1.5347
10638SOL     OW32483   1.477   2.847   2.276 -0.7686 -0.6305 -0.3401
10638SOL    HW132484   1.401   2.790   2.285 -0.4489 -1.0358 -0.1535
10638SOL    HW232485   1.476   2.902   2.354 -0.5159 -1.0759 -0.0146
10639SOL     OW32486   6.309   4.265   7.149 -0.2132 -0.3264 -0.5398
10639SOL    HW132487   6.302   4.308   7.064  0.1229  2.5818  0.7681
10639SOL    HW232488   6.218   4.250   7.176 -0.3200 -1.2609 -1.3612
10640SOL     OW32489   0.143   3.266   5.401 -0.1408 -0.0241  0.0655
10640SOL    HW132490   0.110   3.254   5.312 -2.4341 -2.7678  1.1491
10640SOL    HW232491   0.072   3.310   5.447  0.4929  0.1876  0.8522
10641SOL     OW32492   6.939   0.445   4.677 -0.1037 -0.0347  0.1763
10641SOL    HW132493   6.953   0.373   4.739 -0.2435  0.4272  0.7536
10641SOL    HW232494   6.863   0.492   4.712  0.6488  1.0402  0.4233
10642SOL     OW32495   5.984   0.986   4.460 -0.0564 -0.4111 -0.0466
10642SOL    HW132496   6.002   0.956   4.549 -1.8726 -0.2313  0.4045
10642SOL    HW232497   6.034   1.068   4.452 -0.6685  0.1027  1.1741
10643SOL     OW32498   3.794   4.077   7.426  0.4217  0.5709 -0.3470
10643SOL    HW132499   3.841   4.057   7.345 -0.3973  0.1191 -0.7165
10643SOL    HW232500   3.741   4.153   7.404  0.5886  0.7705 -0.0733
10644SOL     OW32501   3.067   4.958   5.961  0.3002  0.4633  0.5805
10644SOL    HW132502   3.019   4.891   5.911  0.1157 -0.9901  2.5619
10644SOL    HW232503   3.028   5.041   5.935 -1.9638 -0.5152  0.6574
10645SOL     OW32504   1.304   1.788   6.649 -0.3086 -0.2381 -0.2381
10645SOL    HW132505   1.215   1.765   6.674 -0.2313  0.6776  0.9491
10645SOL    HW232506   1.314   1.753   6.560 -1.1260 -2.1756  0.3958
10646SOL     OW32507   0.290   5.497   7.411  0.9905  0.5476  0.4909
10646SOL    HW132508   0.276   5.495   7.316  0.0979 -1.5114  0.6081
10646SOL    HW232509   0.304   5.589   7.431  0.5694  1.1154 -1.5533
10647SOL     OW32510   2.125   4.863   5.526  0.4881 -0.0974 -0.0271
10647SOL    HW132511   2.075   4.941   5.503 -0.1090 -0.4804 -0.0610
10647SOL    HW232512   2.161   4.883   5.613 -1.5178 -0.6180  1.0022
10648SOL     OW32513   2.512   1.712   0.413 -0.4037  0.4995 -0.1546
10648SOL    HW132514   2.601   1.681   0.396 -0.3272  0.4456  0.3373
10648SOL    HW232515   2.489   1.761   0.334  0.7977  2.1834  0.4867
10649SOL     OW32516   4.226   7.296   5.299 -0.5359 -0.3372 -0.0405
10649SOL    HW132517   4.253   7.353   5.227 -0.0338  0.6638  0.9039
10649SOL    HW232518   4.134   7.275   5.279 -1.1117  1.7539  0.1282
10650SOL     OW32519   0.723   3.275   2.563  0.0018 -0.4649 -0.1066
10650SOL    HW132520   0.639   3.316   2.583 -0.7120 -2.1882  0.6886
10650SOL    HW232521   0.732   3.206   2.629  1.7660 -0.7113 -0.5496
10651SOL     OW32522   6.288   5.964   5.514  0.1762  0.1249  0.1686
10651SOL    HW132523   6.247   5.878   5.514  1.7886 -0.7033  1.9051
10651SOL    HW232524   6.344   5.964   5.591  3.5933  1.0719 -2.1097
10652SOL     OW32525   6.859   3.309   0.493 -0.0048  0.5023 -0.0334
10652SOL    HW132526   6.936   3.299   0.550  0.2786  1.4254 -0.2257
10652SOL    HW232527   6.883   3.382   0.435 -0.9350  0.6439 -0.2471
10653SOL     OW32528   4.939   3.388   5.957 -0.1940  0.9378  0.1254
10653SOL    HW132529   4.959   3.482   5.960 -0.7511  1.0709 -0.0633
10653SOL    HW232530   4.851   3.384   5.920  0.6045  0.2311 -1.8257
10654SOL     OW32531   2.913   6.775   0.121 -0.1089  0.4523 -0.3870
10654SOL    HW132532   2.920   6.686   0.086  0.5752 -0.0471  0.9431
10654SOL    HW232533   2.956   6.830   0.056 -1.1198 -0.0833 -1.5483
10655SOL     OW32534   1.597   4.908   2.982  0.0947  0.7157 -0.4186
10655SOL    HW132535   1.691   4.926   2.987  0.4440 -0.9165 -0.6419
10655SOL    HW232536   1.559   4.988   2.945  1.3767  1.4286 -0.2297
10656SOL     OW32537   0.762   0.696   5.151  0.2293  0.0048 -0.7834
10656SOL    HW132538   0.679   0.692   5.103 -0.0809 -1.5064 -0.2027
10656SOL    HW232539   0.737   0.688   5.243  0.9300  1.1683 -0.4772
10657SOL     OW32540   5.911   5.647   0.373 -0.5258 -0.7475 -0.3206
10657SOL    HW132541   5.931   5.625   0.464  1.6198  1.7328 -0.0798
10657SOL    HW232542   5.990   5.622   0.324 -1.2571 -1.1100 -1.3573
10658SOL     OW32543   1.822   3.279   5.510  0.1785 -0.1013 -0.2417
10658SOL    HW132544   1.796   3.371   5.504  2.3947  0.6153  0.3207
10658SOL    HW232545   1.884   3.277   5.582 -0.0100 -2.1050 -0.1037
10659SOL     OW32546   5.464   6.935   4.642  0.3453  0.1782  0.3187
10659SOL    HW132547   5.508   6.853   4.666  0.9243  0.0015 -1.2213
10659SOL    HW232548   5.473   6.939   4.547  0.0245  1.8721  0.3431
10660SOL     OW32549   5.252   5.219   7.047  0.6884  0.5547  0.4058
10660SOL    HW132550   5.282   5.276   6.977  0.2167  0.2675 -0.0331
10660SOL    HW232551   5.321   5.154   7.057 -0.0075 -0.4346 -0.9779
10661SOL     OW32552   0.410   6.298   3.248 -0.1593  0.0008 -0.4592
10661SOL    HW132553   0.325   6.262   3.223 -0.1542 -0.0963 -0.3409
10661SOL    HW232554   0.421   6.376   3.193 -0.1150 -0.2471 -0.8022
10662SOL     OW32555   2.994   6.316   2.047 -0.3583 -0.2469 -0.5910
10662SOL    HW132556   3.076   6.343   2.088 -0.6031  2.2348 -1.5484
10662SOL    HW232557   2.967   6.392   1.995 -2.6237 -1.4421 -1.3069
10663SOL     OW32558   2.447   6.882   1.871 -0.3994 -0.2117 -0.0024
10663SOL    HW132559   2.466   6.870   1.778 -0.3192 -1.0318  0.1174
10663SOL    HW232560   2.433   6.794   1.905  2.9288 -0.3181  1.4778
10664SOL     OW32561   0.860   0.976   5.907  0.2965  0.1823 -0.0784
10664SOL    HW132562   0.768   0.971   5.934  0.5973  1.1456  1.2660
10664SOL    HW232563   0.876   1.069   5.893  1.1429  0.0646  0.0328
10665SOL     OW32564   0.578   6.185   6.878  0.5071  0.1906  0.1547
10665SOL    HW132565   0.659   6.159   6.922  1.4391  0.9386 -1.0539
10665SOL    HW232566   0.607   6.231   6.799 -1.0985  1.3285  0.1804
10666SOL     OW32567   1.911   0.277   3.336 -0.3889 -0.4947 -0.0681
10666SOL    HW132568   1.948   0.335   3.403 -0.2392  0.6735 -1.1069
10666SOL    HW232569   1.903   0.192   3.379 -0.2588  0.2043  1.4023
10667SOL     OW32570   7.384   5.546   4.743  0.0229  0.0818  0.1443
10667SOL    HW132571   7.336   5.505   4.671 -1.0865 -0.1203  0.9582
10667SOL    HW232572   7.369   5.640   4.733  0.6765  0.1337 -0.4242
10668SOL     OW32573   4.374   6.912   0.021  0.0612  0.1675 -0.1143
10668SOL    HW132574   4.394   6.916   0.114 -0.3549  0.0914 -0.0206
10668SOL    HW232575   4.459   6.902  -0.022  0.1003 -3.0265  0.4315
10669SOL     OW32576   2.072   4.015   0.128 -0.4308 -0.4358 -1.3928
10669SOL    HW132577   1.977   4.006   0.120 -0.3544 -1.3390 -1.4357
10669SOL    HW232578   2.106   3.928   0.106  0.3707 -0.3039 -0.7192
10670SOL     OW32579   4.606   5.159   6.440  0.2672 -0.3099 -0.4279
10670SOL    HW132580   4.654   5.207   6.372 -0.9445  0.9220 -0.4403
10670SOL    HW232581   4.660   5.169   6.519  0.6331  0.0502 -0.7175
10671SOL     OW32582   5.585   1.237   2.274 -0.1168 -0.2917 -0.2607
10671SOL    HW132583   5.540   1.230   2.190  2.2493  0.0084 -1.6490
10671SOL    HW232584   5.560   1.323   2.307 -3.7318 -1.6724  1.1193
10672SOL     OW32585   4.789   6.841   2.084  0.2206 -0.0322 -0.5685
10672SOL    HW132586   4.874   6.802   2.104 -0.2725 -0.4028  0.9312
10672SOL    HW232587   4.737   6.768   2.049 -0.5017 -0.6517  1.6462
10673SOL     OW32588   5.846   5.768   3.280  0.5003 -0.5103  0.5166
10673SOL    HW132589   5.848   5.701   3.212 -3.1199 -0.3918  0.0736
10673SOL    HW232590   5.880   5.847   3.237  1.4412 -1.2031 -0.0472
10674SOL     OW32591   5.179   5.650   4.238 -0.4060  0.8104 -0.1344
10674SOL    HW132592   5.211   5.633   4.327 -1.8664  1.5954  0.5702
10674SOL    HW232593   5.220   5.732   4.213  0.8406  0.0647 -0.6328
10675SOL     OW32594   4.528   1.095   1.458 -0.7348  0.6734 -0.7676
10675SOL    HW132595   4.449   1.079   1.509  0.0518 -0.5464  0.1334
10675SOL    HW232596   4.529   1.189   1.443 -1.8865  0.8197 -0.0095
10676SOL     OW32597   3.263   2.794   5.902  0.5419 -0.0959  0.1651
10676SOL    HW132598   3.188   2.842   5.868 -0.4933 -3.4454 -2.9243
10676SOL    HW232599   3.339   2.834   5.859 -0.1278 -0.3004 -1.2500
10677SOL     OW32600   4.965   2.423   4.516 -0.3176 -0.3834  0.3813
10677SOL    HW132601   5.019   2.482   4.462 -1.2747 -0.3031 -0.5271
10677SOL    HW232602   5.029   2.366   4.559  0.5177 -0.0668 -0.3845
10678SOL     OW32603   4.504   2.649   5.896 -0.1649  0.1784 -0.6723
10678SOL    HW132604   4.451   2.575   5.866 -0.2232 -0.2556  0.4725
10678SOL    HW232605   4.519   2.632   5.989 -0.5041  1.8025 -0.2944
10679SOL     OW32606   5.771   2.179   2.569  0.4226 -0.1391  0.1931
10679SOL    HW132607   5.812   2.092   2.564 -0.1709 -0.4539  0.6513
10679SOL    HW232608   5.775   2.202   2.662  3.3201  1.6985 -0.2809
10680SOL     OW32609   3.356   4.308   5.359 -0.3170  0.1564 -0.5092
10680SOL    HW132610   3.358   4.392   5.405 -1.9001  1.4786 -2.6892
10680SOL    HW232611   3.294   4.255   5.409  0.9679  0.0791  1.0954
10681SOL     OW32612   5.201   2.323   3.341  0.0995  0.1584  0.2607
10681SOL    HW132613   5.168   2.243   3.381  1.3332 -0.8062 -0.5458
10681SOL    HW232614   5.226   2.296   3.252  1.5300  1.1589  0.3239
10682SOL     OW32615   2.700   6.851   2.461 -0.3466 -1.0468  0.2557
10682SOL    HW132616   2.657   6.766   2.447 -2.2019 -0.3230  1.2228
10682SOL    HW232617   2.628   6.913   2.470  0.9275  1.1303 -2.8937
10683SOL     OW32618   7.164   2.140   7.423 -0.0928  0.3641  0.0321
10683SOL    HW132619   7.176   2.132   7.518  0.1069  2.6021  0.2482
10683SOL    HW232620   7.166   2.234   7.407  1.2459 -0.0093 -2.3853
10684SOL     OW32621   3.643   4.109   4.767  0.0610 -0.1308  0.2110
10684SOL    HW132622   3.562   4.090   4.812 -0.4199 -0.1635 -0.6397
10684SOL    HW232623   3.707   4.048   4.803 -0.5717 -0.8717  0.0898
10685SOL     OW32624   5.627   1.917   6.429 -0.5773 -0.9001 -0.4680
10685SOL    HW132625   5.696   1.915   6.495  0.2217 -1.2573 -1.3054
10685SOL    HW232626   5.638   1.836   6.380 -0.9497 -0.4807 -1.2572
10686SOL     OW32627   0.384   0.488   6.435 -0.2136 -0.0793  0.1113
10686SOL    HW132628   0.355   0.578   6.418  0.4546  0.0061 -0.6121
10686SOL    HW232629   0.477   0.487   6.412 -0.1787 -0.9198  0.2363
10687SOL     OW32630   4.237   6.208   0.358 -0.0305 -0.5754 -0.1358
10687SOL    HW132631   4.299   6.170   0.420 -0.9088 -0.4704  0.8346
10687SOL    HW232632   4.289   6.227   0.280  0.7037 -2.4323 -0.1267
10688SOL     OW32633   0.451   6.934   1.201 -0.3185 -0.4516 -0.4177
10688SOL    HW132634   0.525   6.972   1.249  0.2553 -3.3302  1.2202
10688SOL    HW232635   0.458   6.970   1.113  1.7940  0.9760  0.2528
10689SOL     OW32636   5.851   6.926   4.176 -0.0559 -0.7646 -0.1803
10689SOL    HW132637   5.793   7.002   4.167  0.4376 -0.0565  2.0600
10689SOL    HW232638   5.800   6.862   4.225  0.0696 -1.2818 -0.7190
10690SOL     OW32639   1.642   7.220   3.315 -0.8486 -0.2025 -0.0828
10690SOL    HW132640   1.556   7.259   3.299 -1.4703 -1.2575  0.5790
10690SOL    HW232641   1.648   7.213   3.410  0.8597  1.7345  0.0091
10691SOL     OW32642   1.616   2.776   6.233  0.2198  0.2333 -0.5207
10691SOL    HW132643   1.679   2.839   6.198 -0.0463  1.2301  0.7296
10691SOL    HW232644   1.539   2.828   6.253 -0.0144 -0.4871  0.5194
10692SOL     OW32645   7.302   2.970   4.337  0.2353 -0.0569 -0.5635
10692SOL    HW132646   7.361   2.928   4.274  1.6230  0.1805  0.5469
10692SOL    HW232647   7.275   3.051   4.294 -0.3655 -0.7872 -1.6269
10693SOL     OW32648   0.703   1.068   2.530  0.3150  0.0698  0.5121
10693SOL    HW132649   0.614   1.096   2.551 -0.2058 -0.0314 -1.3177
10693SOL    HW232650   0.756   1.147   2.538 -0.1042  0.3315  0.7449
10694SOL     OW32651   1.601   7.206   3.844 -0.1441  0.3588 -0.0119
10694SOL    HW132652   1.527   7.265   3.856  0.8812  1.4229  1.3293
10694SOL    HW232653   1.583   7.132   3.901  1.1511  1.9814  2.6933
10695SOL     OW32654   7.023   5.827   5.262  0.3703  0.1844  0.2104
10695SOL    HW132655   7.014   5.775   5.341 -0.9842 -0.1202 -0.1223
10695SOL    HW232656   7.069   5.770   5.200 -1.4728 -0.8445 -0.2967
10696SOL     OW32657   6.197   4.958   4.092  0.1887 -0.4342  0.1831
10696SOL    HW132658   6.212   5.023   4.024 -0.1548 -1.3507 -0.8075
10696SOL    HW232659   6.197   4.874   4.045 -0.8778 -1.0224  1.1754
10697SOL     OW32660   4.784   4.158   3.658 -0.2783  0.1257 -0.4070
10697SOL    HW132661   4.843   4.226   3.689 -0.6255  0.1456  0.2201
10697SOL    HW232662   4.805   4.149   3.565 -0.0781  0.9366 -0.4525
10698SOL     OW32663   1.808   4.047   4.399 -0.1912 -0.6220 -0.4095
10698SOL    HW132664   1.863   3.989   4.348  1.7756  0.7180  0.1003
10698SOL    HW232665   1.820   4.018   4.490 -0.9123 -0.7676 -0.3502
10699SOL     OW32666   1.937   5.217   4.857  0.0283 -0.1775 -0.3390
10699SOL    HW132667   1.925   5.270   4.778 -1.4122 -0.8461 -0.6094
10699SOL    HW232668   2.030   5.221   4.875  0.1211  1.4850 -1.0301
10700SOL     OW32669   1.790   1.434   6.091 -0.5271 -0.1452  0.2594
10700SOL    HW132670   1.802   1.410   6.000  3.5538  0.3607  0.4853
10700SOL    HW232671   1.829   1.362   6.141  0.1688  1.0062  1.4492
10701SOL     OW32672   2.310   2.729   1.755  0.0373 -0.2363  0.4002
10701SOL    HW132673   2.312   2.691   1.667  1.3787  0.9938 -0.1465
10701SOL    HW232674   2.220   2.759   1.766 -0.1742 -0.5035 -0.5179
10702SOL     OW32675   4.326   4.370   2.599  0.1724 -0.0918 -0.0538
10702SOL    HW132676   4.357   4.304   2.661  1.1397 -1.6368 -2.0680
10702SOL    HW232677   4.365   4.344   2.515 -0.9230  2.0112 -1.2898
10703SOL     OW32678   6.337   2.101   3.290  0.1143  0.0317  0.4857
10703SOL    HW132679   6.256   2.149   3.308 -0.2842 -0.4580  0.0348
10703SOL    HW232680   6.311   2.009   3.288 -0.2951  0.0116 -4.0990
10704SOL     OW32681   0.361   1.315   2.180 -0.0099  0.1718 -0.3408
10704SOL    HW132682   0.428   1.308   2.248  0.2403  1.8759 -0.3721
10704SOL    HW232683   0.299   1.380   2.213 -0.9901 -0.4740 -0.8617
10705SOL     OW32684   2.933   2.584   5.101  0.6242 -0.4468 -0.6208
10705SOL    HW132685   2.905   2.509   5.154 -0.2347 -0.8006 -1.5322
10705SOL    HW232686   2.958   2.651   5.165 -1.8131 -0.3147  0.3042
10706SOL     OW32687   2.406   0.406   6.807 -0.1344  0.0531  0.4770
10706SOL    HW132688   2.428   0.336   6.747 -1.0404 -2.2811  2.6676
10706SOL    HW232689   2.488   0.426   6.853  0.0023  0.0192  0.2477
10707SOL     OW32690   7.062   1.413   3.538  0.1318  0.0583  0.0043
10707SOL    HW132691   7.031   1.476   3.603  0.1348 -0.3078  0.3659
10707SOL    HW232692   7.145   1.380   3.574  1.0518  1.1472 -1.0242
10708SOL     OW32693   5.065   5.887   3.607  0.0342 -0.1562 -0.0388
10708SOL    HW132694   5.076   5.794   3.628 -0.8913 -0.4702 -0.8819
10708SOL    HW232695   5.009   5.888   3.529 -0.3692  1.1264  0.2447
10709SOL     OW32696   3.364   5.649   4.532 -0.3643  0.7030 -0.0577
10709SOL    HW132697   3.361   5.696   4.449  1.1312 -0.4942 -0.8390
10709SOL    HW232698   3.383   5.559   4.508  0.0201  0.3115  1.5838
10710SOL     OW32699   5.202   0.798   1.754  0.0883 -0.3194  1.1560
10710SOL    HW132700   5.195   0.751   1.671  0.2778  1.1440  0.2703
10710SOL    HW232701   5.114   0.793   1.793 -0.2176 -0.3270  0.4719
10711SOL     OW32702   7.205   5.504   1.531  0.2398 -0.6240  0.4132
10711SOL    HW132703   7.301   5.503   1.535  0.2868  0.0099 -0.2771
10711SOL    HW232704   7.180   5.581   1.583  0.0713 -1.0474  0.9745
10712SOL     OW32705   4.567   5.568   1.753  0.3219  0.0305  0.1246
10712SOL    HW132706   4.663   5.578   1.756  0.4159 -0.4895 -0.9406
10712SOL    HW232707   4.542   5.560   1.845  1.5620 -1.9544  0.3699
10713SOL     OW32708   4.537   6.382   4.088 -0.4552  0.0108 -0.6267
10713SOL    HW132709   4.522   6.314   4.153 -0.2610  0.4145 -0.1529
10713SOL    HW232710   4.599   6.344   4.026  0.8257  0.2637  0.4534
10714SOL     OW32711   2.953   5.946   0.815 -0.8095 -1.0090 -0.0382
10714SOL    HW132712   2.966   5.964   0.722 -3.2172 -0.9524 -0.4148
10714SOL    HW232713   2.899   5.867   0.818 -1.2757 -0.6751  1.2849
10715SOL     OW32714   1.121   2.805   2.030 -0.1351  0.3642  0.3385
10715SOL    HW132715   1.046   2.861   2.052 -0.4127  0.2874 -0.3632
10715SOL    HW232716   1.156   2.843   1.950 -1.5273 -1.5459 -1.3029
10716SOL     OW32717   0.715   5.370   2.954  0.3294  0.5258 -0.2045
10716SOL    HW132718   0.724   5.460   2.924  1.1988  0.9801  1.3083
10716SOL    HW232719   0.621   5.357   2.964 -0.2649 -0.3051 -4.7838
10717SOL     OW32720   0.639   2.545   3.557  0.0372  0.1417 -0.2292
10717SOL    HW132721   0.691   2.599   3.498  0.2031  0.9735  0.6538
10717SOL    HW232722   0.626   2.463   3.510  0.5913  0.6014 -1.2052
10718SOL     OW32723   1.519   0.840   4.081 -0.0078 -0.0622 -0.0407
10718SOL    HW132724   1.464   0.908   4.044  0.5610  1.0669  1.1103
10718SOL    HW232725   1.583   0.820   4.012 -0.5805  0.0870 -0.6179
10719SOL     OW32726   2.327   0.105   2.920  0.1334 -1.0205 -0.0028
10719SOL    HW132727   2.321   0.191   2.877 -2.6184 -1.3090 -0.3418
10719SOL    HW232728   2.335   0.126   3.013 -1.9049 -0.3292  0.0605
10720SOL     OW32729   4.846   2.927   0.815  0.0411 -0.3191  0.1056
10720SOL    HW132730   4.898   2.951   0.892  3.1072  1.2901 -2.2469
10720SOL    HW232731   4.756   2.930   0.846  1.1434 -1.3759  3.9990
10721SOL     OW32732   3.679   7.337   7.096 -0.0540  0.4174 -0.6176
10721SOL    HW132733   3.642   7.251   7.077 -1.9860  0.7522  1.2675
10721SOL    HW232734   3.712   7.330   7.185  1.4596  1.1257 -1.0954
10722SOL     OW32735   3.988   1.380   3.653  0.2251 -0.4070  0.0365
10722SOL    HW132736   3.933   1.417   3.583  1.5459  1.2928 -0.1628
10722SOL    HW232737   4.041   1.314   3.609 -0.4588 -0.8853 -0.0993
10723SOL     OW32738   6.330   2.370   5.635 -0.0466 -0.4380  0.1479
10723SOL    HW132739   6.425   2.376   5.647  0.1288 -1.6221 -0.5172
10723SOL    HW232740   6.309   2.440   5.573  0.2202  0.5247  1.1179
10724SOL     OW32741   3.753   2.652   4.258 -0.5511 -0.2408 -0.1242
10724SOL    HW132742   3.726   2.578   4.204 -0.8164 -1.5770  1.7348
10724SOL    HW232743   3.726   2.628   4.347 -0.6955  2.1267  0.5359
10725SOL     OW32744   1.603   0.222   0.937  0.1165 -0.5563  0.6063
10725SOL    HW132745   1.667   0.282   0.898  0.8161 -1.5865  0.1404
10725SOL    HW232746   1.653   0.142   0.954 -0.6891 -0.8530  1.6727
10726SOL     OW32747   0.409   5.703   5.132 -0.5190 -0.3718  0.2417
10726SOL    HW132748   0.464   5.699   5.210  0.7100  1.5205 -0.4631
10726SOL    HW232749   0.337   5.761   5.156 -1.5120 -1.7350  0.7064
10727SOL     OW32750   2.545   2.438   5.362  0.7405 -0.2191  0.0555
10727SOL    HW132751   2.479   2.413   5.297 -0.6691  2.7892  0.1731
10727SOL    HW232752   2.503   2.422   5.447  0.2635  1.3106  0.1336
10728SOL     OW32753   6.833   2.832   6.431 -1.1512 -0.5464  0.1177
10728SOL    HW132754   6.766   2.767   6.408  1.4324 -3.5493  0.4585
10728SOL    HW232755   6.858   2.809   6.521  1.2945 -0.5157 -0.4825
10729SOL     OW32756   4.544   7.052   3.468  0.1542  0.2604 -0.4018
10729SOL    HW132757   4.545   7.091   3.381 -0.8024  0.3821 -0.3778
10729SOL    HW232758   4.539   7.127   3.528  0.0905  0.1613 -0.2811
10730SOL     OW32759   2.937   3.649   6.461  0.2140  0.0020  0.0180
10730SOL    HW132760   2.988   3.643   6.542 -1.2704 -0.0973  0.9860
10730SOL    HW232761   2.993   3.699   6.401  1.0731  0.6598  1.3177
10731SOL     OW32762   7.003   3.789   4.688 -0.5656  0.1668  0.5483
10731SOL    HW132763   7.004   3.882   4.711  0.2472  0.1431  0.6275
10731SOL    HW232764   7.031   3.744   4.768 -1.2441 -0.1759  0.6051
10732SOL     OW32765   4.193   6.447   5.070 -0.1163  0.1193  0.2424
10732SOL    HW132766   4.164   6.382   5.134 -0.0034 -2.0662 -1.7933
10732SOL    HW232767   4.134   6.521   5.083 -0.6598 -0.5935  2.2532
10733SOL     OW32768   1.457   1.977   2.869  0.5090 -1.2066  0.5822
10733SOL    HW132769   1.516   2.050   2.847  0.4508 -0.4185  2.7759
10733SOL    HW232770   1.408   1.962   2.789  0.3298  1.3871  0.0964
10734SOL     OW32771   4.846   5.100   7.048 -0.1407 -0.1686  0.6579
10734SOL    HW132772   4.891   5.163   7.104  0.8888 -0.1315 -0.1951
10734SOL    HW232773   4.754   5.125   7.053 -0.0638 -0.1250  2.2599
10735SOL     OW32774   2.008   4.445   5.595  0.2868  0.1444 -0.3128
10735SOL    HW132775   2.045   4.512   5.536  1.2765  1.7749  2.0189
10735SOL    HW232776   2.084   4.396   5.626 -0.2627 -0.9041 -0.5704
10736SOL     OW32777   4.870   4.858   0.925 -0.6337 -0.7443 -0.1455
10736SOL    HW132778   4.936   4.857   0.994 -0.1594 -3.0040 -0.5641
10736SOL    HW232779   4.803   4.918   0.957  1.4084  1.3416  0.4466
10737SOL     OW32780   3.023   3.664   1.583 -0.1811  0.1146 -0.8799
10737SOL    HW132781   3.025   3.760   1.591 -1.9370  0.0785  0.5141
10737SOL    HW232782   3.089   3.645   1.516 -1.0361  2.4296 -2.5265
10738SOL     OW32783   3.275   5.894   5.132  0.5488  0.3316  0.7181
10738SOL    HW132784   3.349   5.854   5.087  1.5510  0.9717  1.7431
10738SOL    HW232785   3.244   5.963   5.073  0.3430 -0.3701  0.0013
10739SOL     OW32786   6.152   4.793   2.245  0.2740 -0.3247 -0.8388
10739SOL    HW132787   6.120   4.703   2.238  0.2432 -0.2135 -2.6793
10739SOL    HW232788   6.165   4.821   2.154 -0.3132  1.7500 -0.3495
10740SOL     OW32789   0.062   2.234   0.818  0.0355  0.7676  0.3862
10740SOL    HW132790   0.151   2.200   0.815  0.2787  1.2032  1.9250
10740SOL    HW232791   0.008   2.163   0.783  1.1061  1.1165 -2.1540
10741SOL     OW32792   2.201   4.627   6.796 -0.6222 -0.1204  0.3105
10741SOL    HW132793   2.184   4.683   6.720 -0.4382  0.5296  0.7325
10741SOL    HW232794   2.182   4.684   6.871 -0.3254 -0.5978  0.7490
10742SOL     OW32795   6.569   6.807   6.432 -0.1655 -0.4239 -0.3148
10742SOL    HW132796   6.521   6.735   6.389 -0.5218 -0.0390 -0.5697
10742SOL    HW232797   6.606   6.857   6.360  1.1103 -1.0293 -0.1088
10743SOL     OW32798   6.625   1.672   4.251 -0.3936 -0.1952 -0.5126
10743SOL    HW132799   6.531   1.659   4.258 -0.6628  0.9203 -1.5907
10743SOL    HW232800   6.663   1.619   4.321 -1.9855  1.1973  1.5389
10744SOL     OW32801   6.292   6.397   5.528 -0.0170 -0.2409 -0.2756
10744SOL    HW132802   6.345   6.325   5.494  0.7161  0.3052 -0.3322
10744SOL    HW232803   6.241   6.358   5.599 -0.8386 -1.1735 -1.3345
10745SOL     OW32804   7.163   5.726   1.185  0.2168 -0.1888 -0.2005
10745SOL    HW132805   7.254   5.707   1.166  0.7785  0.9985  1.1390
10745SOL    HW232806   7.115   5.652   1.148  1.8298 -1.5358  0.2833
10746SOL     OW32807   5.607   6.691   4.637 -0.7478  0.0899 -0.0257
10746SOL    HW132808   5.607   6.666   4.730  1.1833 -0.0365 -0.0009
10746SOL    HW232809   5.632   6.611   4.592 -1.0955  0.3068 -0.6041
10747SOL     OW32810   1.033   5.437   4.791 -0.2080 -0.3467 -0.0878
10747SOL    HW132811   1.106   5.381   4.767 -0.2566 -1.0187  1.2291
10747SOL    HW232812   0.970   5.427   4.719 -0.1630 -1.9050  0.0615
10748SOL     OW32813   0.474   3.712   6.418  0.0815  0.3653 -0.2235
10748SOL    HW132814   0.502   3.755   6.337 -1.3129  0.5039 -0.6682
10748SOL    HW232815   0.451   3.785   6.476 -1.2393  0.2744 -0.5904
10749SOL     OW32816   2.184   3.803   1.129 -0.1443 -0.7767  0.1250
10749SOL    HW132817   2.118   3.852   1.180 -0.3092 -1.1192  0.2437
10749SOL    HW232818   2.186   3.717   1.170  0.5467 -0.6980  0.2603
10750SOL     OW32819   3.715   0.606   1.621  0.2404 -0.0752  0.4013
10750SOL    HW132820   3.725   0.637   1.531 -2.7880 -0.4673 -0.1878
10750SOL    HW232821   3.721   0.686   1.674  1.7913  0.1911 -0.1211
10751SOL     OW32822   6.392   7.244   1.026  0.2756 -0.3873  0.0299
10751SOL    HW132823   6.299   7.223   1.015  0.3430 -0.5389 -0.2541
10751SOL    HW232824   6.430   7.162   1.059  0.2451 -0.2176  0.4993
10752SOL     OW32825   7.131   3.595   4.943 -0.6244 -0.1395 -0.1443
10752SOL    HW132826   7.064   3.567   4.880 -2.1184 -0.1007  1.3598
10752SOL    HW232827   7.182   3.517   4.961 -2.5626 -1.1220  1.3920
10753SOL     OW32828   4.126   0.640   2.508  0.2949 -0.8747  0.4813
10753SOL    HW132829   4.163   0.725   2.533 -1.3596  0.4166 -1.2220
10753SOL    HW232830   4.177   0.613   2.431 -1.0472  0.0331 -0.7626
10754SOL     OW32831   4.960   7.372   1.415 -0.7264 -0.2390 -0.1875
10754SOL    HW132832   4.925   7.286   1.394 -2.8596  0.3992  0.4766
10754SOL    HW232833   4.954   7.378   1.510  0.5545  0.2015 -0.1133
10755SOL     OW32834   3.289   3.496   1.534  0.2016 -0.0074 -0.3485
10755SOL    HW132835   3.330   3.409   1.528 -1.6800 -0.9437 -0.4984
10755SOL    HW232836   3.214   3.490   1.475 -1.7119  0.6781  1.8995
10756SOL     OW32837   4.107   6.356   5.950 -0.3342  0.5725 -0.1283
10756SOL    HW132838   4.183   6.373   6.006  0.0909 -0.8695 -0.2246
10756SOL    HW232839   4.033   6.354   6.010 -0.2765  1.7161  0.0041
10757SOL     OW32840   3.769   6.306   0.114  0.4238 -0.0594  0.5302
10757SOL    HW132841   3.859   6.335   0.100  0.4046  0.0881  0.7205
10757SOL    HW232842   3.773   6.210   0.104  0.0296  0.1588 -2.7727
10758SOL     OW32843   6.115   3.353   3.333 -0.0231 -0.0061 -0.2788
10758SOL    HW132844   6.188   3.301   3.367 -0.2833 -1.8956 -2.4048
10758SOL    HW232845   6.055   3.361   3.407  0.8004 -1.3199  0.5790
10759SOL     OW32846   0.857   3.291   3.733  0.1661 -0.4230 -0.1782
10759SOL    HW132847   0.823   3.268   3.646 -0.1389  0.7691 -0.3998
10759SOL    HW232848   0.791   3.350   3.769  0.9459  0.1722  0.3000
10760SOL     OW32849   2.326   7.311   4.091  0.2428 -0.0405  0.4152
10760SOL    HW132850   2.287   7.369   4.025  0.1090  1.9280  2.1176
10760SOL    HW232851   2.309   7.355   4.174  0.0785 -2.6269  1.8376
10761SOL     OW32852   2.769   6.319   3.690 -0.4436 -0.1496 -0.2942
10761SOL    HW132853   2.750   6.406   3.656  0.0808 -0.6020 -1.8280
10761SOL    HW232854   2.855   6.328   3.732  0.0212 -0.1187 -1.2405
10762SOL     OW32855   0.938   1.774   3.816  0.1874  0.6110  0.3808
10762SOL    HW132856   0.867   1.793   3.754  1.2497  1.5907 -0.6061
10762SOL    HW232857   0.980   1.859   3.830  2.4720 -0.2556 -0.7666
10763SOL     OW32858   0.243   1.088   6.669 -0.1682 -0.1497 -0.1337
10763SOL    HW132859   0.180   1.017   6.683  1.2365 -1.1460  1.7606
10763SOL    HW232860   0.264   1.119   6.757 -0.8486  2.8254 -0.9072
10764SOL     OW32861   0.307   7.344   1.071  0.4459 -0.4587 -0.2967
10764SOL    HW132862   0.362   7.266   1.082 -1.6392 -1.9152  0.4086
10764SOL    HW232863   0.288   7.373   1.160 -1.2005 -0.9620 -0.4512
10765SOL     OW32864   5.087   2.944   6.885 -0.5528 -0.5146  1.3704
10765SOL    HW132865   5.182   2.939   6.873 -0.5331 -0.3848  1.4631
10765SOL    HW232866   5.076   3.005   6.958 -0.7736  0.8189  0.2433
10766SOL     OW32867   0.202   0.681   7.003 -0.2944 -0.1267  0.3006
10766SOL    HW132868   0.250   0.607   7.042  0.6225  0.5472  0.4849
10766SOL    HW232869   0.114   0.647   6.989  0.2426 -1.4353 -0.1089
10767SOL     OW32870   4.686   4.145   2.736  0.0580 -0.4206  0.1848
10767SOL    HW132871   4.661   4.234   2.711 -0.5859 -0.2655  1.3085
10767SOL    HW232872   4.664   4.140   2.829  2.6239 -0.8496  0.8453
10768SOL     OW32873   5.711   6.617   2.263  0.3682  0.1953 -0.0630
10768SOL    HW132874   5.793   6.577   2.292  1.2037  2.0436  0.2718
10768SOL    HW232875   5.738   6.691   2.209 -1.1294 -0.2464 -1.5098
10769SOL     OW32876   6.493   1.435   2.232 -0.4776 -0.1676 -0.2773
10769SOL    HW132877   6.467   1.345   2.211 -0.4795  0.3843 -3.1113
10769SOL    HW232878   6.581   1.444   2.197 -0.4293  0.9048  0.0631
10770SOL     OW32879   7.377   6.106   3.648  0.0521 -0.3259 -0.2418
10770SOL    HW132880   7.321   6.056   3.708 -0.0082 -1.0548 -0.8863
10770SOL    HW232881   7.315   6.158   3.596  0.2071  2.3831  2.0461
10771SOL     OW32882   2.960   6.520   6.899  0.1318  0.3834  0.0324
10771SOL    HW132883   3.011   6.496   6.976  0.5331  2.1056  0.3465
10771SOL    HW232884   3.027   6.544   6.833 -0.2084 -0.7769 -0.7585
10772SOL     OW32885   3.625   1.391   1.146 -0.1257 -0.1917  0.0314
10772SOL    HW132886   3.614   1.411   1.239  1.4924  1.3035 -0.0551
10772SOL    HW232887   3.656   1.300   1.145 -1.9507 -0.8897  0.7862
10773SOL     OW32888   4.485   6.536   0.973  0.4502  0.4954  0.0028
10773SOL    HW132889   4.517   6.494   1.054  0.1873  1.3628  0.5683
10773SOL    HW232890   4.514   6.477   0.903 -0.8241 -1.2178  0.8231
10774SOL     OW32891   3.951   5.952   3.936  0.5246  0.6611 -0.6798
10774SOL    HW132892   4.038   5.917   3.955  0.4302  1.4745  1.6269
10774SOL    HW232893   3.891   5.890   3.979  0.1839  1.7713  0.5200
10775SOL     OW32894   2.436   6.203   1.757  0.5149  0.1628  0.4967
10775SOL    HW132895   2.412   6.115   1.786 -0.2826  0.3350  0.3874
10775SOL    HW232896   2.357   6.237   1.716  0.1587  1.6940  2.3094
10776SOL     OW32897   0.103   4.112   7.277 -0.1044 -0.4732 -0.5559
10776SOL    HW132898   0.026   4.111   7.334  0.0973  0.6603 -0.2323
10776SOL    HW232899   0.101   4.028   7.232 -0.1728 -1.4744  1.2381
10777SOL     OW32900   3.851   1.677   3.192  0.0913 -0.1980 -0.3061
10777SOL    HW132901   3.897   1.759   3.211 -0.2004 -0.4054  1.4322
10777SOL    HW232902   3.920   1.615   3.169  0.9740 -0.8697  3.5151
10778SOL     OW32903   1.956   7.435   4.579  0.3419 -0.0246  0.3886
10778SOL    HW132904   1.982   7.375   4.649  0.4235 -0.5538 -0.0866
10778SOL    HW232905   1.881   7.393   4.537  1.6463 -0.8378 -1.2693
10779SOL     OW32906   0.669   4.890   0.205 -0.0179  0.0246 -0.4862
10779SOL    HW132907   0.643   4.835   0.130 -0.1078  0.6707 -0.9406
10779SOL    HW232908   0.739   4.841   0.247 -0.8581 -0.9877 -0.2008
10780SOL     OW32909   6.399   4.583   1.768 -0.1309 -0.0286 -0.2027
10780SOL    HW132910   6.339   4.592   1.694 -1.4775  1.5166  1.0097
10780SOL    HW232911   6.365   4.509   1.818 -0.6215  0.3846  0.0879
10781SOL     OW32912   5.017   7.369   5.154  0.2310 -0.4769 -0.1114
10781SOL    HW132913   4.960   7.370   5.231  1.0712  0.9989  0.5281
10781SOL    HW232914   5.105   7.384   5.189  0.4741  1.5870 -1.4599
10782SOL     OW32915   4.683   0.167   5.419  0.7081 -0.1092  0.2066
10782SOL    HW132916   4.667   0.181   5.326 -0.0919  0.1097  0.3664
10782SOL    HW232917   4.676   0.072   5.430 -0.3513 -0.0402  0.2333
10783SOL     OW32918   1.133   0.005   0.438 -0.4849  0.4764 -0.6753
10783SOL    HW132919   1.073   0.062   0.486  1.3106  1.0908  0.9602
10783SOL    HW232920   1.079  -0.036   0.370 -2.7836  0.8186  0.8531
10784SOL     OW32921   4.040   5.187   0.608 -0.6050 -0.3712 -0.0632
10784SOL    HW132922   4.125   5.145   0.589 -0.5403 -1.3400  2.1004
10784SOL    HW232923   3.992   5.180   0.526  1.4441  0.3704 -1.4135
10785SOL     OW32924   3.078   3.789   1.290  0.5234 -0.0732 -0.2091
10785SOL    HW132925   3.151   3.758   1.237  1.3154 -3.0924  2.3691
10785SOL    HW232926   3.113   3.865   1.337  0.7300  0.8002 -1.7111
10786SOL     OW32927   6.937   5.781   7.364 -0.2506  0.4888  0.1355
10786SOL    HW132928   6.927   5.687   7.374  0.0109  0.5639  1.2032
10786SOL    HW232929   6.909   5.818   7.448  1.3065  1.2299  0.3693
10787SOL     OW32930   3.584   5.701   7.053 -0.1097 -0.0815  0.0641
10787SOL    HW132931   3.623   5.637   7.113 -0.4930  0.3282  0.7569
10787SOL    HW232932   3.642   5.699   6.976 -0.8782 -2.2867 -0.5431
10788SOL     OW32933   4.312   2.135   4.577  0.3409 -0.4559  0.5815
10788SOL    HW132934   4.403   2.137   4.607  0.0348 -0.7967  1.5867
10788SOL    HW232935   4.302   2.049   4.536  0.9633  0.2951 -1.2093
10789SOL     OW32936   3.982   3.259   1.422 -0.0722  0.2821 -0.7503
10789SOL    HW132937   3.905   3.203   1.427 -0.3059  0.7259  1.6887
10789SOL    HW232938   3.977   3.299   1.335 -2.3388 -0.0488 -0.8264
10790SOL     OW32939   4.345   3.853   6.601 -0.4599 -0.1952  0.0497
10790SOL    HW132940   4.263   3.883   6.638 -0.3314 -0.5840  0.6583
10790SOL    HW232941   4.386   3.932   6.566 -0.6735  0.1469  0.5609
10791SOL     OW32942   2.614   2.295   4.779  0.1450 -0.4535 -0.1798
10791SOL    HW132943   2.704   2.330   4.775  0.5012 -1.2011  0.7885
10791SOL    HW232944   2.588   2.309   4.870 -0.6361 -0.4677 -0.3995
10792SOL     OW32945   0.959   4.325   1.531 -0.1766  0.1974 -0.0268
10792SOL    HW132946   0.881   4.292   1.575  0.0841 -0.5251 -0.0912
10792SOL    HW232947   0.959   4.281   1.446  0.3496  0.1137  0.0115
10793SOL     OW32948   5.322   4.131   3.044 -0.4194 -0.1116  0.1689
10793SOL    HW132949   5.311   4.226   3.057  1.1563  0.0688  0.2723
10793SOL    HW232950   5.232   4.099   3.030 -0.9599  1.4181 -0.0725
10794SOL     OW32951   3.989   0.060   7.193 -0.1667 -0.2748  0.3281
10794SOL    HW132952   3.953   0.149   7.195 -0.5149 -0.2744 -2.5110
10794SOL    HW232953   3.934   0.011   7.254 -1.8469  0.8468 -0.2087
10795SOL     OW32954   0.383   0.927   5.774 -0.2192  0.8014 -0.2054
10795SOL    HW132955   0.333   0.871   5.714 -0.0775  0.3823  0.0648
10795SOL    HW232956   0.321   0.995   5.800 -1.0217 -0.3341  0.9878
10796SOL     OW32957   2.497   4.992   2.042  0.0190 -0.1147 -0.0635
10796SOL    HW132958   2.517   4.912   1.993 -0.9918 -1.2112  1.2193
10796SOL    HW232959   2.439   4.962   2.112 -2.1388  2.1232 -0.7979
10797SOL     OW32960   5.226   6.076   6.514 -0.1217 -0.0668 -0.3699
10797SOL    HW132961   5.215   6.051   6.422 -0.9104  1.7995 -0.8303
10797SOL    HW232962   5.309   6.124   6.516  0.5681 -1.2379  0.1840
10798SOL     OW32963   4.557   0.912   4.827  0.0576  0.0196  0.3173
10798SOL    HW132964   4.501   0.835   4.822  0.4963 -0.3373  0.7317
10798SOL    HW232965   4.643   0.877   4.852  1.4430  0.0790 -3.5890
10799SOL     OW32966   1.978   3.655   1.608 -0.1732  0.2176 -0.2479
10799SOL    HW132967   2.023   3.728   1.566 -0.2739  0.3276 -0.1656
10799SOL    HW232968   2.006   3.578   1.558  2.3762 -0.1243  1.5183
10800SOL     OW32969   0.375   5.844   3.758 -0.0945  0.2086 -0.4600
10800SOL    HW132970   0.397   5.879   3.844  2.2639 -4.1788  1.0902
10800SOL    HW232971   0.446   5.873   3.701  1.6519 -1.4854  0.7095
10801SOL     OW32972   0.494   1.165   3.921 -0.1560  0.4470  0.4667
10801SOL    HW132973   0.511   1.175   3.827  0.3320 -2.0149  0.2183
10801SOL    HW232974   0.581   1.167   3.961 -0.1206 -1.2178  0.5136
10802SOL     OW32975   6.174   6.071   2.342 -0.5846 -0.4224 -0.0159
10802SOL    HW132976   6.245   6.013   2.368  0.2132 -0.2399 -1.6427
10802SOL    HW232977   6.206   6.113   2.261 -1.7437  1.1380  0.2913
10803SOL     OW32978   5.657   0.645   6.676  0.0301 -0.1791  0.2572
10803SOL    HW132979   5.578   0.698   6.663 -0.1514 -0.4703  0.1563
10803SOL    HW232980   5.698   0.641   6.590 -0.3861 -0.8734  0.0849
10804SOL     OW32981   6.012   3.416   0.879  0.5654 -0.2229 -0.1111
10804SOL    HW132982   6.005   3.491   0.820 -0.8977 -0.7252 -0.6373
10804SOL    HW232983   6.095   3.374   0.856  0.3020 -0.0708 -1.4382
10805SOL     OW32984   4.102   1.745   4.969  0.1854  0.0374  0.0842
10805SOL    HW132985   4.030   1.748   4.907 -0.2610 -0.0147  0.5904
10805SOL    HW232986   4.151   1.667   4.946  0.8333  0.7614 -1.0792
10806SOL     OW32987   7.220   0.176   5.531  0.5842  0.3401  0.1341
10806SOL    HW132988   7.195   0.087   5.557 -0.8444 -0.0573 -2.2735
10806SOL    HW232989   7.315   0.178   5.541  0.6691 -1.5159  0.1224
10807SOL     OW32990   7.099   5.606   0.526 -0.0150 -0.2664  0.6365
10807SOL    HW132991   7.016   5.559   0.530 -1.8651  2.6310 -0.0613
10807SOL    HW232992   7.109   5.644   0.614  1.1490 -1.4076  1.0253
10808SOL     OW32993   4.518   2.176   3.160  0.1866  0.1839  0.6938
10808SOL    HW132994   4.550   2.206   3.245 -0.8426  1.7947  0.5441
10808SOL    HW232995   4.564   2.230   3.097  0.4536 -0.5599  0.2321
10809SOL     OW32996   6.143   0.878   3.205  0.8206  0.3355 -0.4862
10809SOL    HW132997   6.228   0.846   3.235  0.9111 -0.0977 -1.1685
10809SOL    HW232998   6.080   0.818   3.244  0.7324  1.2167  0.7990
10810SOL     OW32999   4.630   1.563   2.614 -0.3999  0.1346  0.1293
10810SOL    HW133000   4.711   1.511   2.611 -0.9646 -0.7974  0.4911
10810SOL    HW233001   4.568   1.507   2.660 -1.8083  0.0670 -1.7385
10811SOL     OW33002   0.277   1.339   6.078 -0.4564 -0.0080 -0.3328
10811SOL    HW133003   0.279   1.377   6.166  1.4042 -1.0452  0.1290
10811SOL    HW233004   0.309   1.410   6.021  1.6885 -0.3598  0.3405
10812SOL     OW33005   6.930   5.539   1.423 -0.1288  0.3413 -0.2859
10812SOL    HW133006   7.023   5.562   1.416  0.0820 -0.1415  0.7333
10812SOL    HW233007   6.911   5.546   1.516  0.0269 -3.6712  0.2085
10813SOL     OW33008   6.856   0.713   5.856 -0.7780  0.0696  0.0163
10813SOL    HW133009   6.840   0.651   5.927 -0.4046 -1.4701 -1.1942
10813SOL    HW233010   6.940   0.754   5.878 -0.4656 -0.6863  0.2521
10814SOL     OW33011   0.832   0.795   0.730 -0.0941  0.2449  1.1566
10814SOL    HW133012   0.745   0.816   0.762 -0.1751  0.9013  0.5284
10814SOL    HW233013   0.846   0.704   0.756 -1.5363 -0.3420  0.0463
10815SOL     OW33014   1.793   7.208   5.928  0.3320  0.2223 -0.4375
10815SOL    HW133015   1.882   7.205   5.892  0.3434  2.9869 -0.8687
10815SOL    HW233016   1.743   7.147   5.873  1.4577  0.4542 -1.7827
10816SOL     OW33017   5.244   4.474   4.957 -0.3598 -0.0514  0.1522
10816SOL    HW133018   5.175   4.408   4.968  0.4819 -1.3751 -1.9935
10816SOL    HW233019   5.287   4.479   5.042  0.3423 -3.2300  0.0889
10817SOL     OW33020   3.678   3.872   3.839  0.2443 -0.0378 -0.4833
10817SOL    HW133021   3.644   3.934   3.775 -0.0902 -1.1214 -1.3953
10817SOL    HW233022   3.755   3.834   3.797  0.8417  0.2259  0.3403
10818SOL     OW33023   2.396   3.802   2.391  0.1995  0.2747  0.1587
10818SOL    HW133024   2.389   3.875   2.329  0.5651  0.2703  0.1075
10818SOL    HW233025   2.306   3.783   2.416  0.1611  1.6331  1.1939
10819SOL     OW33026   5.389   0.598   3.749 -0.1517  0.6842  0.6937
10819SOL    HW133027   5.360   0.689   3.759  0.0360  1.0421 -1.5072
10819SOL    HW233028   5.334   0.548   3.809  0.1701  2.2991  2.4261
10820SOL     OW33029   3.055   1.492   1.996  0.2763  0.2769 -0.0021
10820SOL    HW133030   2.966   1.497   1.963  0.3202  0.8164 -0.0460
10820SOL    HW233031   3.077   1.582   2.019 -0.7954 -0.3504  4.2808
10821SOL     OW33032   3.828   3.112   2.746  0.2144  0.0767 -0.6311
10821SOL    HW133033   3.907   3.158   2.774  0.6580 -0.8047 -0.4168
10821SOL    HW233034   3.831   3.113   2.651  0.7769 -0.4575 -0.6195
10822SOL     OW33035   0.244   0.005   0.227  0.0830 -0.5910  0.0176
10822SOL    HW133036   0.177   0.027   0.293 -0.6147 -0.4582 -0.7150
10822SOL    HW233037   0.241  -0.091   0.221  0.4617 -0.6375  0.4886
10823SOL     OW33038   2.995   2.704   5.336 -0.0906 -0.3965  0.0583
10823SOL    HW133039   2.976   2.791   5.371 -0.8717 -0.7617  0.5865
10823SOL    HW233040   3.087   2.690   5.356  0.4646  0.9013 -1.3739
10824SOL     OW33041   2.145   3.619   1.361 -0.2441 -0.0303  0.5899
10824SOL    HW133042   2.089   3.570   1.300 -0.6376  0.2942  0.6868
10824SOL    HW233043   2.222   3.563   1.373  0.2751  0.3098 -0.9362
10825SOL     OW33044   1.365   2.934   7.090 -0.1084  0.4079 -0.3506
10825SOL    HW133045   1.434   2.920   7.155 -2.3006 -0.9229  1.8730
10825SOL    HW233046   1.412   2.946   7.007  2.7452 -1.4973  0.8421
10826SOL     OW33047   0.311   2.872   6.417 -0.3178  0.4866  0.2140
10826SOL    HW133048   0.388   2.836   6.374 -0.0096  1.9833 -0.5558
10826SOL    HW233049   0.321   2.848   6.509  1.3404  1.0951  0.2183
10827SOL     OW33050   1.139   5.697   4.691 -0.0782  0.1081  0.3753
10827SOL    HW133051   1.161   5.741   4.774 -0.2884  0.0071  0.4853
10827SOL    HW233052   1.139   5.604   4.713 -1.6580  0.1464  0.6358
10828SOL     OW33053   6.854   2.951   4.345 -0.9513 -0.0253  0.4742
10828SOL    HW133054   6.930   2.899   4.321 -1.6209  0.2403 -2.5953
10828SOL    HW233055   6.886   3.011   4.412  1.3840 -0.3329 -0.2891
10829SOL     OW33056   0.213   2.692   5.221 -0.1605  0.1237  0.0162
10829SOL    HW133057   0.220   2.719   5.129 -2.5436 -0.5936 -0.4600
10829SOL    HW233058   0.241   2.601   5.222  1.5951  0.6242  0.3971
10830SOL     OW33059   7.350   4.355   4.208 -0.4778 -0.4147 -0.7467
10830SOL    HW133060   7.421   4.400   4.162 -0.7766  0.9766  0.0960
10830SOL    HW233061   7.316   4.293   4.143  1.4739 -1.1438 -1.1774
10831SOL     OW33062   6.677   4.644   6.850  0.1859 -0.3004  0.6803
10831SOL    HW133063   6.682   4.711   6.918 -1.1034  0.2225  0.2852
10831SOL    HW233064   6.591   4.604   6.862 -0.3349  0.2202 -1.0045
10832SOL     OW33065   5.125   6.023   1.919  0.6830 -0.1701 -0.3099
10832SOL    HW133066   5.034   6.001   1.934  1.5039 -2.7950  1.4636
10832SOL    HW233067   5.144   6.092   1.983  0.1062 -0.0121 -0.3023
10833SOL     OW33068   0.038   2.872   4.084 -0.1125 -0.4377  0.0242
10833SOL    HW133069   0.059   2.789   4.041  2.9534  1.0047 -1.6050
10833SOL    HW233070   0.078   2.864   4.171  2.7010  0.1757 -1.0819
10834SOL     OW33071   1.463   0.822   1.033  0.0400  0.2901 -0.3643
10834SOL    HW133072   1.506   0.808   1.117 -1.0768 -0.6160  0.0901
10834SOL    HW233073   1.475   0.915   1.015 -2.4364  1.3216  2.4281
10835SOL     OW33074   1.950   4.322   0.696  0.5834 -0.0250  0.2711
10835SOL    HW133075   1.967   4.373   0.617 -0.0299  1.5235  1.0908
10835SOL    HW233076   1.861   4.287   0.684  0.0552  1.1025  0.6867
10836SOL     OW33077   2.992   2.120   3.898 -0.0618 -0.5860 -0.3263
10836SOL    HW133078   3.010   2.092   3.809  0.6620  1.9479 -1.0510
10836SOL    HW233079   3.074   2.107   3.945 -0.1250 -0.8871 -0.2937
10837SOL     OW33080   0.161   6.062   4.998  0.2370 -0.7136  0.2636
10837SOL    HW133081   0.167   5.967   5.008 -0.4956 -1.2472 -3.1311
10837SOL    HW233082   0.072   6.084   5.024  0.8272 -0.6585  2.4127
10838SOL     OW33083   5.284   4.789   5.862  0.0943  0.1654  0.3200
10838SOL    HW133084   5.263   4.835   5.944 -0.2421  1.1805 -0.3152
10838SOL    HW233085   5.201   4.786   5.814  0.3001 -0.3833 -0.0132
10839SOL     OW33086   7.037   7.337   2.692  0.0328 -0.0830  0.0319
10839SOL    HW133087   7.031   7.433   2.692 -1.2597 -0.1487  0.7532
10839SOL    HW233088   6.953   7.308   2.659  0.7307 -0.9825 -1.0048
10840SOL     OW33089   0.439   7.159   3.962 -0.1187 -0.8109 -0.0684
10840SOL    HW133090   0.490   7.113   3.896  1.6211  1.6561 -0.5863
10840SOL    HW233091   0.384   7.219   3.912  2.1469  2.0242  0.5727
10841SOL     OW33092   5.547   0.742   3.049 -0.1690 -0.2111 -0.4398
10841SOL    HW133093   5.511   0.681   3.114  0.8142 -0.1785  0.1728
10841SOL    HW233094   5.631   0.702   3.024  0.1932  0.5645 -0.5013
10842SOL     OW33095   2.374   5.187   4.614 -0.5671  0.8367 -0.2671
10842SOL    HW133096   2.392   5.100   4.650 -1.8338  0.8253  0.3647
10842SOL    HW233097   2.409   5.247   4.680  0.3870  0.8332 -0.7431
10843SOL     OW33098   3.461   2.364   0.823  0.0239 -0.6326  0.0750
10843SOL    HW133099   3.537   2.390   0.874  0.7330 -1.0913 -0.7138
10843SOL    HW233100   3.490   2.286   0.776 -1.1039 -1.1171  0.1538
10844SOL     OW33101   3.458   0.810   6.346 -0.7400 -0.3674  0.7578
10844SOL    HW133102   3.406   0.865   6.287 -2.0809 -2.0267  0.2845
10844SOL    HW233103   3.477   0.865   6.421 -1.6595  0.8553  0.1279
10845SOL     OW33104   1.361   0.476   3.558 -0.1444 -0.0104 -0.0629
10845SOL    HW133105   1.429   0.428   3.606  1.0248  0.9863 -0.6724
10845SOL    HW233106   1.403   0.501   3.476 -0.8394  1.6889  0.0663
10846SOL     OW33107   2.373   0.357   2.214  0.2515 -0.3449 -0.2236
10846SOL    HW133108   2.425   0.293   2.262  2.5618  0.8081 -1.0394
10846SOL    HW233109   2.355   0.315   2.130 -0.0581 -0.7134  0.0248
10847SOL     OW33110   4.253   3.313   5.426  0.1747  0.3495  0.2144
10847SOL    HW133111   4.264   3.375   5.499  2.4611 -0.6641  0.8067
10847SOL    HW233112   4.283   3.362   5.349  0.0431  0.6472  0.3505
10848SOL     OW33113   3.152   0.698   7.074 -0.1041  0.3475  0.0839
10848SOL    HW133114   3.066   0.729   7.100 -0.3849 -0.5447  0.2564
10848SOL    HW233115   3.199   0.777   7.047 -0.9212  0.8612  0.1276
10849SOL     OW33116   6.851   1.020   3.995  0.7227 -0.4352  0.4680
10849SOL    HW133117   6.866   1.103   3.949 -0.2115 -1.2160 -1.3613
10849SOL    HW233118   6.861   0.953   3.927 -1.7576 -1.5763  1.1101
10850SOL     OW33119   4.890   0.388   2.529 -0.0552 -0.3104  0.4176
10850SOL    HW133120   4.834   0.439   2.586 -2.7393 -3.1011  0.5720
10850SOL    HW233121   4.836   0.370   2.451  1.7336 -0.6514 -0.8217
10851SOL     OW33122   1.507   7.018   2.372 -0.3457  0.5477  0.3130
10851SOL    HW133123   1.583   6.961   2.387 -0.2491  1.1038  2.1902
10851SOL    HW233124   1.432   6.958   2.370  0.1061  0.0085 -1.4299
10852SOL     OW33125   2.967   4.782   3.653  0.1487  0.0428 -0.3549
10852SOL    HW133126   2.947   4.867   3.694  0.7745  0.0241  0.0159
10852SOL    HW233127   2.927   4.787   3.567  0.8226  1.0279 -0.6291
10853SOL     OW33128   3.456   3.080   7.276 -0.2296  0.1808  0.2024
10853SOL    HW133129   3.522   3.122   7.332  0.0670 -0.7420  0.5603
10853SOL    HW233130   3.505   3.051   7.199 -0.6410  1.4706 -0.5751
10854SOL     OW33131   3.602   1.354   2.308  0.2875  0.0244 -0.5537
10854SOL    HW133132   3.534   1.308   2.259 -0.1282  0.0600 -0.0180
10854SOL    HW233133   3.570   1.355   2.398  2.0817 -2.0732  0.1887
10855SOL     OW33134   3.221   7.084   7.242  0.4522 -0.5530 -0.7413
10855SOL    HW133135   3.233   7.163   7.294 -0.9983  0.2410 -1.5552
10855SOL    HW233136   3.150   7.036   7.285 -1.2051  0.4246 -2.2557
10856SOL     OW33137   5.717   7.216   0.095  0.1627 -0.9819  0.4977
10856SOL    HW133138   5.778   7.223   0.021 -2.0706  0.4510 -1.3566
10856SOL    HW233139   5.757   7.268   0.164  1.5826 -1.0372 -0.2462
10857SOL     OW33140   6.637   5.094   7.083  1.0225 -0.2728 -0.1559
10857SOL    HW133141   6.567   5.115   7.145  0.8264  0.3303 -0.5763
10857SOL    HW233142   6.706   5.157   7.103  0.3114  1.0425 -1.6250
10858SOL     OW33143   4.293   1.307   7.078  0.4328 -0.4373 -0.1497
10858SOL    HW133144   4.302   1.363   7.155 -0.4342 -1.1297  0.4777
10858SOL    HW233145   4.203   1.319   7.049  0.3202 -1.2524 -0.1856
10859SOL     OW33146   4.055   6.783   0.834 -0.2489  0.4797  0.3178
10859SOL    HW133147   4.134   6.824   0.868 -0.6022  1.5425 -0.1000
10859SOL    HW233148   4.012   6.744   0.910  0.8808 -0.4909  0.4838
10860SOL     OW33149   5.476   1.785   1.713 -0.0433 -0.0496  0.3814
10860SOL    HW133150   5.403   1.779   1.652  0.0156  0.3393  0.2730
10860SOL    HW233151   5.501   1.694   1.729  0.7157 -0.1384 -1.1244
10861SOL     OW33152   4.546   1.464   4.069 -0.1092  0.5414  0.1691
10861SOL    HW133153   4.554   1.435   4.160 -1.6075  1.5778  0.6779
10861SOL    HW233154   4.556   1.384   4.017 -3.0826 -0.8237  1.4435
10862SOL     OW33155   0.630   6.699   2.048  0.2452 -0.7236 -0.5060
10862SOL    HW133156   0.567   6.631   2.025  0.5199 -0.8071 -1.0145
10862SOL    HW233157   0.685   6.709   1.971  1.5073 -1.3673  0.2902
10863SOL     OW33158   5.585   0.612   2.713  0.7307 -0.2854  0.2360
10863SOL    HW133159   5.658   0.653   2.759  1.3619  0.8348 -1.6676
10863SOL    HW233160   5.520   0.681   2.704  0.6071 -0.4972 -0.5258
10864SOL     OW33161   5.138   0.495   6.681 -0.1577  0.6635  0.1164
10864SOL    HW133162   5.173   0.409   6.707  0.4160  0.4659 -1.2313
10864SOL    HW233163   5.213   0.554   6.687  0.2146  0.4480 -1.7892
10865SOL     OW33164   5.454   7.358   6.770  0.3060 -0.2718  0.2107
10865SOL    HW133165   5.494   7.436   6.807  1.1634 -1.4115  1.7800
10865SOL    HW233166   5.442   7.379   6.677  0.1910  1.8255  0.6553
10866SOL     OW33167   1.703   6.761   4.880  0.1733 -0.2596  0.6548
10866SOL    HW133168   1.783   6.709   4.887  0.6414  0.3814  0.2307
10866SOL    HW233169   1.668   6.763   4.969 -0.2256 -1.8381  0.5630
10867SOL     OW33170   4.313   5.125   7.306 -0.2656 -0.6009  0.8296
10867SOL    HW133171   4.288   5.217   7.305  0.1430 -0.4620  1.7894
10867SOL    HW233172   4.287   5.091   7.221  0.4283  0.6251  0.1138
10868SOL     OW33173   1.410   1.445   7.409 -0.1750 -0.0967  0.2579
10868SOL    HW133174   1.350   1.507   7.450  1.9243  1.6971  0.8473
10868SOL    HW233175   1.424   1.480   7.320 -0.2527 -0.6823  0.0091
10869SOL     OW33176   6.656   4.817   7.081  0.5495  0.6112  0.4704
10869SOL    HW133177   6.627   4.906   7.104 -0.1236  0.2391  1.1069
10869SOL    HW233178   6.588   4.760   7.117  0.5273 -0.1206 -0.6939
10870SOL     OW33179   5.532   1.683   5.183  0.0195  0.2440 -0.1427
10870SOL    HW133180   5.553   1.776   5.176  0.4339  0.1480 -0.2037
10870SOL    HW233181   5.462   1.669   5.119  0.1436  0.4564 -0.3226
10871SOL     OW33182   1.905   4.314   3.375  0.0584 -0.4448  0.1306
10871SOL    HW133183   1.943   4.295   3.289  2.1286  1.4108  0.5464
10871SOL    HW233184   1.943   4.248   3.433  1.3388  0.3434  0.2145
10872SOL     OW33185   6.129   7.252   5.063  0.1376  0.1043 -0.2305
10872SOL    HW133186   6.138   7.336   5.017  1.6916  0.3132  0.4109
10872SOL    HW233187   6.145   7.273   5.155 -0.5912 -0.7233  0.1056
10873SOL     OW33188   0.198   5.265   4.294  0.2606 -0.4252  0.4314
10873SOL    HW133189   0.213   5.350   4.334  1.1541  0.0817 -0.8936
10873SOL    HW233190   0.164   5.210   4.365 -2.2659  1.5336  0.8507
10874SOL     OW33191   4.654   6.792   5.751  0.1986 -0.1218 -0.0511
10874SOL    HW133192   4.665   6.794   5.846  1.1302 -0.3224 -0.1499
10874SOL    HW233193   4.647   6.699   5.730 -0.5254 -0.0588 -0.1355
10875SOL     OW33194   6.433   1.027   6.017  0.4534 -0.3578  0.0316
10875SOL    HW133195   6.494   0.970   5.969 -0.6756 -2.9392  1.4793
10875SOL    HW233196   6.462   1.022   6.108 -1.3989 -1.0628  0.6388
10876SOL     OW33197   1.182   0.989   1.119 -0.1442  0.5883  0.7085
10876SOL    HW133198   1.127   0.910   1.121  1.3061 -0.7925 -3.4701
10876SOL    HW233199   1.272   0.955   1.115  0.6228  2.5297  0.4760
10877SOL     OW33200   5.229   2.516   0.311 -0.6337  0.3319 -0.2503
10877SOL    HW133201   5.151   2.567   0.291 -0.0905  1.0166 -0.6703
10877SOL    HW233202   5.272   2.563   0.382 -0.1164  0.4903 -0.6563
10878SOL     OW33203   1.607   5.396   2.871  0.1113  0.3405  0.0238
10878SOL    HW133204   1.570   5.334   2.808 -0.5005  1.8836 -1.2037
10878SOL    HW233205   1.531   5.425   2.922  0.1239  1.1991 -0.4309
10879SOL     OW33206   3.235   3.771   3.159  0.3939 -0.1855 -0.5765
10879SOL    HW133207   3.274   3.689   3.128 -0.6836 -1.3492  0.9676
10879SOL    HW233208   3.141   3.753   3.163  0.2946  0.4581  1.5549
10880SOL     OW33209   7.243   2.761   7.199  0.4020  0.0006 -0.1167
10880SOL    HW133210   7.212   2.679   7.160  1.0634  0.0596 -0.7762
10880SOL    HW233211   7.197   2.765   7.284  1.6309 -1.8914  0.7141
10881SOL     OW33212   4.058   7.385   5.586  0.3551 -0.2644  0.4018
10881SOL    HW133213   4.147   7.360   5.561  0.2388 -1.0475  0.7444
10881SOL    HW233214   4.068   7.430   5.670  0.5183  0.4565  0.0014
10882SOL     OW33215   0.694   1.480   3.835 -0.2580  0.1804  0.0472
10882SOL    HW133216   0.655   1.538   3.901  0.7105  0.3985  0.4376
10882SOL    HW233217   0.763   1.433   3.882  3.0829  3.0345 -1.5673
10883SOL     OW33218   2.314   5.161   3.492 -0.1387 -0.0854  0.1022
10883SOL    HW133219   2.409   5.167   3.484 -0.0556 -0.6606  0.6148
10883SOL    HW233220   2.282   5.173   3.402  0.3937  0.4772 -0.0180
10884SOL     OW33221   0.431   6.639   1.667  0.1043 -0.0953  0.0177
10884SOL    HW133222   0.355   6.582   1.681  0.0992 -0.2695 -0.7070
10884SOL    HW233223   0.454   6.627   1.575  0.6546  0.4001  0.0845
10885SOL     OW33224   1.737   6.038   1.636 -0.0481 -0.4593 -0.1382
10885SOL    HW133225   1.819   6.054   1.684 -0.9492  1.1720  0.9472
10885SOL    HW233226   1.672   6.023   1.704 -1.0860  0.4904 -0.8891
10886SOL     OW33227   4.531   0.868   2.967 -0.5632  0.1628  0.4464
10886SOL    HW133228   4.542   0.844   3.059 -0.1554  0.3838  0.4557
10886SOL    HW233229   4.605   0.827   2.922 -0.1774  0.9205  0.3774
10887SOL     OW33230   5.579   3.659   0.073 -0.4044 -0.0061 -0.1827
10887SOL    HW133231   5.603   3.694  -0.012  0.5921 -1.1545 -0.4013
10887SOL    HW233232   5.610   3.724   0.136 -1.1178  0.8307 -0.6702
10888SOL     OW33233   3.914   4.876   0.204  0.2220 -0.3551  0.0208
10888SOL    HW133234   3.852   4.937   0.245  1.1334 -0.6847  2.0021
10888SOL    HW233235   3.868   4.792   0.201  0.0615 -0.2695  0.1034
10889SOL     OW33236   0.141   3.404   7.145  0.0117  0.6827 -0.1736
10889SOL    HW133237   0.177   3.471   7.202 -0.3247  1.7098 -1.1173
10889SOL    HW233238   0.205   3.333   7.147 -0.3249  0.3773  1.9860
10890SOL     OW33239   3.906   4.393   3.690 -0.2282  0.4563 -0.3916
10890SOL    HW133240   3.867   4.438   3.615 -0.0135  0.1710 -0.6745
10890SOL    HW233241   3.841   4.327   3.714  0.4343 -0.6031 -1.4073
10891SOL     OW33242   0.707   3.927   6.036 -0.1561 -0.2899 -0.2518
10891SOL    HW133243   0.681   3.935   5.944 -1.6112 -2.3128 -0.0735
10891SOL    HW233244   0.775   3.994   6.047 -0.3320  0.3864 -2.6340
10892SOL     OW33245   5.298   4.506   4.003 -0.1436 -0.6229 -0.0273
10892SOL    HW133246   5.237   4.531   4.073  0.0466  0.7958 -0.3363
10892SOL    HW233247   5.269   4.419   3.975 -1.3187 -0.4478  0.5988
10893SOL     OW33248   3.277   1.336   3.858  0.0319  0.0083  0.0658
10893SOL    HW133249   3.372   1.346   3.851  0.0076  1.2238  1.0938
10893SOL    HW233250   3.250   1.304   3.772  1.1577  1.5151 -0.9117
10894SOL     OW33251   2.385   7.285   2.211 -0.1273  0.0320 -0.5772
10894SOL    HW133252   2.456   7.285   2.147 -0.8619  0.1502 -1.4035
10894SOL    HW233253   2.338   7.367   2.196 -1.7476 -1.0158 -1.5482
10895SOL     OW33254   4.227   1.881   0.297  0.1406  1.0705 -0.1562
10895SOL    HW133255   4.145   1.850   0.335 -0.0434  1.6359 -0.0812
10895SOL    HW233256   4.254   1.953   0.354  1.1129  0.3579  0.2894
10896SOL     OW33257   0.759   7.072   1.994 -0.3205  0.4420  0.0088
10896SOL    HW133258   0.769   7.022   1.913  0.7243 -1.1013  1.0302
10896SOL    HW233259   0.842   7.118   2.004  0.6351 -1.4639  1.4859
10897SOL     OW33260   7.371   2.937   1.019 -0.6949 -0.3637  0.2937
10897SOL    HW133261   7.332   2.880   1.085 -0.7288 -0.4514  0.1974
10897SOL    HW233262   7.344   3.025   1.046 -2.5857 -0.5393 -0.8285
10898SOL     OW33263   5.376   7.286   1.926 -0.4317 -0.8483 -0.1491
10898SOL    HW133264   5.298   7.243   1.892 -1.4005  1.5483 -1.2131
10898SOL    HW233265   5.349   7.324   2.009 -0.8006  0.9047 -1.0210
10899SOL     OW33266   3.659   5.767   6.304  0.1341  0.5632 -0.3046
10899SOL    HW133267   3.745   5.777   6.345  0.0414 -0.9600  0.3473
10899SOL    HW233268   3.670   5.802   6.216  1.3931  0.4862 -0.1901
10900SOL     OW33269   5.652   6.595   2.563 -0.7214 -0.3967  0.2121
10900SOL    HW133270   5.599   6.666   2.598 -0.9893 -0.3673 -0.2475
10900SOL    HW233271   5.658   6.613   2.469 -0.5354 -0.8154  0.1400
10901SOL     OW33272   0.654   0.640   3.620  0.2265 -0.7912  0.1137
10901SOL    HW133273   0.647   0.736   3.615 -2.0931 -0.9198 -0.2099
10901SOL    HW233274   0.643   0.611   3.529 -1.4519 -1.4340  0.4959
10902SOL     OW33275   2.831   7.154   7.351  0.0532  0.3529 -0.0307
10902SOL    HW133276   2.801   7.069   7.317  0.1771  0.6747 -0.9736
10902SOL    HW233277   2.907   7.133   7.405 -0.2950 -0.2005  0.2528
10903SOL     OW33278   5.799   2.620   7.297 -0.1967 -0.0540  0.3493
10903SOL    HW133279   5.783   2.709   7.328 -2.2080 -0.5215  0.7866
10903SOL    HW233280   5.836   2.632   7.209 -1.1438  1.2187  0.0869
10904SOL     OW33281   1.389   4.890   5.775 -0.0519  0.1649  0.3199
10904SOL    HW133282   1.457   4.826   5.756 -0.3130  0.1997 -0.8279
10904SOL    HW233283   1.371   4.931   5.690 -2.3515 -0.6864  0.3348
10905SOL     OW33284   6.756   0.003   2.046 -0.0614  0.6344 -0.1378
10905SOL    HW133285   6.790  -0.063   1.986 -1.9050 -0.4848 -0.0249
10905SOL    HW233286   6.672   0.029   2.008 -0.4439  1.1964  1.0468
10906SOL     OW33287   4.673   1.139   7.087  0.4394 -0.5845 -0.1565
10906SOL    HW133288   4.699   1.049   7.070  1.5781 -0.0335 -1.5845
10906SOL    HW233289   4.626   1.165   7.007  2.9379  1.0560 -1.1951
10907SOL     OW33290   7.089   2.567   7.118  0.3221 -0.2990  0.1705
10907SOL    HW133291   7.078   2.524   7.033 -1.0510 -1.1728  0.7489
10907SOL    HW233292   7.037   2.647   7.111  3.6063  1.9076 -1.2249
10908SOL     OW33293   4.805   4.062   4.777  0.1838 -0.1611  0.7465
10908SOL    HW133294   4.773   4.137   4.726  1.9185  0.1626  0.0669
10908SOL    HW233295   4.788   4.086   4.868 -1.2913  0.0540  0.4479
10909SOL     OW33296   3.328   5.519   4.229  0.6080  0.0943  0.3673
10909SOL    HW133297   3.322   5.424   4.214 -0.8624  0.4067 -1.2804
10909SOL    HW233298   3.247   5.542   4.273 -0.0157  0.8783 -1.1189
10910SOL     OW33299   0.673   3.903   1.926  0.2288 -0.3673 -0.1848
10910SOL    HW133300   0.716   3.831   1.973  0.6808  1.6647  2.8070
10910SOL    HW233301   0.637   3.958   1.996 -0.5712  2.0184 -2.3525
10911SOL     OW33302   1.358   2.902   0.746 -0.3067  0.0513 -0.1454
10911SOL    HW133303   1.317   2.822   0.712 -1.9012  0.9843 -0.5093
10911SOL    HW233304   1.400   2.941   0.669 -1.6532  0.8049 -0.5289
10912SOL     OW33305   0.852   5.357   3.211 -0.3687 -0.6868  0.0064
10912SOL    HW133306   0.808   5.338   3.128 -0.1541  0.1320 -0.3011
10912SOL    HW233307   0.811   5.298   3.274  0.7839 -2.7429 -1.0569
10913SOL     OW33308   7.127   7.290   7.000 -0.2494 -0.1074 -0.2654
10913SOL    HW133309   7.202   7.324   7.048 -0.4562  0.2898 -0.2114
10913SOL    HW233310   7.051   7.326   7.046 -0.4434  0.6904 -1.1573
10914SOL     OW33311   4.422   7.237   0.500  0.2999 -0.2290 -0.1497
10914SOL    HW133312   4.442   7.316   0.550  0.1181 -0.4692  0.3025
10914SOL    HW233313   4.493   7.176   0.520  0.1049 -0.4090 -0.0031
10915SOL     OW33314   2.948   0.969   4.556 -0.4200  0.6260  0.2853
10915SOL    HW133315   3.006   1.022   4.502  0.5274 -1.8109 -1.2752
10915SOL    HW233316   2.998   0.952   4.635  0.0360  0.4898 -0.0309
10916SOL     OW33317   5.033   4.754   5.769 -0.3413 -1.0961  0.4307
10916SOL    HW133318   4.938   4.761   5.775 -0.2297 -0.1160  1.4119
10916SOL    HW233319   5.051   4.660   5.775 -1.2043 -1.2197  1.2992
10917SOL     OW33320   7.213   1.377   2.983  0.3812 -0.1867  0.6054
10917SOL    HW133321   7.225   1.322   3.061  0.1063  0.6670  1.2733
10917SOL    HW233322   7.123   1.361   2.956 -0.9846  2.5535  2.9745
10918SOL     OW33323   4.567   1.350   0.267 -0.2288  0.7342 -0.0204
10918SOL    HW133324   4.571   1.262   0.230 -0.3375  0.6683  0.1250
10918SOL    HW233325   4.594   1.407   0.195  1.0099  0.4921  0.2276
10919SOL     OW33326   4.683   3.840   0.383  0.2021 -0.3297  0.2869
10919SOL    HW133327   4.764   3.855   0.432  0.5693 -0.2866 -0.3242
10919SOL    HW233328   4.660   3.926   0.348  1.0238 -0.6912 -1.2508
10920SOL     OW33329   7.087   6.934   4.152  0.0609  0.6859 -0.2491
10920SOL    HW133330   7.047   6.988   4.084 -3.2142 -0.1268  0.8422
10920SOL    HW233331   7.116   6.996   4.219  1.2127  1.3241 -1.2860
10921SOL     OW33332   5.175   3.440   2.404 -0.7996 -0.0820 -0.2634
10921SOL    HW133333   5.208   3.408   2.320 -1.2495 -0.6543 -0.2313
10921SOL    HW233334   5.081   3.452   2.389 -0.8930 -0.2466  0.1736
10922SOL     OW33335   7.235   5.095   6.658  0.0435  0.1108 -0.0899
10922SOL    HW133336   7.260   5.187   6.647  0.0331  0.0649 -0.5114
10922SOL    HW233337   7.140   5.094   6.649 -0.3651  0.5168  3.0672
10923SOL     OW33338   3.545   6.535   5.375 -0.1132 -0.6272  0.0209
10923SOL    HW133339   3.555   6.441   5.366  0.2947 -0.5306 -0.6828
10923SOL    HW233340   3.612   6.561   5.439 -1.0171 -0.9578  1.1178
10924SOL     OW33341   2.871   7.248   2.684 -0.1821  0.4414 -0.4188
10924SOL    HW133342   2.812   7.303   2.634 -1.0749 -0.0609  0.0633
10924SOL    HW233343   2.911   7.307   2.748  0.4123  0.9310 -1.2170
10925SOL     OW33344   6.549   4.460   0.273  0.2826  0.2094 -0.1447
10925SOL    HW133345   6.577   4.445   0.182 -0.8013 -0.1484 -0.4377
10925SOL    HW233346   6.530   4.553   0.277 -0.5100  0.0805 -0.5531
10926SOL     OW33347   5.746   2.218   6.814 -0.8431  0.0612  0.1917
10926SOL    HW133348   5.765   2.261   6.731 -1.4284  0.8604  0.4616
10926SOL    HW233349   5.732   2.289   6.876 -0.3385 -0.5274  1.0026
10927SOL     OW33350   2.743   3.470   6.334  0.1238 -0.2436 -0.0495
10927SOL    HW133351   2.812   3.496   6.395 -0.1569 -0.7561  0.4843
10927SOL    HW233352   2.725   3.550   6.283  2.8630 -0.7166 -1.9574
10928SOL     OW33353   2.726   7.264   1.076 -0.4223 -0.2946  0.0470
10928SOL    HW133354   2.818   7.242   1.085 -0.3611  0.0212  0.2007
10928SOL    HW233355   2.703   7.236   0.987  0.4242  1.7488 -0.8806
10929SOL     OW33356   3.322   1.505   6.410  0.1556  0.1334 -0.0481
10929SOL    HW133357   3.324   1.445   6.336 -1.1889  0.8540 -0.7082
10929SOL    HW233358   3.322   1.449   6.487 -0.9191 -0.7199 -0.6469
10930SOL     OW33359   6.570   5.958   3.707  0.3088  0.3279 -0.0078
10930SOL    HW133360   6.612   5.902   3.773  0.1085 -0.2180 -0.3335
10930SOL    HW233361   6.477   5.935   3.714  0.3593 -0.1841 -0.9006
10931SOL     OW33362   2.805   4.155   1.147  0.2636  0.0149  0.0611
10931SOL    HW133363   2.724   4.156   1.096  0.6412 -1.4555 -0.6433
10931SOL    HW233364   2.820   4.246   1.171 -2.0322  0.2262  0.9228
10932SOL     OW33365   0.825   3.537   5.133 -0.2545 -0.1353  0.4179
10932SOL    HW133366   0.783   3.623   5.134  0.5706  0.2782  0.6125
10932SOL    HW233367   0.885   3.538   5.208  1.3807 -0.0235 -0.8167
10933SOL     OW33368   1.955   1.082   0.080  0.4536  0.1417 -0.2886
10933SOL    HW133369   1.870   1.061   0.119  0.4872  2.0342  0.9515
10933SOL    HW233370   1.990   0.998   0.050 -0.9565 -0.9698  1.0454
10934SOL     OW33371   4.430   2.628   0.291  0.4350 -0.0361  0.0584
10934SOL    HW133372   4.439   2.584   0.375  0.4087  0.8773  0.5491
10934SOL    HW233373   4.342   2.666   0.293  1.0993  1.5324  0.3789
10935SOL     OW33374   1.964   6.942   6.752  0.0467 -0.2549 -0.3602
10935SOL    HW133375   1.890   6.884   6.766  0.3398 -0.7316 -0.7622
10935SOL    HW233376   1.932   7.029   6.777 -1.3288 -0.0715 -2.5062
10936SOL     OW33377   5.126   3.281   6.204 -0.2294  0.0552 -0.1373
10936SOL    HW133378   5.220   3.298   6.213 -0.4417  0.7881  0.8492
10936SOL    HW233379   5.097   3.343   6.136 -0.2755  0.9198  0.6569
10937SOL     OW33380   6.887   2.597   2.642 -0.2807 -0.0131 -0.3306
10937SOL    HW133381   6.867   2.507   2.615  1.2196  0.1582 -2.3093
10937SOL    HW233382   6.807   2.646   2.624 -1.4308 -1.0524  1.6262
10938SOL     OW33383   4.397   3.546   4.237  0.5121 -0.2576 -0.3372
10938SOL    HW133384   4.415   3.470   4.292  1.6576 -1.4901 -2.3464
10938SOL    HW233385   4.480   3.565   4.193  0.0308  1.6516 -0.5296
10939SOL     OW33386   6.604   0.893   1.154 -0.1897  0.2368  0.3938
10939SOL    HW133387   6.636   0.965   1.099  0.0599 -0.9869 -1.1373
10939SOL    HW233388   6.609   0.816   1.097 -0.6552 -0.9583  1.9186
10940SOL     OW33389   3.417   3.377   0.236 -0.4197 -0.0924  0.4670
10940SOL    HW133390   3.506   3.411   0.247 -1.2531  1.9839  1.3768
10940SOL    HW233391   3.411   3.353   0.143  0.9592  0.0970  0.3142
10941SOL     OW33392   5.857   3.755   2.464  0.7773  0.4065  0.7510
10941SOL    HW133393   5.783   3.815   2.476  0.9870  0.5162  1.4850
10941SOL    HW233394   5.914   3.770   2.539  0.5616 -1.1062  1.2638
10942SOL     OW33395   6.827   6.582   2.050 -0.3087  0.0836 -0.6071
10942SOL    HW133396   6.810   6.564   1.958  1.4326 -1.2243 -0.7242
10942SOL    HW233397   6.907   6.634   2.050  0.5885 -1.2329  0.1911
10943SOL     OW33398   0.073   5.126   2.470  0.8866 -0.6338  0.0721
10943SOL    HW133399   0.081   5.147   2.377  0.8978 -1.6539 -0.1647
10943SOL    HW233400   0.104   5.204   2.515  1.4808 -0.3643 -0.7819
10944SOL     OW33401   3.553   4.358   0.212  0.3950 -0.2098  0.2307
10944SOL    HW133402   3.633   4.363   0.266  0.5829 -0.1759 -0.0512
10944SOL    HW233403   3.486   4.399   0.266  0.9336  1.3196 -0.2130
10945SOL     OW33404   6.250   0.366   6.480  0.0790 -0.4721  0.6287
10945SOL    HW133405   6.271   0.459   6.492  0.3703 -0.4067 -0.2871
10945SOL    HW233406   6.281   0.324   6.561  1.2534  0.0289  0.4704
10946SOL     OW33407   1.085   4.200   0.498  0.3176 -0.1736  0.4689
10946SOL    HW133408   1.015   4.158   0.448  1.5486  0.2286 -1.7737
10946SOL    HW233409   1.050   4.286   0.521 -0.5767 -0.6799  1.0197
10947SOL     OW33410   3.234   5.717   7.424  0.3119 -0.6048 -0.2493
10947SOL    HW133411   3.217   5.628   7.393  0.7725 -1.0346  0.6843
10947SOL    HW233412   3.280   5.759   7.352  0.1093 -1.1372 -0.6919
10948SOL     OW33413   0.177   3.346   1.473 -0.0036 -0.3555 -0.0020
10948SOL    HW133414   0.098   3.378   1.430 -0.1309  0.1036  0.5593
10948SOL    HW233415   0.150   3.328   1.563  0.1283 -1.8305 -0.2340
10949SOL     OW33416   2.544   7.332   0.189 -0.5586 -0.3554 -0.0723
10949SOL    HW133417   2.476   7.366   0.246  0.2904  0.9040  0.2256
10949SOL    HW233418   2.567   7.247   0.228  1.0587  1.1112  2.4388
10950SOL     OW33419   4.789   4.986   4.096  0.0802  0.1869 -0.0231
10950SOL    HW133420   4.828   4.903   4.122 -0.5955 -0.9623 -2.3987
10950SOL    HW233421   4.716   4.997   4.157  1.2259 -0.0088  1.4514
10951SOL     OW33422   1.255   2.669   4.593 -0.4748 -0.4262 -0.6263
10951SOL    HW133423   1.334   2.724   4.594 -0.5212 -0.3636 -0.3588
10951SOL    HW233424   1.283   2.586   4.632 -1.2435  0.5782  2.3367
10952SOL     OW33425   6.043   5.907   1.797  0.1954 -0.0955  0.5122
10952SOL    HW133426   6.088   5.833   1.839 -0.0938 -0.6395 -0.1215
10952SOL    HW233427   5.951   5.880   1.794 -0.0051  0.5404  0.7975
10953SOL     OW33428   5.620   5.027   4.065  0.6250  0.2305  0.0406
10953SOL    HW133429   5.576   5.055   3.985 -0.0440 -0.5176  0.1350
10953SOL    HW233430   5.684   5.096   4.082  0.6470  0.4982 -1.0309
10954SOL     OW33431   1.122   2.549   3.890 -0.5212  0.1260  0.0051
10954SOL    HW133432   1.052   2.579   3.948  0.1517 -0.9997  1.4804
10954SOL    HW233433   1.198   2.603   3.915 -0.7080  1.0297 -1.2696
10955SOL     OW33434   4.193   7.089   0.613 -0.3798 -0.0482  0.1552
10955SOL    HW133435   4.255   7.053   0.677 -0.2540  0.8700  0.5645
10955SOL    HW233436   4.246   7.148   0.559 -0.3797 -1.2053 -1.1479
10956SOL     OW33437   2.716   7.168   5.715  0.4104  0.5270 -0.5728
10956SOL    HW133438   2.714   7.076   5.741 -0.8400  0.2461 -1.5425
10956SOL    HW233439   2.751   7.167   5.626 -1.6549  0.7091 -1.4415
10957SOL     OW33440   6.852   1.809   0.629 -0.1573 -0.5313  0.0012
10957SOL    HW133441   6.792   1.838   0.698 -1.3453 -1.2021 -0.7130
10957SOL    HW233442   6.898   1.734   0.667 -2.3452 -2.2835 -0.5841
10958SOL     OW33443   4.903   7.131   4.727  0.2307 -0.0356  0.1399
10958SOL    HW133444   4.913   7.225   4.711 -0.5006 -0.0235 -0.2639
10958SOL    HW233445   4.809   7.115   4.721  0.5431 -1.3516 -3.0227
10959SOL     OW33446   0.440   4.187   5.934  0.4725 -0.2795 -0.3662
10959SOL    HW133447   0.451   4.153   6.023  0.5898 -0.0693 -0.2991
10959SOL    HW233448   0.466   4.279   5.941  2.4419 -0.7557 -1.0551
10960SOL     OW33449   1.935   2.022   5.796 -0.0693  0.5279 -0.4256
10960SOL    HW133450   1.858   2.010   5.850  0.3582  0.5230  0.1968
10960SOL    HW233451   1.940   1.942   5.743 -0.4588  0.5095 -0.4308
10961SOL     OW33452   2.327   6.341   4.558 -0.1836  0.1522  0.0149
10961SOL    HW133453   2.243   6.351   4.603 -0.1675  1.7052 -0.2439
10961SOL    HW233454   2.359   6.431   4.546  1.3778 -0.3869 -0.1582
10962SOL     OW33455   5.864   1.268   1.914  0.4015  0.0882 -0.0857
10962SOL    HW133456   5.826   1.185   1.888  0.5072 -0.3100  0.9887
10962SOL    HW233457   5.845   1.275   2.008 -1.0939  2.0513 -0.4565
10963SOL     OW33458   5.419   5.419   7.263  0.2480  0.2543  0.0676
10963SOL    HW133459   5.468   5.434   7.182  1.6162 -0.5321  0.7169
10963SOL    HW233460   5.407   5.324   7.267  0.5574  0.2387  0.9677
10964SOL     OW33461   4.866   4.172   3.383 -0.0848  0.1378 -0.4215
10964SOL    HW133462   4.809   4.204   3.313 -0.1065  0.5775 -0.2040
10964SOL    HW233463   4.940   4.233   3.383 -0.3246  0.4360  0.2634
10965SOL     OW33464   3.824   4.228   5.964  0.3227 -0.2353 -0.3945
10965SOL    HW133465   3.871   4.269   6.036 -1.1485  1.3252 -0.2467
10965SOL    HW233466   3.830   4.134   5.981  2.3435 -0.0384  0.2129
10966SOL     OW33467   0.845   2.328   4.720 -0.4121  0.1245  0.3029
10966SOL    HW133468   0.874   2.284   4.640 -0.7467  0.1674  0.1567
10966SOL    HW233469   0.923   2.331   4.775 -0.1682  0.1374 -0.0399
10967SOL     OW33470   1.060   6.274   0.657  0.4085 -0.2215 -0.0269
10967SOL    HW133471   1.085   6.256   0.566  1.6240  0.9543  0.0456
10967SOL    HW233472   1.025   6.364   0.654 -2.4126 -1.2063  0.1688
10968SOL     OW33473   5.882   3.836   7.111  0.1638  0.3938  0.4566
10968SOL    HW133474   5.949   3.786   7.158  0.0785  0.8871  1.1251
10968SOL    HW233475   5.822   3.770   7.077  0.1286  0.0266  1.2064
10969SOL     OW33476   0.842   2.932   4.872 -0.5679 -0.5257  0.1146
10969SOL    HW133477   0.794   2.984   4.809 -0.6823  0.3476  0.9073
10969SOL    HW233478   0.928   2.918   4.831 -0.5976  0.1337 -0.1816
10970SOL     OW33479   2.855   2.493   0.415 -0.3385  0.1988 -0.1043
10970SOL    HW133480   2.889   2.580   0.436 -0.6140  0.7179 -1.6797
10970SOL    HW233481   2.813   2.464   0.497 -0.9383  1.8807  0.2382
10971SOL     OW33482   5.259   6.005   7.190  0.1617  0.6151  0.1764
10971SOL    HW133483   5.293   5.948   7.122  1.0573  0.4215  0.7740
10971SOL    HW233484   5.212   6.074   7.142  0.7166  0.4482 -0.6267
10972SOL     OW33485   0.291   3.112   5.879  0.8520  0.7913  0.5056
10972SOL    HW133486   0.240   3.071   5.949  2.9410 -2.5204  0.2855
10972SOL    HW233487   0.232   3.111   5.803  0.6995 -1.8153  0.5664
10973SOL     OW33488   4.202   2.406   1.944  0.8900 -0.7444  0.0352
10973SOL    HW133489   4.274   2.344   1.932  1.4122  0.1792 -2.0234
10973SOL    HW233490   4.131   2.371   1.891  1.1492  0.3199 -1.0487
10974SOL     OW33491   1.854   2.217   1.823 -0.1521  0.3670  0.1541
10974SOL    HW133492   1.847   2.121   1.829 -2.0125  0.2258 -2.5341
10974SOL    HW233493   1.915   2.232   1.751  0.2692  1.2359  0.6833
10975SOL     OW33494   4.150   1.959   2.232  0.3424 -0.1107  0.0534
10975SOL    HW133495   4.220   1.977   2.170  2.4370 -0.0935  2.2874
10975SOL    HW233496   4.168   1.870   2.265 -0.1041  0.2452  1.3432
10976SOL     OW33497   2.242   4.137   0.277  0.6189  0.0079 -0.3703
10976SOL    HW133498   2.307   4.067   0.285  0.7515 -0.2181 -2.6938
10976SOL    HW233499   2.165   4.094   0.240  0.1058  0.7836 -0.2256
10977SOL     OW33500   4.887   5.966   0.310 -0.4076 -0.2636 -0.1902
10977SOL    HW133501   4.902   5.893   0.370 -0.0906  0.4504  0.6343
10977SOL    HW233502   4.827   6.024   0.357  0.7177  0.8507 -0.0635
10978SOL     OW33503   7.070   3.863   1.929 -0.3739 -0.0508 -0.1783
10978SOL    HW133504   6.977   3.862   1.903 -0.1585 -1.4517 -1.0413
10978SOL    HW233505   7.070   3.902   2.016 -1.8678 -0.6049  0.1164
10979SOL     OW33506   5.736   6.803   3.887  0.4588  0.0958 -0.5355
10979SOL    HW133507   5.826   6.782   3.911 -0.2496 -1.2919  1.1177
10979SOL    HW233508   5.698   6.839   3.967 -0.5256  0.5060 -1.1651
10980SOL     OW33509   0.428   6.338   2.760  0.1808 -0.2901  0.7462
10980SOL    HW133510   0.505   6.295   2.797  0.8377 -0.5979 -0.8865
10980SOL    HW233511   0.355   6.309   2.815  1.0690 -0.8688  1.6568
10981SOL     OW33512   3.271   6.915   6.738 -0.4188  0.1994  0.0274
10981SOL    HW133513   3.365   6.924   6.726 -0.5699  0.4895 -0.9967
10981SOL    HW233514   3.261   6.886   6.829  0.6163  0.8236  0.3519
10982SOL     OW33515   1.036   5.812   6.851  0.2612 -0.0083  0.2254
10982SOL    HW133516   1.110   5.773   6.897 -0.0881 -0.1753  0.6497
10982SOL    HW233517   0.960   5.788   6.903 -0.0760  0.3099 -0.1141
10983SOL     OW33518   1.536   4.951   0.019  0.2163  0.3336  0.8118
10983SOL    HW133519   1.534   4.862   0.055  1.5906  0.3986  1.0680
10983SOL    HW233520   1.444   4.972   0.003 -0.0419 -2.0015 -1.3944
10984SOL     OW33521   6.815   2.907   1.468 -0.1478  0.0258 -0.1207
10984SOL    HW133522   6.888   2.847   1.452  1.0277  1.4393 -0.2756
10984SOL    HW233523   6.827   2.935   1.559 -0.2414  0.6039 -0.2860
10985SOL     OW33524   0.245   1.085   1.656  0.3662 -0.0723 -0.1675
10985SOL    HW133525   0.324   1.045   1.621  0.4098 -1.2417  1.1594
10985SOL    HW233526   0.253   1.178   1.635  2.6743  0.0449  0.9419
10986SOL     OW33527   0.452   2.502   0.538  0.4938  0.6747 -0.3414
10986SOL    HW133528   0.463   2.408   0.521  0.9534  0.7453 -0.4270
10986SOL    HW233529   0.456   2.542   0.452 -1.0834  0.6462 -0.4624
10987SOL     OW33530   5.142   4.673   6.400 -0.4512 -0.0591  0.3896
10987SOL    HW133531   5.098   4.751   6.433 -0.3812 -0.1199  0.6330
10987SOL    HW233532   5.230   4.677   6.438 -0.0227  0.3994 -0.6105
10988SOL     OW33533   6.578   5.664   4.515  0.1570 -0.0266  0.7930
10988SOL    HW133534   6.627   5.747   4.514 -1.6088  1.0740 -1.0110
10988SOL    HW233535   6.627   5.607   4.455  0.4713  0.2507  0.7827
10989SOL     OW33536   5.338   5.515   0.603  0.1159  0.2064 -0.3651
10989SOL    HW133537   5.416   5.569   0.612  1.2089 -1.5595  1.5300
10989SOL    HW233538   5.278   5.547   0.671  1.2083 -1.5365  1.5375
10990SOL     OW33539   2.682   5.095   2.380  0.0601  0.0871 -0.0821
10990SOL    HW133540   2.599   5.122   2.341  0.8980  2.8270 -0.1892
10990SOL    HW233541   2.681   5.134   2.468  1.1962  0.1169 -0.0681
10991SOL     OW33542   1.280   0.237   1.757  0.3044 -0.0779 -0.2669
10991SOL    HW133543   1.209   0.187   1.716 -0.3019 -0.1160  0.7641
10991SOL    HW233544   1.242   0.323   1.774  0.4017 -0.1827  0.5384
10992SOL     OW33545   3.230   2.887   0.022 -0.1221 -0.1454 -0.6193
10992SOL    HW133546   3.187   2.816  -0.026 -0.1667 -0.0969 -0.6513
10992SOL    HW233547   3.322   2.881  -0.003  0.2493 -1.4298  0.8568
10993SOL     OW33548   0.176   4.354   2.689  0.5908 -0.3237  0.2410
10993SOL    HW133549   0.209   4.428   2.637 -1.3629 -0.1383 -0.8674
10993SOL    HW233550   0.082   4.353   2.670  0.1760 -1.6159  2.1452
10994SOL     OW33551   1.290   6.682   5.866 -0.3693 -0.2758  0.4830
10994SOL    HW133552   1.355   6.616   5.889 -0.2091 -0.3388 -0.1451
10994SOL    HW233553   1.341   6.763   5.857 -0.8781  0.5492  3.8067
10995SOL     OW33554   2.923   1.062   3.627 -0.2947 -0.6390 -0.3208
10995SOL    HW133555   3.004   1.014   3.612  0.4056  0.4099  0.0322
10995SOL    HW233556   2.912   1.115   3.548 -0.4222 -0.4803 -0.1971
10996SOL     OW33557   0.500   4.858   2.014 -0.5473 -0.1070 -0.3110
10996SOL    HW133558   0.419   4.858   2.065 -0.1544  0.1511  0.3278
10996SOL    HW233559   0.528   4.949   2.013 -0.0617 -0.2516 -0.2062
10997SOL     OW33560   2.069   2.962   2.894 -0.0568 -0.2436 -0.3339
10997SOL    HW133561   2.084   3.048   2.934 -0.2366  0.0832 -0.9600
10997SOL    HW233562   2.157   2.932   2.870  0.4791 -1.8551  3.0716
10998SOL     OW33563   0.530   4.960   7.327  0.2326  0.6233  0.2580
10998SOL    HW133564   0.490   4.886   7.372  1.5455 -0.4885 -0.3154
10998SOL    HW233565   0.481   5.036   7.357 -0.1732 -0.2941  2.0551
10999SOL     OW33566   5.867   6.462   1.424  0.3579 -0.1283  0.0803
10999SOL    HW133567   5.793   6.481   1.483  0.6393 -0.9892  0.7309
10999SOL    HW233568   5.908   6.547   1.409 -0.7371  0.3647 -0.2611
11000SOL     OW33569   6.178   5.361   0.697  0.2473  0.1573 -0.0068
11000SOL    HW133570   6.259   5.409   0.680  0.5588 -0.1819  0.4876
11000SOL    HW233571   6.113   5.429   0.717 -0.0648  0.5561 -2.1687
11001SOL     OW33572   5.334   6.795   2.972 -0.1369 -0.3401 -0.3304
11001SOL    HW133573   5.263   6.736   2.998 -1.0275  1.1287  0.6946
11001SOL    HW233574   5.409   6.766   3.023 -0.4320 -0.8827 -0.1934
11002SOL     OW33575   7.179   1.559   1.531 -0.4717  0.0590 -0.0956
11002SOL    HW133576   7.169   1.642   1.483  1.6203  0.9866  0.9023
11002SOL    HW233577   7.171   1.584   1.623 -0.3883 -0.9608  0.2000
11003SOL     OW33578   4.628   6.669   0.175 -0.0116  0.2019  0.3824
11003SOL    HW133579   4.672   6.750   0.200 -1.4068  0.5214  1.8685
11003SOL    HW233580   4.568   6.650   0.247  0.4781 -2.3143  0.2120
11004SOL     OW33581   0.432   6.546   1.107  0.1171  0.2884 -0.5201
11004SOL    HW133582   0.468   6.457   1.097 -0.2955  0.0570  0.0019
11004SOL    HW233583   0.354   6.534   1.160 -0.4114  0.8676 -1.1555
11005SOL     OW33584   2.889   0.181   0.441  0.1708 -0.3250  0.1160
11005SOL    HW133585   2.858   0.206   0.353 -1.3177 -1.3545  0.3124
11005SOL    HW233586   2.983   0.197   0.438  0.1391 -0.1814 -1.6214
11006SOL     OW33587   2.704   6.795   6.867  0.8706 -0.4668  0.0845
11006SOL    HW133588   2.737   6.815   6.954 -0.3663  0.2558  0.4037
11006SOL    HW233589   2.674   6.704   6.872 -0.1334 -0.1153  0.7220
11007SOL     OW33590   1.398   6.080   3.361 -0.3297 -0.6322 -0.2338
11007SOL    HW133591   1.425   5.996   3.323 -1.1748 -2.3110  2.5353
11007SOL    HW233592   1.304   6.085   3.341 -0.5644 -1.0456  0.6950
11008SOL     OW33593   1.890   1.681   2.026  0.0428 -0.1539 -0.3791
11008SOL    HW133594   1.973   1.633   2.027  0.3973  0.3757  2.0440
11008SOL    HW233595   1.916   1.771   2.003 -0.2374 -0.4799 -2.0834
11009SOL     OW33596   3.137   0.265   6.882  0.5081 -0.0926 -0.0086
11009SOL    HW133597   3.114   0.293   6.793  1.1838 -0.8863 -0.4405
11009SOL    HW233598   3.144   0.346   6.932  0.1388  0.3594 -0.6819
11010SOL     OW33599   2.331   2.742   4.178 -0.2532  0.3207  0.1270
11010SOL    HW133600   2.285   2.806   4.232 -1.1780 -1.6767  1.8596
11010SOL    HW233601   2.410   2.720   4.228  1.5162  2.0298 -1.7449
11011SOL     OW33602   2.085   0.508   7.378 -0.0512  0.1289 -0.0979
11011SOL    HW133603   2.063   0.559   7.456 -1.2019  0.5754 -0.6850
11011SOL    HW233604   2.100   0.574   7.310 -0.3784 -0.2713 -0.5678
11012SOL     OW33605   2.349   5.217   2.551  0.0513  0.3330 -0.4673
11012SOL    HW133606   2.415   5.283   2.573  0.2623  0.5922 -1.8262
11012SOL    HW233607   2.351   5.212   2.456 -0.6406 -0.9560 -0.4268
11013SOL     OW33608   4.247   1.189   3.665 -0.0820  0.1613  0.0667
11013SOL    HW133609   4.238   1.094   3.665 -0.2134  0.1085 -2.3474
11013SOL    HW233610   4.342   1.204   3.665 -0.0584  0.0100 -0.4899
11014SOL     OW33611   3.813   0.302   1.094  0.5923 -0.1227  0.2570
11014SOL    HW133612   3.851   0.312   1.181 -0.7257 -1.8524  1.1039
11014SOL    HW233613   3.855   0.223   1.059  1.9856  1.2134 -1.2142
11015SOL     OW33614   6.901   4.654   1.305 -0.7139 -0.5520  0.0993
11015SOL    HW133615   6.888   4.747   1.326  1.9757  0.0834 -0.6000
11015SOL    HW233616   6.819   4.627   1.264 -1.3347  1.7046 -0.2937
11016SOL     OW33617   3.635   3.300   6.940  0.0326 -0.2365  0.7597
11016SOL    HW133618   3.698   3.241   6.980  0.3045 -0.3181  0.2119
11016SOL    HW233619   3.601   3.252   6.865  2.7820  1.5231 -1.8455
11017SOL     OW33620   7.163   6.794   0.026 -0.2271  0.3253  0.2248
11017SOL    HW133621   7.144   6.802   0.120  0.5376 -0.2799  0.4421
11017SOL    HW233622   7.178   6.884  -0.003  2.8946  0.3327  1.4418
11018SOL     OW33623   0.445   2.683   2.208  0.1560 -0.1250 -0.3898
11018SOL    HW133624   0.404   2.600   2.182  0.8813 -1.0905  1.4130
11018SOL    HW233625   0.508   2.659   2.276  3.1842  1.4163 -2.4184
11019SOL     OW33626   6.395   5.256   6.754  0.3164  0.7088 -0.6333
11019SOL    HW133627   6.468   5.303   6.715 -0.0489  0.6084 -1.4489
11019SOL    HW233628   6.322   5.269   6.693 -0.6568  1.7010  0.6614
11020SOL     OW33629   6.614   3.981   5.909  0.6089 -0.2249  0.0430
11020SOL    HW133630   6.681   3.944   5.966  0.4400 -1.9032 -0.7830
11020SOL    HW233631   6.618   3.928   5.829  1.2110  2.3391 -1.7865
11021SOL     OW33632   3.261   3.175   6.963 -0.0278  0.2363  0.1188
11021SOL    HW133633   3.249   3.115   6.889  0.8351  0.6478 -0.3703
11021SOL    HW233634   3.349   3.212   6.950  1.3622 -1.7069  2.7971
11022SOL     OW33635   6.803   2.184   5.767  0.3551  0.2440 -0.3814
11022SOL    HW133636   6.710   2.195   5.786  0.4566  2.8228 -1.0908
11022SOL    HW233637   6.842   2.162   5.852 -0.5395  1.9914  0.5400
11023SOL     OW33638   7.369   1.187   1.431 -0.5400  0.3815 -0.0965
11023SOL    HW133639   7.302   1.149   1.374 -1.2751  0.0579  0.9492
11023SOL    HW233640   7.432   1.227   1.371 -2.7431  2.5994 -1.1026
11024SOL     OW33641   6.915   4.281   0.616 -0.0388 -0.0418 -0.0062
11024SOL    HW133642   6.863   4.360   0.601  0.4571  0.0912 -1.1761
11024SOL    HW233643   6.923   4.242   0.529  1.4085 -0.3085  0.2321
11025SOL     OW33644   5.098   6.438   5.545  0.2580 -0.3316  0.4247
11025SOL    HW133645   5.106   6.532   5.528 -1.9722  0.2041  1.8718
11025SOL    HW233646   5.055   6.403   5.467  2.4456 -0.4991 -0.7802
11026SOL     OW33647   7.174   5.962   4.595 -0.1475 -0.0763  0.3477
11026SOL    HW133648   7.196   6.038   4.649 -0.8482 -0.7808  1.6853
11026SOL    HW233649   7.105   5.918   4.644 -2.2130  0.2751 -2.0599
11027SOL     OW33650   0.068   1.548   1.163  0.3754 -0.3915  1.1911
11027SOL    HW133651   0.021   1.506   1.091  0.3069 -1.9367  2.1061
11027SOL    HW233652   0.004   1.608   1.202  0.5205  0.7421 -0.2195
11028SOL     OW33653   5.716   2.854   5.892 -0.0927 -0.1599  0.6133
11028SOL    HW133654   5.801   2.819   5.918  0.1495 -0.2883 -0.3260
11028SOL    HW233655   5.712   2.841   5.797 -0.4097  1.4431  0.3761
11029SOL     OW33656   7.290   3.932   5.167  0.2067 -0.2197 -0.0732
11029SOL    HW133657   7.205   3.936   5.125  0.4947  0.4035 -0.6181
11029SOL    HW233658   7.332   4.015   5.144  0.5484 -0.0521  1.0741
11030SOL     OW33659   7.104   7.206   6.708  0.1197  0.1666  0.0557
11030SOL    HW133660   7.138   7.278   6.762 -0.5841  0.4062  0.1812
11030SOL    HW233661   7.011   7.225   6.698 -0.0055 -0.5536 -0.1918
11031SOL     OW33662   5.878   5.049   1.220 -0.0545 -0.9392 -0.1466
11031SOL    HW133663   5.908   5.008   1.139  1.2862 -1.2186  0.4767
11031SOL    HW233664   5.889   4.982   1.286 -1.7440 -0.9278  0.1868
11032SOL     OW33665   0.776   2.047   6.648 -0.6948 -0.0597  0.3556
11032SOL    HW133666   0.777   1.952   6.640  1.1410  0.0030 -0.7240
11032SOL    HW233667   0.764   2.078   6.558  1.0660  0.6961  0.3436
11033SOL     OW33668   7.412   5.664   1.123  0.4789 -0.6453 -0.0329
11033SOL    HW133669   7.418   5.640   1.030 -0.4528 -2.3035  0.3089
11033SOL    HW233670   7.494   5.633   1.161  0.6463 -0.4144 -0.2006
11034SOL     OW33671   1.970   4.568   0.922 -0.0654 -0.2771  0.1923
11034SOL    HW133672   1.904   4.568   0.853 -0.6484  0.4879  0.7294
11034SOL    HW233673   2.053   4.583   0.876 -0.0554 -2.5216 -0.6343
11035SOL     OW33674   4.141   7.003   7.388 -0.0267 -0.2783 -0.4083
11035SOL    HW133675   4.213   6.943   7.406  1.6549  2.1311  1.4496
11035SOL    HW233676   4.183   7.084   7.361 -2.1590  0.5558 -1.5032
11036SOL     OW33677   2.501   2.958   2.482 -0.6870  0.4917  0.0282
11036SOL    HW133678   2.409   2.972   2.458 -0.2051  0.0709 -2.3884
11036SOL    HW233679   2.511   3.003   2.566 -2.4417  2.9677 -0.9371
11037SOL     OW33680   4.427   1.967   0.039 -0.5214 -0.4969 -0.0928
11037SOL    HW133681   4.428   2.058   0.010  2.3634 -0.4274 -0.1403
11037SOL    HW233682   4.378   1.921  -0.028 -1.7945  0.9637 -0.2170
11038SOL     OW33683   3.400   4.351   6.714 -0.4589  0.1542 -0.9095
11038SOL    HW133684   3.475   4.299   6.683 -1.0570 -2.6335  1.8307
11038SOL    HW233685   3.331   4.286   6.730 -2.8347  2.4011 -1.3860
11039SOL     OW33686   0.537   2.411   0.795 -0.5729 -0.2969 -0.8560
11039SOL    HW133687   0.501   2.464   0.724 -0.7073  0.2343 -0.3979
11039SOL    HW233688   0.504   2.323   0.778  1.2103 -0.6800 -2.7130
11040SOL     OW33689   1.883   0.804   5.529  0.1525 -0.1516  0.3026
11040SOL    HW133690   1.836   0.745   5.587  1.0755  0.0382  1.2686
11040SOL    HW233691   1.879   0.889   5.572 -0.1396  0.2505 -0.4927
11041SOL     OW33692   4.313   5.779   4.446 -0.1330  0.5987  0.1066
11041SOL    HW133693   4.398   5.821   4.459 -0.4623  1.7916 -1.3454
11041SOL    HW233694   4.277   5.821   4.368 -2.2092  0.3627  0.8745
11042SOL     OW33695   4.649   6.364   5.211  0.6485  0.5282  0.1225
11042SOL    HW133696   4.704   6.442   5.201 -1.8985  2.7548  1.8907
11042SOL    HW233697   4.686   6.318   5.286  1.7652  0.3730 -0.5043
11043SOL     OW33698   6.120   4.778   1.265  0.4022 -0.2218 -0.8693
11043SOL    HW133699   6.043   4.791   1.320  0.8338  2.4148 -0.7371
11043SOL    HW233700   6.181   4.729   1.321  0.7322  2.1618  1.0785
11044SOL     OW33701   4.780   3.387   0.143  0.2861 -0.4186  0.4222
11044SOL    HW133702   4.797   3.457   0.206  0.5227  0.1553 -0.2636
11044SOL    HW233703   4.812   3.308   0.186  1.7377  0.1636  0.4864
11045SOL     OW33704   2.024   1.667   0.853 -0.4312  0.1727  0.3533
11045SOL    HW133705   1.946   1.624   0.818  0.0980  1.7835 -3.2668
11045SOL    HW233706   2.096   1.636   0.798  0.9043  1.3129  1.3657
11046SOL     OW33707   0.997   3.526   6.283 -0.2299 -0.4560  0.6875
11046SOL    HW133708   0.932   3.456   6.280 -0.1282 -0.5463  0.5417
11046SOL    HW233709   1.050   3.506   6.361  0.2455 -0.9499  0.2480
11047SOL     OW33710   4.286   2.977   6.731 -0.0476  0.2914  0.2903
11047SOL    HW133711   4.255   2.951   6.645  0.7451 -2.8635  0.8092
11047SOL    HW233712   4.207   2.996   6.781 -0.5933  0.6098 -0.6760
11048SOL     OW33713   5.044   4.235   6.495 -0.4431  0.0405 -0.3280
11048SOL    HW133714   5.087   4.153   6.472 -0.2488  0.3505 -1.0729
11048SOL    HW233715   4.952   4.211   6.506 -0.1312 -0.6229  1.2603
11049SOL     OW33716   3.780   7.293   0.588  0.3292 -0.2259  0.0929
11049SOL    HW133717   3.876   7.289   0.596  0.2696  0.0303  1.1208
11049SOL    HW233718   3.754   7.363   0.648 -0.4827 -0.0560 -0.4376
11050SOL     OW33719   0.095   4.342   1.370 -0.2701  0.9542 -0.3016
11050SOL    HW133720   0.017   4.373   1.324 -0.2950  0.7543 -0.3973
11050SOL    HW233721   0.080   4.365   1.462 -1.2423 -0.6275 -0.0291
11051SOL     OW33722   6.233   2.918   5.993  0.2507 -0.0797  0.6055
11051SOL    HW133723   6.302   2.855   6.012  0.7161  0.9109  2.4568
11051SOL    HW233724   6.166   2.867   5.947  2.1824 -1.0619 -1.3070
11052SOL     OW33725   4.552   0.508   4.683  0.6639 -0.2255 -0.4812
11052SOL    HW133726   4.505   0.453   4.621  1.7716 -0.6410 -0.9780
11052SOL    HW233727   4.620   0.550   4.631 -0.8725  2.5849 -0.3660
11053SOL     OW33728   7.082   6.733   1.376  0.4757 -0.3506 -0.2316
11053SOL    HW133729   7.023   6.788   1.427  0.0117 -0.8926 -0.1736
11053SOL    HW233730   7.058   6.751   1.285  1.3660  0.6869 -0.2898
11054SOL     OW33731   7.388   1.251   5.798 -0.5966 -0.3035  0.1010
11054SOL    HW133732   7.301   1.225   5.768 -0.9462  0.0766  0.7616
11054SOL    HW233733   7.401   1.201   5.878  0.0150 -0.7513 -0.2752
11055SOL     OW33734   2.323   6.061   0.844 -0.6576  0.3196  0.0552
11055SOL    HW133735   2.279   6.145   0.831  0.9007  1.1654  0.0311
11055SOL    HW233736   2.360   6.039   0.759 -1.6606 -0.7993 -0.1324
11056SOL     OW33737   1.008   5.590   2.806  0.3898 -0.0551  0.6580
11056SOL    HW133738   0.990   5.496   2.793  0.4227 -0.4028  2.7401
11056SOL    HW233739   0.935   5.634   2.762 -0.1035 -1.1013  0.3824
11057SOL     OW33740   1.349   6.838   1.210  0.2380 -0.1903  0.0829
11057SOL    HW133741   1.285   6.891   1.259  0.2872  0.1015 -0.1685
11057SOL    HW233742   1.425   6.895   1.199 -0.7926  0.8224 -2.7940
11058SOL     OW33743   0.345   0.690   2.367 -0.1588  0.8225 -0.6395
11058SOL    HW133744   0.421   0.695   2.424 -1.0288  2.3594  0.4794
11058SOL    HW233745   0.334   0.597   2.348  1.6572  0.5316 -0.3961
11059SOL     OW33746   1.753   0.976   2.561  0.2095  0.4964  0.5013
11059SOL    HW133747   1.658   0.965   2.569  0.2136  0.3210  0.3196
11059SOL    HW233748   1.782   0.993   2.651  0.1526 -0.6401  0.7468
11060SOL     OW33749   1.814   1.095   4.930 -0.1505  0.4269  0.4303
11060SOL    HW133750   1.756   1.019   4.938 -2.3573  2.0493  0.8242
11060SOL    HW233751   1.851   1.088   4.842 -1.0495 -0.6341  0.1129
11061SOL     OW33752   1.131   7.172   5.360 -0.1928 -0.6260 -0.9088
11061SOL    HW133753   1.131   7.130   5.446  0.5965 -1.4507 -1.2908
11061SOL    HW233754   1.131   7.266   5.379  1.8809 -0.7679  0.0398
11062SOL     OW33755   0.993   3.704   4.638  0.2912  0.6861 -0.3405
11062SOL    HW133756   1.052   3.651   4.585 -0.5650 -1.7096  0.9115
11062SOL    HW233757   1.004   3.671   4.727 -0.5042  2.4930  0.4914
11063SOL     OW33758   5.113   0.430   6.236  0.2932  0.3663  0.4942
11063SOL    HW133759   5.119   0.496   6.305 -0.2098  2.3300 -1.2366
11063SOL    HW233760   5.027   0.390   6.247  0.1063  0.8636  0.8440
11064SOL     OW33761   3.617   2.212   1.761  0.2237  0.5202 -0.3737
11064SOL    HW133762   3.652   2.144   1.704 -0.3546 -0.5977  0.5477
11064SOL    HW233763   3.554   2.259   1.707  0.0379 -0.2026 -0.7993
11065SOL     OW33764   2.240   5.141   4.956  0.2926  0.1591  0.0687
11065SOL    HW133765   2.242   5.171   5.047  2.5365  1.0515 -0.2216
11065SOL    HW233766   2.236   5.221   4.904  1.5315 -0.2206 -0.6429
11066SOL     OW33767   6.630   3.622   1.043 -0.2006 -0.4086 -0.5605
11066SOL    HW133768   6.631   3.641   0.950  0.7901 -1.7643 -0.8644
11066SOL    HW233769   6.674   3.537   1.051 -3.0028 -1.8770  0.8188
11067SOL     OW33770   6.006   1.380   5.513 -0.4365 -0.3175  0.3535
11067SOL    HW133771   6.085   1.360   5.463 -1.1478  0.3164 -1.0980
11067SOL    HW233772   5.940   1.320   5.479 -0.6447 -0.6962  1.4023
11068SOL     OW33773   6.514   1.135   7.379  0.3173  0.7458 -0.2672
11068SOL    HW133774   6.535   1.057   7.328  0.9172  0.8200 -0.1474
11068SOL    HW233775   6.562   1.123   7.461  0.2034  1.1191 -0.1444
11069SOL     OW33776   2.215   5.421   7.091  0.2793  0.5073 -0.3650
11069SOL    HW133777   2.146   5.356   7.077 -2.1452  3.0856 -1.3655
11069SOL    HW233778   2.256   5.431   7.005 -0.6761  1.5867 -0.7314
11070SOL     OW33779   1.076   4.471   0.589  0.0194 -0.2436  0.7079
11070SOL    HW133780   1.119   4.556   0.588  0.6205 -0.5488  0.2225
11070SOL    HW233781   1.013   4.475   0.517  0.6222 -0.4941  0.1581
11071SOL     OW33782   7.041   0.042   1.537  0.3228  0.2007  0.7361
11071SOL    HW133783   7.080   0.127   1.558 -0.9128  1.1792 -0.7162
11071SOL    HW233784   6.951   0.062   1.514  0.2281 -1.3910 -0.4783
11072SOL     OW33785   7.045   0.972   1.962  0.1870 -0.4393 -0.1544
11072SOL    HW133786   7.099   1.024   1.902 -0.8258 -0.2032 -0.8974
11072SOL    HW233787   6.960   0.967   1.919 -0.9730  0.7827  1.7984
11073SOL     OW33788   5.398   5.196   3.063  0.2071  0.6627  0.0629
11073SOL    HW133789   5.311   5.158   3.067 -0.5947  2.4568  0.5610
11073SOL    HW233790   5.418   5.204   2.970  0.3078 -0.7099 -0.0513
11074SOL     OW33791   0.749   7.072   3.010  0.3842 -0.0293  0.0452
11074SOL    HW133792   0.700   7.091   3.089  0.4526  1.8412 -0.3308
11074SOL    HW233793   0.822   7.017   3.039 -0.2253 -0.3222  1.0664
11075SOL     OW33794   2.945   5.159   2.631 -0.0723  0.2832  0.1043
11075SOL    HW133795   2.954   5.173   2.726 -0.1422  0.6570  0.0559
11075SOL    HW233796   2.870   5.100   2.623 -0.1266  0.3272  0.2780
11076SOL     OW33797   2.427   2.281   2.633  0.4129 -0.4830 -0.0730
11076SOL    HW133798   2.461   2.219   2.698  1.9550 -0.3415 -0.7154
11076SOL    HW233799   2.434   2.234   2.550  0.1276 -0.0041 -0.3699
11077SOL     OW33800   3.313   5.524   2.930 -0.1503  0.3413 -0.7384
11077SOL    HW133801   3.294   5.527   2.836 -1.6194 -0.9787 -0.5288
11077SOL    HW233802   3.238   5.568   2.970 -0.0342 -0.0019 -0.1377
11078SOL     OW33803   1.278   1.738   5.943 -0.3594 -0.5060 -0.1534
11078SOL    HW133804   1.190   1.754   5.907 -0.0825 -0.4274 -0.7993
11078SOL    HW233805   1.261   1.712   6.033 -0.9646  1.0556  0.2223
11079SOL     OW33806   4.825   4.827   6.098 -0.1669  0.1791  0.1306
11079SOL    HW133807   4.826   4.819   6.194 -0.8803  1.1978  0.2379
11079SOL    HW233808   4.918   4.825   6.074  0.1312  1.3957  1.0068
11080SOL     OW33809   7.305   4.712   2.150 -0.6493 -0.2133 -0.2182
11080SOL    HW133810   7.315   4.626   2.109 -1.8716 -0.6063  0.2553
11080SOL    HW233811   7.212   4.717   2.172 -0.2126  0.3738  1.6396
11081SOL     OW33812   1.878   1.337   5.056 -0.0824 -0.1475  0.0569
11081SOL    HW133813   1.810   1.358   5.120  1.8052 -2.2944  3.0466
11081SOL    HW233814   1.847   1.257   5.013 -0.7287  0.5481 -0.8266
11082SOL     OW33815   0.284   0.651   1.542 -0.0186 -0.6790  0.0930
11082SOL    HW133816   0.276   0.743   1.515 -2.1242 -0.6381  0.6782
11082SOL    HW233817   0.272   0.653   1.637  0.4955 -1.5079  0.1799
11083SOL     OW33818   3.573   1.861   6.583 -0.0055  0.8883  0.9078
11083SOL    HW133819   3.633   1.898   6.648 -1.5452  1.1777  2.2367
11083SOL    HW233820   3.594   1.768   6.582 -0.1032  0.8349  2.0343
11084SOL     OW33821   7.051   6.716   2.595 -0.1530  0.7287 -0.0480
11084SOL    HW133822   7.133   6.753   2.627 -0.1577 -0.8285  1.9710
11084SOL    HW233823   6.983   6.771   2.633 -0.0749  0.8959 -0.1518
11085SOL     OW33824   2.849   6.689   4.890 -0.1269  0.7659  0.0903
11085SOL    HW133825   2.925   6.659   4.940 -1.8186 -1.2020  1.6830
11085SOL    HW233826   2.833   6.778   4.921 -1.1975 -0.4163  3.3735
11086SOL     OW33827   6.372   4.761   4.993  0.0291  0.0823  0.3420
11086SOL    HW133828   6.372   4.839   5.049 -1.1858  0.8463 -0.6764
11086SOL    HW233829   6.463   4.752   4.965  0.4075  0.4399  1.3882
11087SOL     OW33830   5.254   1.073   1.635 -0.5098  0.0248  0.0772
11087SOL    HW133831   5.209   1.014   1.695  1.0150  0.4305  1.7121
11087SOL    HW233832   5.343   1.078   1.669  0.2333  0.8408 -1.8421
11088SOL     OW33833   4.829   4.340   1.294  0.1723  0.5939  0.3138
11088SOL    HW133834   4.855   4.327   1.385 -0.4599  0.2008  0.4473
11088SOL    HW233835   4.894   4.292   1.243 -0.2620 -0.3577  0.6382
11089SOL     OW33836   4.776   3.801   6.794 -0.2015 -0.2930  0.0506
11089SOL    HW133837   4.785   3.864   6.866  1.5788 -0.3613 -0.0608
11089SOL    HW233838   4.834   3.729   6.818 -1.7450 -1.6384 -0.1207
11090SOL     OW33839   4.680   0.607   2.131 -0.6569  0.2314  0.0008
11090SOL    HW133840   4.711   0.529   2.084  1.2563  1.2243 -0.4842
11090SOL    HW233841   4.585   0.599   2.130 -0.5307 -1.7557 -0.6206
11091SOL     OW33842   6.552   3.963   2.927  0.0213 -0.1149  0.1139
11091SOL    HW133843   6.512   3.909   2.858 -0.8519  1.5890 -0.7802
11091SOL    HW233844   6.627   4.004   2.884  0.0703  0.1804  0.4800
11092SOL     OW33845   5.612   5.039   1.663  0.2844 -0.1837 -0.3130
11092SOL    HW133846   5.700   5.022   1.695  1.6177  1.6849 -2.6939
11092SOL    HW233847   5.596   5.131   1.683 -1.4465 -0.6270  0.6259
11093SOL     OW33848   5.767   6.193   0.912 -0.0225  0.0468  0.2221
11093SOL    HW133849   5.801   6.280   0.893  0.5778 -0.1736  0.2726
11093SOL    HW233850   5.762   6.190   1.007  1.3727 -0.4950  0.2964
11094SOL     OW33851   6.909   2.406   3.085 -0.6300 -0.0828  0.3915
11094SOL    HW133852   6.846   2.443   3.023 -0.3108 -2.6328 -1.6158
11094SOL    HW233853   6.869   2.323   3.113  0.8168 -0.6749  0.7919
11095SOL     OW33854   2.736   2.855   1.192  0.0806 -0.4744  0.4705
11095SOL    HW133855   2.730   2.760   1.198 -1.0000 -0.5218 -0.8761
11095SOL    HW233856   2.725   2.874   1.099 -2.2000  1.0973  0.9758
11096SOL     OW33857   4.928   1.220   5.847  0.3841  0.2340  0.4085
11096SOL    HW133858   4.979   1.144   5.820  0.3605  0.2660  0.2720
11096SOL    HW233859   4.875   1.241   5.771  0.2568  0.2760  0.5079
11097SOL     OW33860   3.579   3.284   4.691 -0.7899  0.3952  0.2487
11097SOL    HW133861   3.650   3.220   4.697 -1.1468  0.1130  2.1195
11097SOL    HW233862   3.600   3.349   4.758 -1.9155  0.6990  0.3156
11098SOL     OW33863   2.178   5.717   1.462  0.1378  0.0816 -0.2140
11098SOL    HW133864   2.146   5.800   1.497  0.4067  0.3849 -0.6737
11098SOL    HW233865   2.244   5.742   1.397  0.7841 -0.5073  0.1987
11099SOL     OW33866   2.110   2.239   6.262  0.0075  0.1042 -0.5690
11099SOL    HW133867   2.066   2.157   6.241  0.9986 -0.2021 -1.5128
11099SOL    HW233868   2.193   2.213   6.302  0.0311  0.6531 -0.2447
11100SOL     OW33869   7.179   7.270   5.494 -0.1217 -0.0062 -0.3503
11100SOL    HW133870   7.239   7.268   5.569  0.6020  0.6524 -0.8938
11100SOL    HW233871   7.187   7.183   5.455  1.2187  0.3617 -0.9595
11101SOL     OW33872   4.418   6.878   4.030  0.0856  0.5181 -0.1091
11101SOL    HW133873   4.334   6.840   4.004 -0.1873  0.5541  0.6751
11101SOL    HW233874   4.403   6.909   4.120  0.6983  1.2808 -0.2638
11102SOL     OW33875   0.266   5.282   3.743 -0.0143  0.7194  0.1717
11102SOL    HW133876   0.238   5.267   3.834 -0.6129  1.2730  0.0929
11102SOL    HW233877   0.307   5.368   3.745  1.4500  0.0386  0.2208
11103SOL     OW33878   0.106   6.026   6.051  0.1444  0.7365  0.0924
11103SOL    HW133879   0.012   6.024   6.032  0.1855  0.6658 -0.1044
11103SOL    HW233880   0.132   6.117   6.039  0.0008  0.8503  0.6344
11104SOL     OW33881   4.141   4.691   2.368 -0.5161  0.2954  0.0271
11104SOL    HW133882   4.114   4.701   2.459 -0.9960 -3.6723  0.5085
11104SOL    HW233883   4.062   4.708   2.317 -1.4021 -1.4303  0.7322
11105SOL     OW33884   0.426   3.764   5.231 -0.3507 -0.5476 -0.2690
11105SOL    HW133885   0.443   3.835   5.169 -0.5482  1.6865  2.0549
11105SOL    HW233886   0.489   3.696   5.209  1.8024  1.5181 -0.8771
11106SOL     OW33887   2.605   4.953   0.693  0.0790  0.1735  0.2281
11106SOL    HW133888   2.523   4.918   0.658 -0.1023 -0.3130  1.1068
11106SOL    HW233889   2.578   5.010   0.765  0.4273  1.4147 -0.5834
11107SOL     OW33890   2.204   7.427   0.940 -0.1321 -0.3503  0.1950
11107SOL    HW133891   2.218   7.333   0.944  2.6899  0.0085  0.6977
11107SOL    HW233892   2.282   7.465   0.981 -1.5213  2.1996  0.6759
11108SOL     OW33893   5.886   6.202   1.273 -0.0875  0.1738  0.4248
11108SOL    HW133894   5.794   6.183   1.288  0.6091 -2.8674  1.7507
11108SOL    HW233895   5.901   6.285   1.318 -2.4571  1.6665 -1.3253
11109SOL     OW33896   0.915   7.228   3.563 -0.1755 -0.4117 -0.7986
11109SOL    HW133897   0.857   7.273   3.502  2.5189  2.9358 -1.1531
11109SOL    HW233898   0.963   7.298   3.607  1.8700 -2.8877  1.2371
11110SOL     OW33899   2.385   5.228   0.564  0.0030 -0.1387 -0.2113
11110SOL    HW133900   2.426   5.284   0.630 -0.0615  0.2216 -0.4708
11110SOL    HW233901   2.344   5.290   0.503 -0.4600 -0.4810 -0.2517
11111SOL     OW33902   1.433   3.925   4.476  0.2171 -0.3145  0.2769
11111SOL    HW133903   1.477   4.003   4.442  0.4532 -0.3429  0.5156
11111SOL    HW233904   1.434   3.936   4.571 -3.2779  1.3486  0.2982
11112SOL     OW33905   5.112   4.430   5.825 -0.3453 -0.0045 -0.6334
11112SOL    HW133906   5.091   4.429   5.919  0.8780 -1.0895 -0.3339
11112SOL    HW233907   5.082   4.345   5.793  1.2637 -0.5869 -0.7009
11113SOL     OW33908   1.912   1.926   0.803  0.2156  0.5278  0.0595
11113SOL    HW133909   1.964   1.999   0.837  0.7028 -0.3244  1.2129
11113SOL    HW233910   1.958   1.848   0.833  0.0679 -0.2873 -1.7055
11114SOL     OW33911   3.119   5.509   6.186  0.2791  0.1242  0.3118
11114SOL    HW133912   3.106   5.442   6.119 -0.8675 -0.9403  1.5561
11114SOL    HW233913   3.122   5.591   6.136  1.6105 -0.7939 -1.2302
11115SOL     OW33914   5.321   3.243   0.836 -0.0055  0.7394  0.7306
11115SOL    HW133915   5.288   3.267   0.749  0.2863  0.1528  0.4485
11115SOL    HW233916   5.308   3.321   0.889 -0.7195  0.9197  0.3118
11116SOL     OW33917   1.164   2.166   2.220  0.1877 -0.5600 -0.2774
11116SOL    HW133918   1.076   2.164   2.182  0.1530 -2.4294 -0.2281
11116SOL    HW233919   1.160   2.235   2.286 -1.4537 -0.9957  0.1326
11117SOL     OW33920   3.728   7.211   6.601 -0.1615  0.3208  0.1270
11117SOL    HW133921   3.767   7.258   6.675 -0.7374  0.7675  0.1504
11117SOL    HW233922   3.636   7.201   6.625  0.3921 -3.2906  1.4471
11118SOL     OW33923   4.685   5.952   3.491 -0.4042 -0.0344  0.1855
11118SOL    HW133924   4.697   5.914   3.404 -0.1221 -0.2606  0.3204
11118SOL    HW233925   4.702   5.880   3.551 -0.8131  0.0647  0.4253
11119SOL     OW33926   2.023   2.545   5.908  0.1250 -0.2378  0.5516
11119SOL    HW133927   2.096   2.483   5.914 -0.3927 -0.7867  1.3636
11119SOL    HW233928   2.028   2.580   5.819  0.7985 -0.9873  0.2886
11120SOL     OW33929   7.413   4.659   5.119 -0.8078 -0.2630  0.4357
11120SOL    HW133930   7.375   4.742   5.145  0.2684  0.5837 -0.5791
11120SOL    HW233931   7.374   4.595   5.179 -2.2082  0.8388  0.7760
11121SOL     OW33932   0.649   4.713   7.428  0.1031  0.1111 -0.0287
11121SOL    HW133933   0.708   4.709   7.353 -1.4169  1.8109 -1.4228
11121SOL    HW233934   0.586   4.643   7.412  0.2281 -0.0247  0.0736
11122SOL     OW33935   1.156   0.081   3.376 -0.1762  0.0364  0.5453
11122SOL    HW133936   1.110   0.014   3.324  1.4649 -1.6002  1.0923
11122SOL    HW233937   1.144   0.052   3.467  1.0077  0.1634  0.7546
11123SOL     OW33938   0.569   3.799   4.215 -0.0422  0.3142 -0.1121
11123SOL    HW133939   0.652   3.763   4.247  0.0426 -0.0412 -0.7131
11123SOL    HW233940   0.520   3.822   4.294  0.5601  0.3745  0.2520
11124SOL     OW33941   0.138   2.593   1.073 -0.5247  0.2913 -0.0519
11124SOL    HW133942   0.106   2.640   0.996  2.8320  2.0419 -0.5561
11124SOL    HW233943   0.143   2.502   1.045 -2.8195  0.2789 -0.5997
11125SOL     OW33944   4.210   6.333   1.986  0.5997 -0.4016  0.6435
11125SOL    HW133945   4.236   6.370   2.070  0.3049  2.6382 -0.4923
11125SOL    HW233946   4.123   6.368   1.969  1.1805  0.1912 -1.4915
11126SOL     OW33947   0.633   7.063   0.669 -0.1703 -0.0521  0.3370
11126SOL    HW133948   0.655   6.999   0.737 -0.0025 -0.1756  0.1687
11126SOL    HW233949   0.547   7.035   0.637  0.3580 -0.8301 -0.4641
11127SOL     OW33950   1.568   5.186   1.362  1.1994 -0.5567  0.4166
11127SOL    HW133951   1.652   5.150   1.389  2.1135 -2.2839 -3.8466
11127SOL    HW233952   1.520   5.112   1.325 -0.0431  1.2049 -1.8182
11128SOL     OW33953   4.736   4.785   6.349  0.2493  0.4712  0.1312
11128SOL    HW133954   4.778   4.767   6.433  0.4315 -1.1382 -0.2539
11128SOL    HW233955   4.657   4.833   6.371 -0.7451 -1.6235  1.4633
11129SOL     OW33956   2.843   5.297   1.110  0.4372  0.5595  0.2276
11129SOL    HW133957   2.866   5.226   1.170  3.1806  1.8884  0.9292
11129SOL    HW233958   2.913   5.297   1.045  0.2380  2.2762 -0.0353
11130SOL     OW33959   0.604   3.227   5.555 -0.1462 -0.0788 -0.5036
11130SOL    HW133960   0.523   3.260   5.516 -0.1522  1.1030  0.4316
11130SOL    HW233961   0.578   3.195   5.641  0.4043  0.5924 -0.0698
11131SOL     OW33962   0.781   1.495   7.323 -0.3558  0.2929 -0.3050
11131SOL    HW133963   0.858   1.532   7.365 -0.2021 -1.2206  0.8271
11131SOL    HW233964   0.721   1.477   7.395 -0.8097 -0.7308 -0.9234
11132SOL     OW33965   1.253   5.180   4.218  0.1194 -0.2358  0.1356
11132SOL    HW133966   1.342   5.184   4.183  1.1278 -2.0520  2.2499
11132SOL    HW233967   1.213   5.105   4.175  0.0950 -0.2652  0.2100
11133SOL     OW33968   2.978   6.209   0.927 -0.3099  0.2155  0.3806
11133SOL    HW133969   2.933   6.278   0.975 -2.8190 -1.2182  0.2909
11133SOL    HW233970   2.958   6.226   0.835 -2.6204 -1.5771  0.4603
11134SOL     OW33971   4.555   6.105   2.246  0.0223 -0.0698  0.9962
11134SOL    HW133972   4.532   6.025   2.199  0.4138  0.6731 -0.5429
11134SOL    HW233973   4.483   6.119   2.307 -0.5010 -1.1012  0.6413
11135SOL     OW33974   0.788   6.792   4.218  0.0670 -0.0748  0.1316
11135SOL    HW133975   0.737   6.800   4.137  1.1108  0.0647 -0.5396
11135SOL    HW233976   0.786   6.698   4.239 -0.2854 -0.0982 -0.0101
11136SOL     OW33977   4.253   1.122   2.052 -0.8027  0.0369 -0.0918
11136SOL    HW133978   4.178   1.181   2.045  0.1762  1.7318  2.1577
11136SOL    HW233979   4.326   1.179   2.077  1.0453 -1.6857 -1.2495
11137SOL     OW33980   2.791   1.712   1.395 -0.2916 -0.5799  0.2334
11137SOL    HW133981   2.757   1.731   1.483 -0.1800  1.3748 -0.0912
11137SOL    HW233982   2.733   1.644   1.361 -0.3091 -1.3911  1.8228
11138SOL     OW33983   4.881   6.606   3.290  0.0734 -0.0773 -0.0267
11138SOL    HW133984   4.904   6.652   3.370 -1.3171 -0.2256  0.5017
11138SOL    HW233985   4.884   6.513   3.314 -1.6506 -0.0883  0.2812
11139SOL     OW33986   6.781   6.539   1.789 -0.4921  0.8699  0.3632
11139SOL    HW133987   6.689   6.511   1.797 -0.1280 -0.4448  0.1233
11139SOL    HW233988   6.824   6.467   1.744  0.5894  1.6555  0.1232
11140SOL     OW33989   0.729   1.047   4.971  0.0481 -0.1994 -0.2413
11140SOL    HW133990   0.809   1.007   4.937  0.2278 -0.4481  0.4675
11140SOL    HW233991   0.760   1.123   5.020 -0.1751 -0.0965 -0.2626
11141SOL     OW33992   5.128   5.286   4.321  0.1786  0.4226 -1.1069
11141SOL    HW133993   5.096   5.198   4.304  0.8673 -0.7584  2.7863
11141SOL    HW233994   5.053   5.332   4.360  0.4165  0.8902 -1.1849
11142SOL     OW33995   1.967   6.862   0.656 -0.4888 -0.1686  0.5600
11142SOL    HW133996   1.885   6.822   0.629 -1.5665  1.0953  1.8367
11142SOL    HW233997   1.949   6.956   0.658  1.4478  0.2921 -0.5937
11143SOL     OW33998   2.343   4.049   6.287  0.1431  0.5022 -0.2345
11143SOL    HW133999   2.275   4.072   6.350 -0.6690 -0.4239 -0.7466
11143SOL    HW234000   2.413   4.112   6.304 -1.2858  2.2356 -0.4592
11144SOL     OW34001   0.129   5.806   1.545 -0.4157  0.0042 -0.2163
11144SOL    HW134002   0.099   5.779   1.457  3.4739  0.2572 -1.7971
11144SOL    HW234003   0.113   5.900   1.547 -0.7466 -0.0397 -0.5549
11145SOL     OW34004   0.996   1.243   6.966 -0.0544 -0.0292 -0.1764
11145SOL    HW134005   0.997   1.159   7.011 -0.3494 -0.3463 -0.7479
11145SOL    HW234006   0.921   1.290   7.003 -0.3451 -0.3203 -0.3982
11146SOL     OW34007   0.664   5.202   2.280 -0.5233  0.5682  0.5732
11146SOL    HW134008   0.746   5.154   2.289  0.5303  2.2422  0.2768
11146SOL    HW234009   0.613   5.177   2.357 -0.5882 -1.9719 -0.1918
11147SOL     OW34010   2.068   6.109   0.225  0.8197 -0.1387 -0.7546
11147SOL    HW134011   2.098   6.195   0.196 -1.0432  0.5841 -0.6757
11147SOL    HW234012   2.063   6.057   0.145 -0.2825  0.5610 -1.1544
11148SOL     OW34013   7.344   2.811   1.289  0.0165 -0.3493 -0.1910
11148SOL    HW134014   7.350   2.882   1.353  2.1869  2.3056 -3.0471
11148SOL    HW234015   7.411   2.748   1.317 -0.1975 -0.0773  0.9982
11149SOL     OW34016   0.511   4.606   6.296  0.0609  0.2845  0.4241
11149SOL    HW134017   0.520   4.664   6.372 -0.6477  1.2964 -0.2539
11149SOL    HW234018   0.598   4.569   6.284  0.4460  0.9518  1.0677
11150SOL     OW34019   6.013   5.569   5.907  0.1377  0.4165 -0.3218
11150SOL    HW134020   6.022   5.643   5.967 -0.0246  0.7143 -0.6599
11150SOL    HW234021   5.926   5.581   5.868  0.1070  0.0412 -0.3695
11151SOL     OW34022   4.812   6.936   6.000  0.2988 -0.0447 -0.0122
11151SOL    HW134023   4.753   6.861   6.007 -0.0599  0.2740  0.4885
11151SOL    HW234024   4.768   7.006   6.050  1.1797  0.1507  0.5108
11152SOL     OW34025   3.423   5.549   1.850  0.0011  0.0965 -0.3098
11152SOL    HW134026   3.443   5.467   1.803  0.6010 -0.4358  0.8343
11152SOL    HW234027   3.333   5.569   1.825 -0.3568 -1.2239 -0.1855
11153SOL     OW34028   6.936   7.411   3.580  0.6359  0.0055 -0.1885
11153SOL    HW134029   6.971   7.331   3.618 -1.8288 -1.0486  0.0338
11153SOL    HW234030   6.926   7.391   3.487  0.7704  0.3722 -0.2848
11154SOL     OW34031   4.728   0.651   2.423  0.1584  0.0391 -0.4122
11154SOL    HW134032   4.729   0.562   2.388 -0.3526  0.2463 -0.9702
11154SOL    HW234033   4.817   0.665   2.455 -0.1162 -1.1700  0.9686
11155SOL     OW34034   1.237   3.663   4.410 -0.1099  0.1729 -0.2483
11155SOL    HW134035   1.327   3.691   4.394 -0.7280  1.6286 -1.4889
11155SOL    HW234036   1.188   3.745   4.414 -1.2237 -0.5353  1.5752
11156SOL     OW34037   5.599   6.701   4.122 -0.5979 -0.0084  0.3706
11156SOL    HW134038   5.638   6.682   4.207  2.0080  0.5931 -0.5788
11156SOL    HW234039   5.580   6.616   4.083  1.0266 -0.3997  0.3851
11157SOL     OW34040   3.771   0.140   4.975  0.3868 -0.1016 -0.2073
11157SOL    HW134041   3.763   0.094   4.891 -0.4186 -0.4964  0.0740
11157SOL    HW234042   3.682   0.170   4.995  0.3569 -0.9232  1.0093
11158SOL     OW34043   4.295   6.519   3.052  0.2969 -0.3261  0.2391
11158SOL    HW134044   4.363   6.551   2.993  0.4910 -1.8464 -0.4243
11158SOL    HW234045   4.330   6.436   3.085 -1.2563 -1.1765 -0.1736
11159SOL     OW34046   0.189   6.687   0.941 -0.3397 -0.2536  0.5224
11159SOL    HW134047   0.253   6.718   1.005  0.0959 -0.3377  0.1304
11159SOL    HW234048   0.135   6.764   0.923 -0.0837 -0.0670  0.5386
11160SOL     OW34049   5.911   4.175   1.569 -0.6114  0.1527 -0.1252
11160SOL    HW134050   5.844   4.132   1.516 -0.5466  2.0163 -1.8381
11160SOL    HW234051   5.868   4.253   1.604  0.0812  0.2610  0.5213
11161SOL     OW34052   1.464   3.389   2.671  0.3740  0.3475 -0.5657
11161SOL    HW134053   1.527   3.371   2.600  0.9572 -1.0264  0.2720
11161SOL    HW234054   1.450   3.305   2.713  0.3648  1.1959  1.2303
11162SOL     OW34055   0.832   2.839   7.146 -0.2285 -0.1711 -0.4928
11162SOL    HW134056   0.899   2.785   7.188  0.2590  0.3189 -0.6325
11162SOL    HW234057   0.783   2.778   7.092 -0.9311 -0.8393  0.8494
11163SOL     OW34058   2.330   7.281   2.833 -0.3938  0.4649  0.0834
11163SOL    HW134059   2.312   7.363   2.879  0.3223  0.0160  1.2112
11163SOL    HW234060   2.348   7.307   2.743 -0.1241  1.5513  0.4361
11164SOL     OW34061   0.321   3.607   1.471 -0.5324  0.4611 -0.1158
11164SOL    HW134062   0.228   3.627   1.463 -0.3447  2.4719  1.7464
11164SOL    HW234063   0.324   3.531   1.529 -0.9994  1.5658  1.4117
11165SOL     OW34064   1.943   1.791   1.712  0.3205 -0.1610  0.4475
11165SOL    HW134065   1.924   1.847   1.787 -2.6623 -0.5017  0.0674
11165SOL    HW234066   2.021   1.829   1.672  0.6913  1.3187  2.4467
11166SOL     OW34067   0.140   2.264   5.462  0.0952  0.1307  0.4953
11166SOL    HW134068   0.231   2.260   5.434 -0.0056 -0.0865  0.1819
11166SOL    HW234069   0.128   2.185   5.515 -0.1282 -0.2941 -0.1642
11167SOL     OW34070   7.077   3.104   5.297  0.0277  0.0225  0.6065
11167SOL    HW134071   7.134   3.028   5.310  0.9366  0.0785 -2.3026
11167SOL    HW234072   7.127   3.162   5.240 -0.1336  3.4985  3.6215
11168SOL     OW34073   2.561   6.112   2.365 -0.0193 -0.0632  0.2643
11168SOL    HW134074   2.470   6.140   2.367  0.1281  0.4376  2.2536
11168SOL    HW234075   2.557   6.017   2.349 -0.8849 -0.0274  0.2335
11169SOL     OW34076   1.921   3.451   6.547  0.2133  0.4803  0.6520
11169SOL    HW134077   1.887   3.395   6.617 -1.1258 -0.5054 -0.7171
11169SOL    HW234078   2.014   3.433   6.544  0.1370 -0.1242  1.5897
11170SOL     OW34079   5.279   1.626   4.057 -0.0549  0.0379  1.0399
11170SOL    HW134080   5.360   1.672   4.080  0.4293 -0.1396 -0.1707
11170SOL    HW234081   5.286   1.614   3.962 -2.0776  1.0764  0.7191
11171SOL     OW34082   4.652   0.098   1.451  0.4017  0.1693 -0.0087
11171SOL    HW134083   4.671   0.018   1.402 -0.7693  0.4074 -0.9071
11171SOL    HW234084   4.618   0.067   1.535  2.1496 -0.2442  0.5824
11172SOL     OW34085   0.995   1.333   4.021 -0.1102 -0.2826 -0.1402
11172SOL    HW134086   1.089   1.319   4.035  0.2955  0.1151 -2.1532
11172SOL    HW234087   0.978   1.421   4.055  0.2307 -0.3435  0.1995
11173SOL     OW34088   4.801   2.390   5.928  0.0704 -0.4076 -0.3195
11173SOL    HW134089   4.859   2.459   5.960  0.6499 -0.7903 -0.5284
11173SOL    HW234090   4.770   2.421   5.843  0.7394 -0.6260 -0.6503
11174SOL     OW34091   5.756   7.234   2.651 -0.4817  0.1614  0.2184
11174SOL    HW134092   5.698   7.291   2.700 -0.0632  0.4682  0.3626
11174SOL    HW234093   5.728   7.242   2.560 -1.7905 -1.0298  0.4753
11175SOL     OW34094   3.062   5.865   0.133  0.1238  0.3537  0.4357
11175SOL    HW134095   3.099   5.819   0.057  0.5040  2.0495 -0.4724
11175SOL    HW234096   3.058   5.799   0.202  2.7846 -0.4861 -0.1027
11176SOL     OW34097   4.437   5.011   6.770 -0.2194  0.4664  0.3103
11176SOL    HW134098   4.348   4.975   6.777 -0.6576  1.6569  1.0924
11176SOL    HW234099   4.428   5.086   6.712  0.6448 -0.4827 -1.1006
11177SOL     OW34100   1.604   1.779   2.227 -0.5241  0.0815  0.0119
11177SOL    HW134101   1.563   1.704   2.184  1.0955 -0.7908 -0.1027
11177SOL    HW234102   1.558   1.787   2.311 -0.6234 -1.1478  0.0899
11178SOL     OW34103   5.344   1.558   3.416 -0.0172 -0.5099  0.0719
11178SOL    HW134104   5.367   1.513   3.334 -0.2642 -0.5798  0.0416
11178SOL    HW234105   5.266   1.513   3.447 -0.4802  0.1418 -0.1438
11179SOL     OW34106   7.050   5.043   4.110  0.0584  0.4059  0.9261
11179SOL    HW134107   7.072   5.105   4.040  0.5445  1.2861  1.8332
11179SOL    HW234108   7.098   5.076   4.187 -0.7999 -0.2914  1.7766
11180SOL     OW34109   0.986   0.509   1.084  0.3246  0.0485 -0.0369
11180SOL    HW134110   0.991   0.505   0.989  2.1131  1.9577 -0.0837
11180SOL    HW234111   1.076   0.521   1.113  0.0157 -1.9488  2.0454
11181SOL     OW34112   4.908   6.400   1.051  0.8509  0.4324  0.3680
11181SOL    HW134113   4.844   6.460   1.089 -0.2819  0.4897 -1.5021
11181SOL    HW234114   4.930   6.440   0.966  1.0917 -1.1225 -0.3242
11182SOL     OW34115   0.529   1.291   3.306  0.1328 -0.3035  0.0221
11182SOL    HW134116   0.508   1.286   3.213 -0.1365  2.2012 -0.1072
11182SOL    HW234117   0.488   1.372   3.336  2.5543  0.4192  1.6725
11183SOL     OW34118   1.223   1.832   5.592 -0.4742  0.9768  0.1608
11183SOL    HW134119   1.193   1.796   5.508 -0.0261  1.3482 -0.1632
11183SOL    HW234120   1.152   1.890   5.619 -0.9018  0.3756  0.3576
11184SOL     OW34121   6.456   7.021   1.152  0.2294 -0.1669  0.7494
11184SOL    HW134122   6.375   6.984   1.189 -0.6518  0.3094 -0.6149
11184SOL    HW234123   6.506   6.945   1.124 -1.4062 -0.4625 -1.7090
11185SOL     OW34124   6.931   0.443   1.422  0.3787  0.3574 -0.0611
11185SOL    HW134125   6.856   0.409   1.470 -0.3630  1.0663 -0.6829
11185SOL    HW234126   6.903   0.530   1.392  1.0459  0.1969 -1.2146
11186SOL     OW34127   3.805   1.618   1.685 -0.0557 -0.2693 -0.1264
11186SOL    HW134128   3.760   1.666   1.615  1.4132  1.7095  0.1805
11186SOL    HW234129   3.747   1.628   1.761 -0.0299  0.5944 -0.2068
11187SOL     OW34130   0.350   7.111   5.722  0.7401  0.4782  0.6580
11187SOL    HW134131   0.347   7.206   5.712 -1.1269  0.4919  0.8654
11187SOL    HW234132   0.317   7.078   5.638  0.5247  0.0567  0.9042
11188SOL     OW34133   2.962   7.283   1.470 -1.1541  0.4376 -0.3822
11188SOL    HW134134   3.038   7.319   1.517 -1.1119  0.6050 -0.5799
11188SOL    HW234135   2.925   7.219   1.531 -0.4665 -0.1315 -0.5465
11189SOL     OW34136   1.628   5.071   2.614  0.2387  0.1776 -0.0498
11189SOL    HW134137   1.563   5.001   2.617 -0.8029  1.0211 -1.4066
11189SOL    HW234138   1.692   5.041   2.548  1.5374 -0.8531  1.6019
11190SOL     OW34139   7.265   5.877   2.108  0.3687  0.0589 -0.1152
11190SOL    HW134140   7.173   5.892   2.085  0.5763  0.0095 -1.0427
11190SOL    HW234141   7.313   5.935   2.049  0.9160  0.4165  0.6800
11191SOL     OW34142   4.710   3.793   3.054  0.0461  0.4094 -0.7115
11191SOL    HW134143   4.805   3.795   3.065  0.4087  1.4975 -3.2673
11191SOL    HW234144   4.686   3.700   3.060  1.3717  0.0593 -0.6501
11192SOL     OW34145   1.136   5.088   3.761  0.2414 -0.6661  0.4081
11192SOL    HW134146   1.210   5.032   3.737  1.7034  1.4028 -0.2329
11192SOL    HW234147   1.141   5.094   3.856  1.9560  0.6801  0.2966
11193SOL     OW34148   1.297   7.387   0.732  0.6784  0.2504  0.0930
11193SOL    HW134149   1.238   7.448   0.687  0.2107 -0.1727  0.1238
11193SOL    HW234150   1.308   7.314   0.672  0.3793 -0.1270  0.4917
11194SOL     OW34151   2.299   5.097   0.985  0.1091  0.2163  0.0367
11194SOL    HW134152   2.303   5.050   0.901  1.7196  0.7383 -0.2143
11194SOL    HW234153   2.228   5.160   0.973  1.1057  1.1375 -1.4309
11195SOL     OW34154   6.667   2.880   1.770  0.0806 -0.1476  0.5658
11195SOL    HW134155   6.581   2.838   1.769  0.4970 -1.0342 -1.3762
11195SOL    HW234156   6.719   2.825   1.828 -0.0751 -0.8819  0.0231
11196SOL     OW34157   2.326   6.650   0.240  0.1675 -0.1823 -0.1404
11196SOL    HW134158   2.377   6.613   0.312  0.3795  1.4879  0.6076
11196SOL    HW234159   2.238   6.612   0.251  0.5524 -1.0145  0.1465
11197SOL     OW34160   6.232   7.036   6.671  0.1632 -0.5809  0.2405
11197SOL    HW134161   6.317   7.045   6.712  1.0208 -1.4557 -1.2557
11197SOL    HW234162   6.250   7.045   6.577 -1.1580 -2.2517 -0.2126
11198SOL     OW34163   2.265   0.691   0.963 -0.1088  0.4296 -0.4922
11198SOL    HW134164   2.298   0.660   0.879  0.7953  1.1472 -0.4121
11198SOL    HW234165   2.342   0.723   1.009 -0.5791  0.0014  0.6395
11199SOL     OW34166   7.435   5.065   7.079 -0.0494  0.0767 -0.3967
11199SOL    HW134167   7.416   5.158   7.090  0.2492  0.1443 -0.4350
11199SOL    HW234168   7.390   5.040   6.999 -2.2052 -0.4029  0.8675
11200SOL     OW34169   2.738   6.112   4.078  0.1905 -0.1694 -0.6049
11200SOL    HW134170   2.707   6.203   4.081  0.2127 -0.1876  0.7584
11200SOL    HW234171   2.766   6.093   4.168  0.5487 -1.4046 -0.9572
11201SOL     OW34172   5.075   3.326   3.812 -0.0066 -0.0013 -0.2826
11201SOL    HW134173   5.151   3.272   3.792  0.0904 -0.0189  0.1285
11201SOL    HW234174   5.001   3.277   3.775  0.2956  0.5729 -1.6943
11202SOL     OW34175   5.848   4.758   3.307 -0.4763  0.0125  0.4933
11202SOL    HW134176   5.936   4.750   3.345  0.3487  2.7519 -0.6310
11202SOL    HW234177   5.790   4.768   3.383 -0.2381 -3.7967  1.3818
11203SOL     OW34178   1.056   6.055   5.278 -0.1099  0.4824 -0.5589
11203SOL    HW134179   0.998   6.053   5.203 -0.8133  1.4576 -0.0608
11203SOL    HW234180   0.997   6.065   5.354  0.5848 -0.3510  0.1144
11204SOL     OW34181   0.503   1.675   4.693  0.6160  0.0345 -0.0036
11204SOL    HW134182   0.478   1.690   4.601 -0.0275  2.5026  0.5181
11204SOL    HW234183   0.482   1.582   4.708 -0.5669 -0.0729 -1.9534
11205SOL     OW34184   0.621   1.875   7.192 -0.0380  0.3350 -0.1505
11205SOL    HW134185   0.587   1.786   7.182  0.0481 -0.2178  3.1996
11205SOL    HW234186   0.715   1.867   7.176  0.0377 -0.3162  0.5354
11206SOL     OW34187   5.565   2.386   1.184 -0.0907  0.2236 -0.2519
11206SOL    HW134188   5.642   2.351   1.140 -0.0050 -0.6535  0.5709
11206SOL    HW234189   5.511   2.309   1.204  0.2006  0.4983  1.7847
11207SOL     OW34190   2.091   3.103   1.716  0.1504 -0.6569  0.2176
11207SOL    HW134191   2.118   3.153   1.793 -0.0941  0.0600 -0.1508
11207SOL    HW234192   2.159   3.121   1.651 -1.0954  1.1023 -0.6941
11208SOL     OW34193   4.344   0.040   0.926  0.9084  0.4525 -0.3009
11208SOL    HW134194   4.307   0.055   1.013 -0.7989  1.2273 -1.1125
11208SOL    HW234195   4.304  -0.042   0.897 -0.2009  1.2723 -1.1711
11209SOL     OW34196   3.562   6.306   1.347  0.2637 -0.4311 -0.9758
11209SOL    HW134197   3.567   6.227   1.293  0.6565  0.4857 -2.3383
11209SOL    HW234198   3.616   6.370   1.300 -0.0369  0.6438  0.1061
11210SOL     OW34199   2.254   4.844   1.111 -0.4433 -0.1234 -0.3755
11210SOL    HW134200   2.274   4.927   1.067 -0.8780 -0.2339 -0.7910
11210SOL    HW234201   2.338   4.815   1.146  0.0744 -0.4116 -1.7999
11211SOL     OW34202   7.318   4.030   5.782 -0.5330  0.0862  0.0519
11211SOL    HW134203   7.329   3.960   5.846  0.9301  0.1225 -0.1159
11211SOL    HW234204   7.406   4.042   5.745 -0.3583  3.0252  1.1356
11212SOL     OW34205   0.421   0.285   5.827 -0.5765  0.0559 -0.2256
11212SOL    HW134206   0.504   0.326   5.854 -0.7480  0.1167  0.2246
11212SOL    HW234207   0.432   0.269   5.733 -0.1784  0.3562 -0.2364
11213SOL     OW34208   1.644   4.306   5.276 -0.4034 -0.4567  0.1501
11213SOL    HW134209   1.725   4.256   5.282 -0.5320 -0.5897  0.9085
11213SOL    HW234210   1.651   4.372   5.345 -0.5115  0.1680 -0.4300
11214SOL     OW34211   2.652   1.529   2.347  0.1370  0.2113 -0.1733
11214SOL    HW134212   2.633   1.494   2.435 -0.5838  0.9686 -0.0122
11214SOL    HW234213   2.619   1.462   2.287  0.1729 -0.0830  0.1316
11215SOL     OW34214   6.153   1.471   5.012 -0.3211 -0.1113  0.0495
11215SOL    HW134215   6.136   1.557   4.974 -0.8278  0.2643  1.0975
11215SOL    HW234216   6.212   1.488   5.085 -0.3972 -0.6612  0.2450
11216SOL     OW34217   7.406   0.169   4.983  0.1105 -0.0118 -0.3546
11216SOL    HW134218   7.388   0.108   4.911  0.3027 -1.1699  0.5449
11216SOL    HW234219   7.320   0.203   5.008  0.1342  1.1607 -1.7455
11217SOL     OW34220   6.154   3.032   5.300 -0.4823 -0.3307 -0.1563
11217SOL    HW134221   6.218   2.982   5.249  1.5372 -0.1799  2.0375
11217SOL    HW234222   6.146   3.116   5.254 -0.1479 -0.8540 -1.1903
11218SOL     OW34223   6.331   6.047   3.302  0.4774 -0.6073  0.0250
11218SOL    HW134224   6.364   6.002   3.379  0.3817 -0.5198  0.1161
11218SOL    HW234225   6.407   6.094   3.267  0.5877 -0.8694 -0.0936
11219SOL     OW34226   4.682   0.828   3.619  0.3159  0.0129 -0.0843
11219SOL    HW134227   4.603   0.779   3.642  1.7039 -1.4712  1.7931
11219SOL    HW234228   4.656   0.879   3.542 -2.1354 -1.2315 -0.1921
11220SOL     OW34229   6.528   0.522   5.895 -0.2292 -0.1123  0.4377
11220SOL    HW134230   6.584   0.544   5.969 -1.8281 -0.0559  1.6814
11220SOL    HW234231   6.439   0.540   5.925 -1.0454 -1.4582 -0.9842
11221SOL     OW34232   4.342   5.713   2.795  0.0358  0.0541 -0.0346
11221SOL    HW134233   4.331   5.618   2.788 -0.8361  0.1164  0.2841
11221SOL    HW234234   4.254   5.745   2.817  0.2415  0.9688 -0.5033
11222SOL     OW34235   6.092   4.611   6.582 -0.0005 -0.0908  0.3742
11222SOL    HW134236   6.165   4.596   6.522 -1.0193 -0.7729 -0.7425
11222SOL    HW234237   6.101   4.542   6.648  0.6095  0.0972  0.4878
11223SOL     OW34238   2.751   4.031   3.415  0.1242 -0.0460  0.3371
11223SOL    HW134239   2.804   4.012   3.492  3.1450  2.6472 -0.8591
11223SOL    HW234240   2.789   3.978   3.346  1.0660  1.5798 -0.4392
11224SOL     OW34241   7.362   7.307   3.130  0.0239  0.2702  0.3568
11224SOL    HW134242   7.436   7.255   3.164 -0.3161  0.3842  1.3109
11224SOL    HW234243   7.291   7.243   3.119  0.3612  0.0883 -0.9395
11225SOL     OW34244   1.823   0.647   1.386  0.4645 -0.1756  0.4596
11225SOL    HW134245   1.905   0.680   1.348  0.8248 -0.2201  1.1685
11225SOL    HW234246   1.804   0.567   1.336  0.9746 -0.2812  0.4264
11226SOL     OW34247   3.689   6.676   0.167 -0.2258  0.0617  0.3373
11226SOL    HW134248   3.771   6.630   0.148 -1.4871 -2.2567  0.1056
11226SOL    HW234249   3.638   6.614   0.219 -1.8383  1.4497  0.5121
11227SOL     OW34250   6.623   0.294   6.836 -0.1742  0.6609 -0.1356
11227SOL    HW134251   6.606   0.359   6.768 -3.0977  0.9303  0.6879
11227SOL    HW234252   6.619   0.343   6.918 -1.4240 -0.3286  0.4366
11228SOL     OW34253   1.418   5.564   2.651 -0.3533  0.0781 -0.3630
11228SOL    HW134254   1.461   5.488   2.614 -0.4904  0.0556 -0.4740
11228SOL    HW234255   1.365   5.530   2.723 -0.1625  0.1099 -0.2059
11229SOL     OW34256   4.618   6.120   6.057  0.1253  0.4311  0.6531
11229SOL    HW134257   4.535   6.104   6.104 -0.8161  3.0047 -0.0023
11229SOL    HW234258   4.611   6.065   5.979  0.6320 -2.0116  2.1889
11230SOL     OW34259   6.726   5.695   2.753 -0.3837 -0.0757 -0.1912
11230SOL    HW134260   6.771   5.635   2.812 -0.0596  0.8011  0.4877
11230SOL    HW234261   6.642   5.712   2.796  0.3300  1.5114  0.7015
11231SOL     OW34262   0.086   7.433   0.449  0.1831 -0.3310 -0.4259
11231SOL    HW134263   0.094   7.386   0.532  0.6755 -2.0163 -1.3877
11231SOL    HW234264  -0.005   7.418   0.422  0.5978 -1.5492 -1.1857
11232SOL     OW34265   2.883   3.481   5.357 -0.0371 -0.6074  0.1924
11232SOL    HW134266   2.868   3.387   5.353  0.2462 -0.6051 -1.9086
11232SOL    HW234267   2.964   3.495   5.308 -0.5191  0.8058 -0.2602
11233SOL     OW34268   7.402   7.212   6.315 -0.2421  0.3821  0.0974
11233SOL    HW134269   7.475   7.273   6.310 -0.5855  0.9433  1.6340
11233SOL    HW234270   7.342   7.240   6.246  0.3195  0.8014 -0.2265
11234SOL     OW34271   0.847   5.713   2.624 -0.0072  0.3020  0.1001
11234SOL    HW134272   0.769   5.743   2.671  0.9452  1.0660  1.2481
11234SOL    HW234273   0.816   5.640   2.570 -1.2157 -0.4013  1.6818
11235SOL     OW34274   0.909   6.353   6.474  0.2827 -0.3231 -0.6787
11235SOL    HW134275   0.957   6.348   6.557  1.8120  1.9835 -1.3306
11235SOL    HW234276   0.910   6.263   6.441  1.9246 -0.8279  0.5754
11236SOL     OW34277   6.987   2.541   6.018 -0.9177  0.3580  0.1112
11236SOL    HW134278   7.016   2.558   5.928 -1.7658  2.8063  0.2249
11236SOL    HW234279   6.893   2.526   6.011 -0.7510 -1.0034  0.4632
11237SOL     OW34280   4.758   0.196   1.811  0.0756 -0.0587 -0.1098
11237SOL    HW134281   4.772   0.124   1.872  0.2064 -0.5813 -0.7460
11237SOL    HW234282   4.798   0.166   1.729 -1.6441 -0.1098 -0.9691
11238SOL     OW34283   6.664   5.800   3.913 -0.4065 -0.1136  0.1473
11238SOL    HW134284   6.697   5.723   3.866 -0.6871 -0.9024  1.2120
11238SOL    HW234285   6.634   5.766   3.997  1.8132  1.5350  1.7100
11239SOL     OW34286   6.451   5.942   2.562 -0.0767  0.0550 -0.2383
11239SOL    HW134287   6.378   5.903   2.610  1.1261 -1.5883  0.3564
11239SOL    HW234288   6.434   5.919   2.471 -0.7440  0.4824 -0.2363
11240SOL     OW34289   2.205   3.158   4.785 -0.1338  0.1979  0.2191
11240SOL    HW134290   2.283   3.213   4.778 -0.5991  0.9849  0.9865
11240SOL    HW234291   2.235   3.071   4.760  1.1058  0.3915  0.9363
11241SOL     OW34292   5.086   1.881   1.668  0.1415 -0.5056 -0.1297
11241SOL    HW134293   5.063   1.869   1.760 -0.2641  1.1409  0.0224
11241SOL    HW234294   5.012   1.930   1.631  1.6492  1.6198 -0.5395
11242SOL     OW34295   2.380   5.895   1.029  0.6447 -0.0107  0.1282
11242SOL    HW134296   2.369   5.947   0.950 -0.4706 -2.1959 -1.2698
11242SOL    HW234297   2.394   5.806   0.997 -1.3107 -1.2544  2.3612
11243SOL     OW34298   1.849   6.994   4.435 -0.6415  0.4846  0.1426
11243SOL    HW134299   1.777   7.053   4.456  0.5894  1.7678  0.9249
11243SOL    HW234300   1.924   7.052   4.419 -0.0392 -0.7431 -1.8011
11244SOL     OW34301   6.583   7.300   6.863  0.2176 -0.1633 -0.1388
11244SOL    HW134302   6.578   7.318   6.769 -0.4575  0.8620  0.0787
11244SOL    HW234303   6.649   7.231   6.871  1.1051  0.5372 -1.2594
11245SOL     OW34304   4.243   4.635   6.948  0.0596 -0.0494 -0.6058
11245SOL    HW134305   4.299   4.711   6.966 -0.3449  0.2955 -0.7900
11245SOL    HW234306   4.193   4.623   7.029  0.0643 -0.0674 -0.6055
11246SOL     OW34307   1.113   7.062   4.371  0.0283  0.2885 -0.0207
11246SOL    HW134308   1.208   7.058   4.357  0.2779 -0.4434  1.6898
11246SOL    HW234309   1.092   6.983   4.419 -1.2947  0.9272  0.4996
11247SOL     OW34310   0.235   3.730   2.540  0.5304 -0.1534 -0.3017
11247SOL    HW134311   0.214   3.737   2.633  1.2079 -0.2304 -0.1397
11247SOL    HW234312   0.250   3.636   2.526 -0.8798 -0.3290 -0.7831
11248SOL     OW34313   1.653   2.549   3.477 -0.5902  0.2281 -0.2868
11248SOL    HW134314   1.650   2.619   3.412  0.3001  0.3298 -0.2445
11248SOL    HW234315   1.616   2.473   3.433 -1.0883  0.5948 -0.5093
11249SOL     OW34316   5.906   4.380   6.945  0.2562  0.2439  0.8196
11249SOL    HW134317   5.867   4.298   6.915 -0.6209  0.1653  2.0990
11249SOL    HW234318   5.888   4.442   6.875  1.6479 -0.8048 -0.5589
11250SOL     OW34319   1.758   5.993   3.258 -0.1219  0.4889 -0.3240
11250SOL    HW134320   1.821   6.052   3.299 -1.2626  0.0131  2.3388
11250SOL    HW234321   1.697   6.051   3.212 -0.2321  1.2856  0.7829
11251SOL     OW34322   6.347   3.209   1.450 -0.5701 -0.5720  0.0169
11251SOL    HW134323   6.260   3.207   1.411 -0.0107  0.1627 -1.3414
11251SOL    HW234324   6.332   3.194   1.543 -2.2891  0.9468  0.0457
11252SOL     OW34325   1.391   4.581   4.242 -0.1566  0.0168 -0.3090
11252SOL    HW134326   1.414   4.488   4.246 -0.6332 -0.0681  0.6416
11252SOL    HW234327   1.370   4.596   4.150  0.3561 -0.7079 -0.5582
11253SOL     OW34328   0.956   7.282   0.260 -0.4105  0.2201  0.0597
11253SOL    HW134329   0.871   7.249   0.289 -0.0538 -1.2156 -0.4468
11253SOL    HW234330   0.971   7.239   0.176  0.6827  0.6710  0.0083
11254SOL     OW34331   5.575   2.072   5.437  0.1773 -0.0811 -0.5768
11254SOL    HW134332   5.633   1.997   5.433  0.3073  0.0620 -1.8129
11254SOL    HW234333   5.503   2.051   5.377 -1.2611 -0.4078  1.1827
11255SOL     OW34334   2.016   5.772   6.621  0.2803 -0.2556 -0.1138
11255SOL    HW134335   2.074   5.827   6.674 -0.7345  1.4448 -0.7044
11255SOL    HW234336   1.951   5.739   6.684  0.6016 -0.3607  0.1617
11256SOL     OW34337   2.066   4.836   4.305 -0.2384 -0.3231 -0.9828
11256SOL    HW134338   2.079   4.881   4.221 -1.1401 -0.9989 -1.5050
11256SOL    HW234339   1.989   4.781   4.291  0.3216 -1.3787 -0.0905
11257SOL     OW34340   0.180   4.137   5.404 -0.7968 -0.1148 -0.2278
11257SOL    HW134341   0.243   4.166   5.470 -0.7849 -0.8023  0.0659
11257SOL    HW234342   0.181   4.042   5.410 -2.7160 -0.1313  0.6131
11258SOL     OW34343   7.002   4.957   0.336  0.0335  0.0886 -0.2052
11258SOL    HW134344   6.940   5.018   0.374 -0.2791  0.2940 -1.0149
11258SOL    HW234345   6.979   4.872   0.375  0.7511  0.5360  1.2460
11259SOL     OW34346   2.282   3.172   3.256  0.3297  0.0949 -0.8374
11259SOL    HW134347   2.370   3.181   3.292 -0.4640  1.5568  0.9364
11259SOL    HW234348   2.273   3.079   3.236  1.5703 -0.4447  0.8764
11260SOL     OW34349   3.357   4.987   5.015 -0.8582  0.0799  0.1180
11260SOL    HW134350   3.323   5.010   4.928 -0.8558 -1.6699 -0.3966
11260SOL    HW234351   3.356   4.891   5.016  1.7051 -0.0126  1.0315
11261SOL     OW34352   6.539   0.485   2.468 -0.5791  0.3591  0.7179
11261SOL    HW134353   6.594   0.496   2.390 -2.3934  0.6390 -0.5872
11261SOL    HW234354   6.450   0.477   2.433 -1.4719  0.7550  2.7862
11262SOL     OW34355   4.726   2.713   6.836 -0.2363 -0.6169  0.3112
11262SOL    HW134356   4.821   2.720   6.843 -0.1656 -1.7806  0.8235
11262SOL    HW234357   4.695   2.803   6.837  0.7655 -0.2475  1.7487
11263SOL     OW34358   5.635   5.996   1.939 -0.2213 -0.1848 -0.1431
11263SOL    HW134359   5.694   6.039   1.877 -1.2543 -0.7407 -1.5888
11263SOL    HW234360   5.583   6.067   1.976  0.9895  0.2534  0.7932
11264SOL     OW34361   4.258   6.627   0.085 -0.2639 -0.9533  0.6880
11264SOL    HW134362   4.310   6.607   0.007 -2.1082  0.2066 -0.9382
11264SOL    HW234363   4.267   6.722   0.096 -2.3521 -0.6204  0.0285
11265SOL     OW34364   0.223   5.414   5.291 -0.0704  0.2319 -0.3372
11265SOL    HW134365   0.204   5.506   5.311  0.7779  0.6269 -1.2901
11265SOL    HW234366   0.154   5.388   5.229 -0.3365  0.2006 -0.0333
11266SOL     OW34367   0.722   5.393   1.637 -0.5521  0.3848 -0.9026
11266SOL    HW134368   0.713   5.479   1.596  2.1329  1.5971  0.7906
11266SOL    HW234369   0.761   5.338   1.569  2.3208  1.9133 -0.6109
11267SOL     OW34370   1.433   6.671   7.373 -0.0415  0.4354 -0.0272
11267SOL    HW134371   1.414   6.749   7.425 -1.7979 -0.5251  0.8652
11267SOL    HW234372   1.356   6.662   7.316 -0.2220 -1.0526  0.4279
11268SOL     OW34373   5.805   4.707   6.244  0.5909  0.6100  0.2088
11268SOL    HW134374   5.837   4.643   6.181 -1.0462 -2.2324  2.0397
11268SOL    HW234375   5.711   4.712   6.227  0.4226  1.2021  1.2166
11269SOL     OW34376   3.924   4.950   5.827  0.3477 -0.0843  0.3251
11269SOL    HW134377   3.943   5.010   5.899  0.5974 -0.5556  0.6572
11269SOL    HW234378   3.901   4.867   5.870  1.4199 -0.6454 -0.1375
11270SOL     OW34379   3.911   2.502   0.035  0.2806  0.4864 -0.1334
11270SOL    HW134380   3.875   2.502  -0.054  0.5257 -1.5940 -0.2882
11270SOL    HW234381   3.837   2.525   0.091 -0.1581  0.6868 -0.7854
11271SOL     OW34382   3.845   0.279   7.259  0.0158 -0.2643  0.2873
11271SOL    HW134383   3.764   0.283   7.310 -0.7667  0.7704 -0.9738
11271SOL    HW234384   3.897   0.353   7.292  0.5840 -1.0826  1.2762
11272SOL     OW34385   4.483   0.788   4.405 -0.2549 -0.0771  0.3946
11272SOL    HW134386   4.422   0.721   4.375 -0.4869 -1.8479  4.2167
11272SOL    HW234387   4.430   0.847   4.459  0.6898  0.7293  0.4743
11273SOL     OW34388   1.080   1.749   4.325 -0.5083  0.3233 -0.3644
11273SOL    HW134389   1.131   1.820   4.285 -1.4401  0.8548 -0.6273
11273SOL    HW234390   1.141   1.676   4.329 -0.2014  0.4453 -2.1690
11274SOL     OW34391   1.802   0.398   1.578 -0.1772 -0.1964 -0.9265
11274SOL    HW134392   1.817   0.378   1.485 -1.1725 -0.7369 -0.9765
11274SOL    HW234393   1.735   0.336   1.606  0.3766 -0.2832  0.2609
11275SOL     OW34394   0.681   5.578   0.500 -0.1293 -0.8478  0.5145
11275SOL    HW134395   0.603   5.577   0.444 -0.8945 -0.9471  1.5611
11275SOL    HW234396   0.751   5.609   0.442 -0.9625 -0.6275 -0.4087
11276SOL     OW34397   7.084   1.923   6.790 -0.6656 -0.4198 -0.0576
11276SOL    HW134398   7.047   1.970   6.716 -0.3851  1.3511  0.8682
11276SOL    HW234399   7.025   1.849   6.804 -0.0369 -1.5497 -2.7801
11277SOL     OW34400   4.140   4.033   3.910 -0.0318 -0.2722  0.3935
11277SOL    HW134401   4.194   3.954   3.922  0.7805  0.0594 -0.8691
11277SOL    HW234402   4.051   4.004   3.928  0.2617 -1.4746  0.0095
11278SOL     OW34403   6.931   5.223   6.708  0.6948 -0.2415  0.0705
11278SOL    HW134404   6.925   5.134   6.676 -2.0237  0.0782 -0.5002
11278SOL    HW234405   6.976   5.215   6.792  0.8513 -2.0623 -0.1432
11279SOL     OW34406   2.552   3.595   1.601 -0.1555 -0.3996 -1.0870
11279SOL    HW134407   2.557   3.500   1.592  0.8202 -0.4748 -0.1045
11279SOL    HW234408   2.559   3.629   1.512  0.9292 -1.2235 -1.3376
11280SOL     OW34409   3.247   1.907   4.414  0.0365 -0.5238 -0.0189
11280SOL    HW134410   3.205   1.982   4.457  0.8961 -1.0343  1.7504
11280SOL    HW234411   3.176   1.844   4.402 -0.1597 -0.4847  0.9088
11281SOL     OW34412   1.158   2.386   3.046 -0.2862  0.1706 -0.0225
11281SOL    HW134413   1.200   2.470   3.024  1.3899 -0.2277  1.4235
11281SOL    HW234414   1.118   2.357   2.964  0.2877  1.7210 -0.8953
11282SOL     OW34415   0.714   5.198   5.122  0.1770 -0.5099 -0.1935
11282SOL    HW134416   0.685   5.262   5.187 -0.1438  0.7372 -1.5158
11282SOL    HW234417   0.635   5.178   5.071  0.5842 -0.8289 -0.7138
11283SOL     OW34418   6.537   4.627   5.282  0.0211  0.0660 -0.3023
11283SOL    HW134419   6.441   4.633   5.286 -0.0843 -1.4144  0.0015
11283SOL    HW234420   6.560   4.574   5.358  0.7757 -2.3894 -2.1097
11284SOL     OW34421   1.597   5.529   1.976  0.1145 -0.0084 -0.1712
11284SOL    HW134422   1.674   5.477   2.000 -0.1307  0.0341  0.7201
11284SOL    HW234423   1.523   5.478   2.007 -0.3790 -0.9643 -2.6430
11285SOL     OW34424   3.111   2.588   7.354  0.1032 -0.1254  0.0447
11285SOL    HW134425   3.172   2.621   7.289 -0.3866  0.7024 -0.0106
11285SOL    HW234426   3.163   2.531   7.410  0.9340  0.6023  0.0282
11286SOL     OW34427   1.131   1.634   1.405 -0.0264  0.1028  0.5468
11286SOL    HW134428   1.122   1.657   1.312  0.6403  0.7463  0.6413
11286SOL    HW234429   1.044   1.652   1.442 -0.6513 -1.2426 -0.1658
11287SOL     OW34430   3.625   3.846   6.749  0.5895 -0.1831  0.0440
11287SOL    HW134431   3.562   3.917   6.765  1.7941  0.6885  1.0760
11287SOL    HW234432   3.571   3.767   6.745 -0.5529  0.4758  1.3802
11288SOL     OW34433   1.578   2.664   4.253  0.1361 -0.5883 -0.5227
11288SOL    HW134434   1.487   2.637   4.266 -0.6153  1.8929 -0.1247
11288SOL    HW234435   1.588   2.742   4.308  2.1553 -0.1253 -1.4585
11289SOL     OW34436   7.226   2.506   4.686  0.1702 -0.2883 -0.1041
11289SOL    HW134437   7.160   2.568   4.654  0.1201 -0.7251 -0.8741
11289SOL    HW234438   7.302   2.561   4.705 -0.8064  0.4425  2.1481
11290SOL     OW34439   1.998   1.680   4.785 -0.4511 -0.3416 -0.1432
11290SOL    HW134440   2.060   1.676   4.713 -0.1747 -1.4334  0.1313
11290SOL    HW234441   2.042   1.635   4.857  0.5915  3.3689  1.7966
11291SOL     OW34442   5.178   2.464   6.451  0.5216  0.1563 -0.7058
11291SOL    HW134443   5.199   2.557   6.442 -2.0149  0.8257 -0.6568
11291SOL    HW234444   5.107   2.449   6.389 -1.0354 -1.0233  1.2006
11292SOL     OW34445   2.287   4.340   1.523  0.0524 -0.4826  0.5426
11292SOL    HW134446   2.309   4.330   1.616  0.7637  0.4398  0.4866
11292SOL    HW234447   2.333   4.420   1.496 -0.8721 -0.2424 -0.3783
11293SOL     OW34448   1.277   0.873   0.802  0.6013  0.2321  0.8807
11293SOL    HW134449   1.324   0.917   0.872  1.6799  1.0112 -0.2998
11293SOL    HW234450   1.187   0.906   0.809  0.3011 -0.8543  2.8049
11294SOL     OW34451   2.255   3.556   6.510 -0.3354  0.3526 -0.2606
11294SOL    HW134452   2.281   3.625   6.449 -0.5978 -0.0746 -0.8661
11294SOL    HW234453   2.317   3.485   6.493 -0.1094  0.4050  0.3122
11295SOL     OW34454   3.720   5.398   6.761 -0.0700  0.0985  0.0551
11295SOL    HW134455   3.710   5.363   6.672  0.0101 -0.5769  0.3021
11295SOL    HW234456   3.707   5.492   6.752 -0.9745 -0.0737 -0.5295
11296SOL     OW34457   3.261   0.144   3.795 -0.3862 -0.0428  0.3842
11296SOL    HW134458   3.175   0.116   3.829 -0.5706 -0.0998 -0.1240
11296SOL    HW234459   3.251   0.141   3.700 -0.5468  2.1275  0.2753
11297SOL     OW34460   0.456   2.699   3.643 -0.6006 -0.1172 -0.3659
11297SOL    HW134461   0.489   2.785   3.619 -1.7378  0.2913 -0.5628
11297SOL    HW234462   0.523   2.638   3.613  0.8585  0.7561  0.9946
11298SOL     OW34463   5.074   2.622   2.007  0.5478 -0.4743  0.3765
11298SOL    HW134464   5.090   2.576   2.089 -1.4211  1.3972  1.9172
11298SOL    HW234465   5.135   2.696   2.008  0.4224 -0.3684  0.2206
11299SOL     OW34466   5.112   3.388   4.773  0.1402  0.4135  0.0989
11299SOL    HW134467   5.115   3.392   4.869 -0.4010  1.4184  0.0953
11299SOL    HW234468   5.197   3.355   4.747 -0.2210 -1.3387  0.9822
11300SOL     OW34469   0.644   3.997   7.190 -0.1340  0.2532 -0.3443
11300SOL    HW134470   0.560   3.955   7.206  0.2988 -0.7769 -0.7013
11300SOL    HW234471   0.623   4.090   7.181 -1.2871 -0.0341 -0.8226
11301SOL     OW34472   2.780   6.945   4.472 -0.7484 -0.1151 -0.3462
11301SOL    HW134473   2.733   7.027   4.486 -1.4649 -0.3182 -1.4000
11301SOL    HW234474   2.715   6.877   4.486 -0.7343 -0.4115 -1.5924
11302SOL     OW34475   5.583   3.195   6.963  0.3257 -0.1664 -0.1997
11302SOL    HW134476   5.644   3.229   7.028  0.0667 -0.0332 -0.0248
11302SOL    HW234477   5.582   3.100   6.978  0.2067 -0.1274  0.0406
11303SOL     OW34478   6.093   0.962   5.076  0.0425  0.3212 -0.2069
11303SOL    HW134479   6.106   0.898   5.146  0.3009  0.4704 -0.1186
11303SOL    HW234480   6.180   0.980   5.042  0.0070  0.8470 -0.0344
11304SOL     OW34481   4.590   1.208   3.952  0.2848 -0.2423  0.1899
11304SOL    HW134482   4.643   1.188   3.875 -1.2286  1.3540 -1.3688
11304SOL    HW234483   4.533   1.132   3.963 -1.5218  0.6507 -2.1611
11305SOL     OW34484   2.913   3.148   5.972  0.1792  0.3373 -0.1400
11305SOL    HW134485   2.954   3.224   5.930  0.7673 -0.2802 -0.7181
11305SOL    HW234486   2.977   3.120   6.038  0.4645 -0.3171 -0.6870
11306SOL     OW34487   2.641   5.140   0.092 -0.6219  0.8063 -0.2736
11306SOL    HW134488   2.592   5.057   0.095 -0.4029  0.6908  0.2183
11306SOL    HW234489   2.621   5.182   0.176 -1.3745  1.6279 -0.8504
11307SOL     OW34490   7.247   1.840   0.982  0.0354 -0.2421 -0.2016
11307SOL    HW134491   7.317   1.786   0.946  0.8823  0.2755  0.6169
11307SOL    HW234492   7.167   1.800   0.950  0.6724 -1.3918 -0.4138
11308SOL     OW34493   4.276   0.921   5.366 -0.9476 -0.3063 -0.0940
11308SOL    HW134494   4.198   0.883   5.406 -1.2125  1.3416  1.0341
11308SOL    HW234495   4.349   0.886   5.417 -1.2589  1.4482  1.6475
11309SOL     OW34496   3.370   4.546   5.477  0.6215 -0.2982  0.4067
11309SOL    HW134497   3.447   4.549   5.420 -0.6814 -0.8741 -1.4913
11309SOL    HW234498   3.303   4.595   5.429 -0.6535 -1.1249  1.2788
11310SOL     OW34499   2.260   0.012   5.311 -0.0939 -0.1798  0.0069
11310SOL    HW134500   2.230   0.003   5.220 -0.6003  0.5848  0.0893
11310SOL    HW234501   2.335   0.071   5.306 -0.5318  0.4004  0.1517
11311SOL     OW34502   5.519   6.957   3.821 -0.3247 -0.4742  0.2795
11311SOL    HW134503   5.573   6.879   3.835  0.3321  0.2764  2.3191
11311SOL    HW234504   5.431   6.922   3.805  0.4729 -1.6797 -1.8888
11312SOL     OW34505   3.598   6.315   2.248 -0.1673  0.2213  0.3282
11312SOL    HW134506   3.607   6.388   2.187  1.3765 -0.3142 -0.1435
11312SOL    HW234507   3.623   6.352   2.333  1.8450  0.0158 -0.1117
11313SOL     OW34508   5.146   4.736   4.959 -0.7048  0.1593 -0.0853
11313SOL    HW134509   5.192   4.652   4.952 -0.9873 -0.0298  0.2831
11313SOL    HW234510   5.214   4.802   4.944  0.0251 -0.0810  1.8293
11314SOL     OW34511   6.690   3.023   3.197  0.5094  0.3816 -0.0001
11314SOL    HW134512   6.643   3.106   3.186 -0.0878  0.1561  0.8130
11314SOL    HW234513   6.759   3.042   3.261  2.6483  1.1433 -2.3646
11315SOL     OW34514   2.080   6.363   7.255 -0.0729 -0.0573 -0.1669
11315SOL    HW134515   2.133   6.373   7.334 -1.9825 -1.4330  1.4055
11315SOL    HW234516   1.991   6.353   7.288 -0.9438 -0.6312 -2.5278
11316SOL     OW34517   6.975   4.962   6.616 -0.3623  0.4406 -0.0784
11316SOL    HW134518   6.980   4.953   6.521 -0.7551  0.5997 -0.1182
11316SOL    HW234519   6.993   4.874   6.649 -0.4668  0.3296 -0.3119
11317SOL     OW34520   2.686   6.395   0.933 -0.6542  0.5027 -0.5422
11317SOL    HW134521   2.643   6.314   0.961 -0.7672  0.9760  0.7209
11317SOL    HW234522   2.739   6.369   0.857 -2.4716 -0.2699 -1.6185
11318SOL     OW34523   5.944   0.253   2.676 -0.5759  0.5594 -0.1274
11318SOL    HW134524   6.033   0.220   2.689  0.0026  2.1096 -0.0142
11318SOL    HW234525   5.893   0.212   2.746 -0.3544 -1.6279 -1.1385
11319SOL     OW34526   3.935   0.546   4.938 -0.1058 -0.5336 -0.2546
11319SOL    HW134527   3.957   0.453   4.929 -3.0754 -1.4191  0.5180
11319SOL    HW234528   3.960   0.584   4.854  1.1135 -2.0181 -0.6261
11320SOL     OW34529   4.893   7.283   0.578 -0.0902  0.0718  0.2808
11320SOL    HW134530   4.962   7.256   0.639 -2.1608 -0.3037  2.6123
11320SOL    HW234531   4.899   7.378   0.576  0.9781  0.0194 -0.2292
11321SOL     OW34532   3.717   3.715   1.135 -0.1959  0.0950  0.5710
11321SOL    HW134533   3.781   3.659   1.179  0.2227  0.6487  0.6875
11321SOL    HW234534   3.632   3.685   1.168 -0.1585 -1.9178 -1.0404
11322SOL     OW34535   3.387   5.532   6.691 -0.0619 -0.0605  0.5691
11322SOL    HW134536   3.461   5.571   6.644  0.0812 -0.3318  0.5677
11322SOL    HW234537   3.320   5.601   6.692 -0.4330 -0.3636 -0.8518
11323SOL     OW34538   1.057   1.648   6.658  0.2574  0.1789 -0.5152
11323SOL    HW134539   1.066   1.590   6.734 -0.6913  1.2636  0.4472
11323SOL    HW234540   1.000   1.599   6.598  2.8015 -1.6791 -1.6033
11324SOL     OW34541   6.962   4.455   2.289 -0.0036 -0.5030  0.0004
11324SOL    HW134542   6.921   4.420   2.210  0.3839 -1.4468  0.2002
11324SOL    HW234543   6.889   4.483   2.344 -0.2597  0.7238 -0.9284
11325SOL     OW34544   5.332   4.287   0.735 -0.0590  0.0724 -0.1293
11325SOL    HW134545   5.311   4.376   0.708  1.4027  0.4922  0.0466
11325SOL    HW234546   5.395   4.256   0.671  1.5102  0.1710  1.2907
11326SOL     OW34547   0.103   4.448   6.028 -0.2628 -0.5726 -0.0605
11326SOL    HW134548   0.122   4.537   6.001 -1.0723 -0.4338 -0.1982
11326SOL    HW234549   0.134   4.443   6.118 -0.2745 -0.1310 -0.0318
11327SOL     OW34550   6.614   2.239   7.324  0.6748 -0.2796  0.1107
11327SOL    HW134551   6.666   2.316   7.299  0.2167  0.3288  0.9816
11327SOL    HW234552   6.676   2.183   7.371  1.7189 -1.7381 -2.7604
11328SOL     OW34553   6.330   4.974   3.340  0.0839 -0.6722 -0.1789
11328SOL    HW134554   6.309   5.030   3.266  0.7942 -1.4229 -0.9645
11328SOL    HW234555   6.410   5.012   3.377  1.6718 -2.1823 -1.8632
11329SOL     OW34556   1.463   5.977   6.655  0.0210  0.1603 -0.0570
11329SOL    HW134557   1.529   5.959   6.721 -1.3259 -0.5013  1.1447
11329SOL    HW234558   1.447   5.893   6.612 -0.5342  0.1718  0.1229
11330SOL     OW34559   5.726   1.067   3.691  1.0058  0.8036 -0.3217
11330SOL    HW134560   5.655   1.066   3.755 -0.5604 -0.7443 -1.9941
11330SOL    HW234561   5.752   0.976   3.681 -0.6518  0.5745 -3.7836
11331SOL     OW34562   1.303   0.825   0.231  0.2901 -0.1567 -0.3857
11331SOL    HW134563   1.288   0.771   0.309  1.4230  0.1443  0.0659
11331SOL    HW234564   1.360   0.896   0.262 -1.3593  1.4875 -0.8942
11332SOL     OW34565   6.455   3.436   1.235  0.5419 -0.0704  0.4234
11332SOL    HW134566   6.397   3.393   1.298  0.7806  1.1909  1.5632
11332SOL    HW234567   6.543   3.418   1.267  0.7152 -0.4654 -0.2703
11333SOL     OW34568   7.166   6.498   3.448 -0.3311  0.7252  0.5794
11333SOL    HW134569   7.142   6.486   3.355  1.5213  3.0266 -0.2887
11333SOL    HW234570   7.099   6.557   3.482 -0.4841  0.6307  0.4448
11334SOL     OW34571   4.415   6.669   4.828  0.2669  0.0643 -0.6691
11334SOL    HW134572   4.448   6.626   4.750  1.3363 -0.4092  0.0121
11334SOL    HW234573   4.440   6.610   4.900 -0.2923  0.7021  0.0651
11335SOL     OW34574   6.807   5.545   4.750  0.1766 -0.4135  0.4416
11335SOL    HW134575   6.834   5.496   4.673  0.0569 -0.2135  0.2728
11335SOL    HW234576   6.726   5.590   4.724 -0.1118 -0.6997  0.8211
11336SOL     OW34577   6.362   7.239   2.173  0.4282 -0.2215 -0.2904
11336SOL    HW134578   6.337   7.282   2.091  0.1685 -0.6156 -0.4234
11336SOL    HW234579   6.442   7.191   2.153  0.3978 -0.2698 -0.2971
11337SOL     OW34580   2.515   5.987   2.676  0.1338 -0.6873 -0.2500
11337SOL    HW134581   2.439   5.985   2.734  0.6078 -0.9360  0.3793
11337SOL    HW234582   2.500   6.062   2.619 -0.1994 -0.2471  0.3970
11338SOL     OW34583   1.571   4.733   4.360 -0.4956  0.2434  0.0522
11338SOL    HW134584   1.555   4.707   4.450 -2.5321  2.5044  0.4698
11338SOL    HW234585   1.494   4.702   4.312 -0.3647  0.7426 -0.4942
11339SOL     OW34586   0.033   6.613   0.109  0.4393 -0.8723 -0.3485
11339SOL    HW134587   0.028   6.697   0.155  0.9824 -0.7315 -0.5420
11339SOL    HW234588  -0.012   6.551   0.166 -2.4286  0.0600 -1.3954
11340SOL     OW34589   4.877   7.188   3.924  0.1037  0.2449  0.2860
11340SOL    HW134590   4.816   7.129   3.879 -0.8481  0.2815  1.4677
11340SOL    HW234591   4.922   7.133   3.987 -0.8301  0.7391  1.4384
11341SOL     OW34592   5.772   3.021   6.275  0.3122  0.0987  0.0015
11341SOL    HW134593   5.756   3.057   6.188  2.2448  0.2131 -0.3368
11341SOL    HW234594   5.772   3.098   6.333  1.7236  0.3504 -0.3156
11342SOL     OW34595   5.384   2.863   7.413 -0.2864  0.8686  0.0904
11342SOL    HW134596   5.417   2.848   7.501  1.3692 -1.5785 -0.8366
11342SOL    HW234597   5.458   2.899   7.365 -0.8882  1.2807 -0.5538
11343SOL     OW34598   0.441   1.719   4.404  0.1271 -0.5141 -0.0122
11343SOL    HW134599   0.396   1.799   4.378  0.5239 -0.2805  0.0034
11343SOL    HW234600   0.404   1.651   4.348 -0.3664 -0.3636  0.1241
11344SOL     OW34601   3.578   4.146   2.871 -0.5374 -0.2587  0.4713
11344SOL    HW134602   3.596   4.223   2.923 -0.3148 -1.3782  2.1353
11344SOL    HW234603   3.523   4.177   2.799  0.3930  1.5928  0.5125
11345SOL     OW34604   5.010   4.286   1.069  0.1326  0.2348 -0.5846
11345SOL    HW134605   5.070   4.359   1.052  1.2283 -0.7342 -1.0707
11345SOL    HW234606   4.978   4.260   0.982  0.3010 -0.2910 -0.4975
11346SOL     OW34607   1.900   4.198   1.035  0.1303 -0.2885  0.3589
11346SOL    HW134608   1.871   4.287   1.056 -1.1473 -0.4092 -0.7538
11346SOL    HW234609   1.991   4.194   1.065  0.6713  1.8481 -0.7823
11347SOL     OW34610   3.125   2.743   2.206  0.1594 -0.2473 -0.3525
11347SOL    HW134611   3.035   2.734   2.175  0.4938 -0.6832 -1.2224
11347SOL    HW234612   3.143   2.837   2.205  0.0364 -0.2342 -1.1134
11348SOL     OW34613   4.521   6.869   6.300 -0.3157  0.1288  0.7800
11348SOL    HW134614   4.527   6.774   6.301 -3.6674 -0.1962  0.1809
11348SOL    HW234615   4.513   6.894   6.392  1.0248 -0.0928  0.9704
11349SOL     OW34616   4.680   2.102   0.207 -0.2006  0.1005 -0.2492
11349SOL    HW134617   4.620   2.047   0.258  0.4029  0.0690  0.4322
11349SOL    HW234618   4.671   2.189   0.245 -2.0290  0.7952 -2.0652
11350SOL     OW34619   5.225   0.022   5.314 -0.1530 -0.1390 -0.3605
11350SOL    HW134620   5.261   0.081   5.248  1.5670  1.2463  1.7423
11350SOL    HW234621   5.196   0.078   5.385 -3.9356 -1.4191 -0.6399
11351SOL     OW34622   7.409   0.313   3.249 -0.7916  0.1729 -0.4837
11351SOL    HW134623   7.356   0.235   3.268  0.3861  0.0191  2.8545
11351SOL    HW234624   7.482   0.279   3.197  0.2994 -1.3600  1.8166
11352SOL     OW34625   5.718   0.037   6.877 -0.3021  0.5596 -0.1707
11352SOL    HW134626   5.684   0.002   6.959 -0.5130 -0.3984 -0.6537
11352SOL    HW234627   5.793   0.091   6.903  0.1980 -0.4753  0.5839
11353SOL     OW34628   4.951   3.704   3.340  0.5186  0.1766 -0.2039
11353SOL    HW134629   4.958   3.768   3.269 -0.6166  0.2287 -0.2826
11353SOL    HW234630   4.888   3.743   3.401  0.2429 -0.6112  0.0296
11354SOL     OW34631   1.697   4.832   4.686 -0.0329  0.4273 -0.2919
11354SOL    HW134632   1.737   4.894   4.625  0.0017  0.9148  0.2280
11354SOL    HW234633   1.668   4.885   4.760 -0.1528 -0.1496  0.0810
11355SOL     OW34634   5.175   1.517   4.809 -0.1526  0.0501  0.2929
11355SOL    HW134635   5.200   1.425   4.816 -1.9450 -0.4872  0.0650
11355SOL    HW234636   5.089   1.522   4.850  0.9812  2.1518  2.6964
11356SOL     OW34637   3.022   0.842   1.487  0.1183 -0.4947  0.5961
11356SOL    HW134638   3.069   0.797   1.417  1.2055 -0.9746  1.5987
11356SOL    HW234639   3.090   0.864   1.551 -0.8824 -0.3183  1.6275
11357SOL     OW34640   5.341   0.280   3.587 -0.0419 -0.4515  0.2404
11357SOL    HW134641   5.291   0.199   3.598 -1.2402  0.3163  0.6527
11357SOL    HW234642   5.303   0.340   3.651  1.0495  0.3445  0.1648
11358SOL     OW34643   2.773   5.813   5.919 -0.3800  0.0673 -0.5292
11358SOL    HW134644   2.825   5.819   5.999  0.2765  0.4930 -0.9867
11358SOL    HW234645   2.806   5.883   5.863 -1.7507  0.6323 -0.6548
11359SOL     OW34646   2.219   7.243   1.837 -0.0346 -0.7565 -0.1626
11359SOL    HW134647   2.194   7.327   1.876  0.6376 -0.5588 -0.1368
11359SOL    HW234648   2.308   7.228   1.869  0.0732 -1.1838 -0.6526
11360SOL     OW34649   4.293   4.998   4.768  0.2813  0.0127  0.1068
11360SOL    HW134650   4.274   5.088   4.742 -1.2587 -0.4541 -0.5279
11360SOL    HW234651   4.272   4.995   4.861 -2.5614 -0.3546 -0.4661
11361SOL     OW34652   5.625   4.721   6.880 -0.6278 -0.1889 -0.3047
11361SOL    HW134653   5.649   4.644   6.828 -1.2015 -0.7514  0.2554
11361SOL    HW234654   5.639   4.694   6.971  0.0408  0.6787 -0.1318
11362SOL     OW34655   3.301   0.103   6.441 -0.4882  0.0344  0.2263
11362SOL    HW134656   3.315   0.027   6.384  1.0278 -0.6569  1.4145
11362SOL    HW234657   3.324   0.178   6.387  1.7838 -0.6596  0.1005
11363SOL     OW34658   4.587   1.129   0.117  0.6011 -0.4939 -0.0114
11363SOL    HW134659   4.652   1.069   0.080  1.4542  0.5087 -0.1819
11363SOL    HW234660   4.506   1.109   0.069  0.3181 -2.8773  1.3240
11364SOL     OW34661   5.110   5.876   2.649 -0.4352  0.4318 -0.1661
11364SOL    HW134662   5.106   5.964   2.688 -0.0018  0.7644 -0.8501
11364SOL    HW234663   5.195   5.873   2.606  0.8088 -1.3252  2.1639
11365SOL     OW34664   4.465   6.502   5.037 -0.0562 -0.8083  0.2584
11365SOL    HW134665   4.375   6.497   5.068 -0.3163 -2.0484 -0.6335
11365SOL    HW234666   4.513   6.439   5.090  0.7988  1.3770  2.2338
11366SOL     OW34667   5.452   6.492   0.803  0.5713  0.2592  0.1760
11366SOL    HW134668   5.428   6.425   0.740  0.4961  0.1150  0.3563
11366SOL    HW234669   5.394   6.477   0.878  1.5043 -0.3681  0.7964
11367SOL     OW34670   1.595   2.642   3.753  0.7304  0.1194  0.4623
11367SOL    HW134671   1.634   2.667   3.837  1.5393  1.8246 -0.3665
11367SOL    HW234672   1.535   2.714   3.732  0.6263 -0.2252 -0.4615
11368SOL     OW34673   4.194   3.519   3.338  1.0103 -0.4845  0.0284
11368SOL    HW134674   4.244   3.449   3.296  1.2016 -0.2234 -0.1850
11368SOL    HW234675   4.148   3.562   3.266  2.7195  1.0962 -0.2090
11369SOL     OW34676   3.987   0.362   2.373 -0.2922  0.1211  0.0669
11369SOL    HW134677   4.065   0.311   2.350 -0.9071 -1.1615  0.7276
11369SOL    HW234678   3.984   0.361   2.469 -1.9754 -1.2534  0.0527
11370SOL     OW34679   1.666   3.983   2.130 -0.1361 -0.0792 -0.5519
11370SOL    HW134680   1.597   3.926   2.165 -0.2799  2.2587  3.6848
11370SOL    HW234681   1.745   3.929   2.133 -0.6110 -0.7606  1.4298
11371SOL     OW34682   4.146   5.473   0.374  0.2895  0.5034 -0.1548
11371SOL    HW134683   4.165   5.565   0.353 -1.3965  0.7966 -0.5416
11371SOL    HW234684   4.052   5.465   0.363 -0.1655 -0.4140  3.3515
11372SOL     OW34685   7.164   0.478   3.485  0.6793  0.2106 -0.5609
11372SOL    HW134686   7.137   0.450   3.397  0.7619  1.7213 -1.1076
11372SOL    HW234687   7.169   0.574   3.478  1.7588  0.2761  0.7870
11373SOL     OW34688   1.296   5.226   0.626  0.1186 -0.1597 -0.0334
11373SOL    HW134689   1.366   5.247   0.688  0.5853 -1.6113 -0.0257
11373SOL    HW234690   1.342   5.188   0.551 -0.4905  1.0848 -1.0568
11374SOL     OW34691   5.231   1.893   5.470 -0.0565  0.2498 -0.0948
11374SOL    HW134692   5.310   1.880   5.523 -0.7149 -0.3511  0.7689
11374SOL    HW234693   5.203   1.982   5.491  0.5194  0.5522 -0.5882
11375SOL     OW34694   5.096   4.176   5.731 -0.0311  0.3184  0.1670
11375SOL    HW134695   5.088   4.088   5.769  0.9103 -0.5794 -1.5485
11375SOL    HW234696   5.190   4.187   5.716 -0.2563  1.0489 -0.8351
11376SOL     OW34697   7.142   6.307   0.519  0.2274 -0.0822  0.0383
11376SOL    HW134698   7.073   6.311   0.452  0.3631  0.2079 -0.0845
11376SOL    HW234699   7.111   6.366   0.589 -2.2885 -3.8637  2.4953
11377SOL     OW34700   3.163   5.713   6.715 -0.6225  0.4723 -0.3579
11377SOL    HW134701   3.197   5.731   6.802  1.3808 -1.4919 -0.6405
11377SOL    HW234702   3.083   5.662   6.730 -0.2365  0.0695  0.3393
11378SOL     OW34703   2.196   4.749   4.533  0.4075 -1.0738 -0.2844
11378SOL    HW134704   2.155   4.774   4.450  1.1150 -1.5647 -0.7895
11378SOL    HW234705   2.126   4.757   4.598 -0.2088 -0.8981 -0.9644
11379SOL     OW34706   0.320   0.153   5.389  0.2484  0.1755  0.0134
11379SOL    HW134707   0.406   0.156   5.431 -0.3561 -1.9280  1.5672
11379SOL    HW234708   0.331   0.202   5.307  3.4371 -1.5535 -0.7294
11380SOL     OW34709   0.513   0.828   0.507  0.1444  0.0923 -0.4733
11380SOL    HW134710   0.534   0.735   0.519  1.0364  0.4001  0.4093
11380SOL    HW234711   0.428   0.838   0.550 -0.2517 -0.4326 -1.1057
11381SOL     OW34712   7.368   2.518   2.954  0.2675 -0.1228 -0.5824
11381SOL    HW134713   7.273   2.505   2.953  0.2556 -0.5167  1.7336
11381SOL    HW234714   7.382   2.589   2.890 -1.5294 -0.2385 -1.1742
11382SOL     OW34715   7.075   3.495   4.206  0.0049  0.4007  0.1243
11382SOL    HW134716   7.033   3.551   4.142  0.3970  0.0340 -0.4645
11382SOL    HW234717   7.042   3.407   4.187 -0.2412  0.3545  0.7327
11383SOL     OW34718   3.223   4.472   1.363  0.7574  0.0968 -0.5421
11383SOL    HW134719   3.137   4.441   1.391  2.0011 -2.8002  0.5562
11383SOL    HW234720   3.254   4.525   1.437  0.7290 -0.6160 -0.0074
11384SOL     OW34721   4.168   1.566   6.551  0.1153 -0.7454  0.7651
11384SOL    HW134722   4.185   1.637   6.490  1.7596 -1.9570 -0.2727
11384SOL    HW234723   4.148   1.610   6.634 -0.3544  0.9039 -0.1774
11385SOL     OW34724   3.237   1.992   1.012  0.2849  0.3943  0.3564
11385SOL    HW134725   3.288   1.936   0.954 -0.5450 -1.1845  1.0911
11385SOL    HW234726   3.229   2.075   0.965 -0.3297 -0.8141 -1.7695
11386SOL     OW34727   0.865   6.018   5.507  0.4542  0.2428 -0.0959
11386SOL    HW134728   0.819   5.935   5.512 -0.6529  0.8720  0.4605
11386SOL    HW234729   0.923   6.019   5.583 -0.8809  0.7403  0.9586
11387SOL     OW34730   5.767   2.161   3.485 -0.0729  0.3453  0.5482
11387SOL    HW134731   5.676   2.188   3.480 -0.2857 -0.3091  0.7616
11387SOL    HW234732   5.817   2.237   3.455 -0.7767  0.1051 -1.3552
11388SOL     OW34733   1.212   4.277   3.671  0.3457 -0.4172  0.1756
11388SOL    HW134734   1.172   4.348   3.622  3.1048  1.0716 -0.1420
11388SOL    HW234735   1.283   4.247   3.615 -0.6777 -3.4643  0.3412
11389SOL     OW34736   2.480   7.008   1.119 -0.2035  0.0298  0.5077
11389SOL    HW134737   2.520   6.938   1.068 -0.7208 -0.0774  0.2427
11389SOL    HW234738   2.536   7.084   1.105  0.7679 -0.4994  1.3571
11390SOL     OW34739   4.216   5.527   1.966 -0.4073 -0.3797  0.3141
11390SOL    HW134740   4.217   5.455   2.029  0.3284 -0.5770  0.0805
11390SOL    HW234741   4.280   5.589   2.000 -1.0519  0.1903  0.5245
11391SOL     OW34742   6.781   1.319   1.017  0.7847 -0.0505  0.0436
11391SOL    HW134743   6.738   1.310   1.103  1.0243 -1.1815  0.0575
11391SOL    HW234744   6.863   1.365   1.036  1.3917 -1.3459  0.6090
11392SOL     OW34745   5.596   2.170   4.697 -0.3470 -0.7028 -0.2950
11392SOL    HW134746   5.596   2.258   4.736  2.5817 -0.1693 -1.2814
11392SOL    HW234747   5.526   2.173   4.632 -2.0316 -0.0230  1.4248
11393SOL     OW34748   0.319   7.198   1.705 -0.3258 -0.6080 -0.0675
11393SOL    HW134749   0.372   7.213   1.783 -2.1320 -0.5631  1.2167
11393SOL    HW234750   0.319   7.103   1.693  0.1001 -0.6020 -0.1185
11394SOL     OW34751   2.539   5.761   1.606 -0.0565  0.0776  0.2649
11394SOL    HW134752   2.512   5.716   1.526  1.5640 -0.5501  0.0393
11394SOL    HW234753   2.545   5.854   1.581 -0.5065  0.0156 -0.0743
11395SOL     OW34754   6.270   2.902   0.677  0.0178  0.7363  0.2702
11395SOL    HW134755   6.359   2.904   0.712 -0.0778 -0.7208  0.6825
11395SOL    HW234756   6.214   2.889   0.754 -0.2483 -1.8994 -0.2552
11396SOL     OW34757   3.601   2.905   3.458 -0.1015  0.0078  0.1834
11396SOL    HW134758   3.663   2.889   3.529  1.8068  2.5382 -0.7673
11396SOL    HW234759   3.649   2.882   3.379 -1.2054 -0.1246 -0.4607
11397SOL     OW34760   0.049   3.181   3.526  0.6675 -0.4879  0.4222
11397SOL    HW134761  -0.004   3.128   3.586  1.1609 -1.0465  0.3709
11397SOL    HW234762   0.133   3.136   3.522  0.9933  0.1360  0.1357
11398SOL     OW34763   3.759   3.206   5.008 -0.0372  0.4489  0.1570
11398SOL    HW134764   3.790   3.274   5.068 -1.3472  1.5630 -0.3896
11398SOL    HW234765   3.713   3.144   5.064  0.5520  0.3645  0.5650
11399SOL     OW34766   3.802   0.398   5.355 -0.2210 -0.6422  0.3788
11399SOL    HW134767   3.855   0.409   5.434 -0.5662 -0.5561  0.6011
11399SOL    HW234768   3.756   0.316   5.369 -0.5975 -0.4187  0.4514
11400SOL     OW34769   3.515   0.231   5.066 -0.3419  0.5096 -0.0215
11400SOL    HW134770   3.442   0.282   5.033  0.2238  1.3072 -0.0794
11400SOL    HW234771   3.476   0.151   5.101 -1.3600  1.4374  1.0151
11401SOL     OW34772   6.616   2.265   0.600  0.2213 -0.0783 -0.0274
11401SOL    HW134773   6.648   2.353   0.581 -1.8760  0.2552 -2.5414
11401SOL    HW234774   6.695   2.214   0.616  1.6222  1.8212 -0.5706
11402SOL     OW34775   0.345   3.013   2.846 -0.2610 -0.6449 -0.0605
11402SOL    HW134776   0.289   3.084   2.875 -1.6365 -1.5862 -0.3277
11402SOL    HW234777   0.429   3.029   2.890 -0.0400  1.9100 -1.2160
11403SOL     OW34778   5.644   1.286   7.326 -0.4811 -0.1423 -0.3209
11403SOL    HW134779   5.572   1.304   7.266 -1.8812  0.0298  1.3190
11403SOL    HW234780   5.697   1.366   7.325 -1.7507  0.7350  0.3280
11404SOL     OW34781   5.113   2.259   4.685 -0.1163 -0.3793  0.6716
11404SOL    HW134782   5.196   2.273   4.638 -0.2405  0.0991  0.5879
11404SOL    HW234783   5.075   2.182   4.643 -0.7882  0.7132 -0.8307
11405SOL     OW34784   2.840   5.901   6.204 -0.3371  0.1851 -0.2207
11405SOL    HW134785   2.819   5.807   6.200  1.1889 -0.1878 -0.2456
11405SOL    HW234786   2.766   5.944   6.162 -0.8530 -1.0612 -0.6348
11406SOL     OW34787   7.416   4.740   5.781 -0.1073 -0.4301  0.3075
11406SOL    HW134788   7.487   4.753   5.844  0.6428  0.8775 -0.7449
11406SOL    HW234789   7.356   4.813   5.796 -0.1405 -0.3498 -0.1759
11407SOL     OW34790   5.811   1.418   6.010  0.0095 -0.0063 -0.8151
11407SOL    HW134791   5.742   1.351   6.014  0.0592 -0.0617 -0.8821
11407SOL    HW234792   5.892   1.367   6.005  0.0297  0.0614 -1.1619
11408SOL     OW34793   4.538   4.319   1.682 -0.2844  0.1642  0.0718
11408SOL    HW134794   4.481   4.291   1.753 -0.9686 -0.7587 -0.8044
11408SOL    HW234795   4.599   4.381   1.722 -0.3943 -0.6327  1.5260
11409SOL     OW34796   6.543   5.856   6.504  0.1487  0.2383 -0.0479
11409SOL    HW134797   6.587   5.774   6.526  2.8648  1.5765 -0.0844
11409SOL    HW234798   6.507   5.887   6.587 -2.5108 -1.7397 -0.3199
11410SOL     OW34799   5.465   6.458   5.597  0.7563 -0.1767 -0.0310
11410SOL    HW134800   5.477   6.531   5.657  1.4098 -0.7899  0.6122
11410SOL    HW234801   5.447   6.498   5.512  3.0929  0.8094 -0.1438
11411SOL     OW34802   7.418   5.830   6.459  0.2142  0.0906 -0.4040
11411SOL    HW134803   7.464   5.781   6.527  0.4152 -0.1162 -0.6819
11411SOL    HW234804   7.325   5.825   6.483  0.3381  0.5690  0.1987
11412SOL     OW34805   2.085   3.711   5.555  0.3996 -0.0805  0.2475
11412SOL    HW134806   2.084   3.670   5.641 -1.3217 -0.8315 -0.0940
11412SOL    HW234807   2.172   3.692   5.521  1.2246  0.5075  1.9192
11413SOL     OW34808   1.581   3.942   4.102  0.1850 -0.1956 -0.5580
11413SOL    HW134809   1.564   4.036   4.096 -0.2466 -0.2826 -0.6633
11413SOL    HW234810   1.521   3.902   4.039  1.2853 -0.4375 -1.4949
11414SOL     OW34811   1.057   5.092   5.490  0.1649  0.3047  0.6214
11414SOL    HW134812   1.064   5.188   5.485  0.5604  0.2370 -3.0716
11414SOL    HW234813   0.967   5.076   5.518  0.1751  1.7355  1.5643
11415SOL     OW34814   4.606   6.146   6.823  0.1160 -0.1610 -0.6229
11415SOL    HW134815   4.667   6.132   6.750  0.1531  0.4064 -0.7036
11415SOL    HW234816   4.554   6.066   6.827  0.3996 -0.3661 -1.0004
11416SOL     OW34817   6.279   6.634   3.798  0.1281 -0.4447  0.3488
11416SOL    HW134818   6.323   6.658   3.879  1.1322 -1.6488  0.1811
11416SOL    HW234819   6.187   6.655   3.814  0.4120 -0.0550  1.5495
11417SOL     OW34820   5.478   6.296   6.079  0.1538  0.2466  0.0969
11417SOL    HW134821   5.553   6.266   6.028  0.1997 -0.3193  0.4897
11417SOL    HW234822   5.469   6.232   6.149 -0.6971  0.3030  0.0545
11418SOL     OW34823   3.152   6.956   3.549  0.0041 -0.5098  0.1895
11418SOL    HW134824   3.186   7.029   3.499  0.6327 -0.0906  1.2089
11418SOL    HW234825   3.229   6.903   3.571  0.0117  0.3090  2.2848
11419SOL     OW34826   3.884   1.996   1.191  0.4838  0.1561  0.0009
11419SOL    HW134827   3.838   2.072   1.224 -0.9419 -1.2635  1.4414
11419SOL    HW234828   3.937   2.030   1.119 -0.4264  2.4041  0.3056
11420SOL     OW34829   7.218   0.873   6.721  0.1254  0.6918 -0.3399
11420SOL    HW134830   7.146   0.933   6.702 -1.3746 -1.0149 -0.3281
11420SOL    HW234831   7.211   0.857   6.815 -0.4191 -0.6190 -0.5942
11421SOL     OW34832   4.222   1.512   4.880 -0.0005 -0.0965 -0.1672
11421SOL    HW134833   4.279   1.459   4.936 -3.0738 -1.1813  2.2374
11421SOL    HW234834   4.200   1.454   4.807  0.7905 -0.2066 -0.3219
11422SOL     OW34835   4.369   5.376   5.870  0.2529 -0.2580  0.1232
11422SOL    HW134836   4.307   5.337   5.807 -1.6989 -0.2171  1.9184
11422SOL    HW234837   4.441   5.313   5.875 -0.5145 -1.2371 -0.6520
11423SOL     OW34838   0.318   1.649   6.899 -0.9426  0.5673  0.3186
11423SOL    HW134839   0.366   1.709   6.841 -0.2492  0.1450  0.4481
11423SOL    HW234840   0.306   1.570   6.846 -0.2829  0.1700  0.7497
11424SOL     OW34841   6.788   3.410   1.126 -0.1904  0.2033 -0.2042
11424SOL    HW134842   6.768   3.316   1.122 -1.7792  0.5484 -1.0864
11424SOL    HW234843   6.810   3.426   1.218  0.5576 -1.0915 -0.1207
11425SOL     OW34844   6.422   2.223   6.514  0.5121  0.4867  0.3319
11425SOL    HW134845   6.448   2.194   6.426 -1.9419  0.4322 -0.4726
11425SOL    HW234846   6.381   2.146   6.553  0.6918  0.7944  1.1301
11426SOL     OW34847   5.478   4.315   1.041 -0.0311  0.0137  0.6226
11426SOL    HW134848   5.568   4.344   1.025  0.0309 -0.6283 -0.2861
11426SOL    HW234849   5.445   4.291   0.954 -0.5474 -1.2487  1.1452
11427SOL     OW34850   6.626   0.848   5.917 -0.1523 -0.5074 -0.4409
11427SOL    HW134851   6.702   0.804   5.880 -1.8863 -2.1342 -2.3119
11427SOL    HW234852   6.635   0.837   6.011  1.9035 -0.6559 -0.6196
11428SOL     OW34853   5.086   2.193   3.696  0.1966 -0.1301  0.2395
11428SOL    HW134854   5.116   2.283   3.707 -0.2051  0.0502 -0.1299
11428SOL    HW234855   5.155   2.140   3.736 -0.4466  0.4075  2.1723
11429SOL     OW34856   0.091   0.943   4.808  0.2270  0.1035  0.3081
11429SOL    HW134857   0.065   0.986   4.726  0.1130 -0.2524  0.1564
11429SOL    HW234858   0.052   0.856   4.803 -0.2634  0.2793  0.9990
11430SOL     OW34859   1.879   3.963   0.462  0.1224  0.3129  0.0929
11430SOL    HW134860   1.958   3.966   0.409  0.1929  1.1788  0.2341
11430SOL    HW234861   1.903   3.909   0.538  1.4561  2.6499  1.4650
11431SOL     OW34862   5.338   0.261   3.182  0.2016 -0.3108 -0.1795
11431SOL    HW134863   5.275   0.316   3.135 -0.4078 -2.3564 -1.8859
11431SOL    HW234864   5.416   0.316   3.190 -0.4577  0.9063 -1.5750
11432SOL     OW34865   1.857   5.635   1.754  0.2574  0.4197  0.2782
11432SOL    HW134866   1.867   5.613   1.661  0.7119 -0.5383  0.5392
11432SOL    HW234867   1.770   5.602   1.776 -0.5046  2.0365 -0.1650
11433SOL     OW34868   2.008   0.949   6.144  0.0704 -0.1660 -0.2430
11433SOL    HW134869   1.941   0.966   6.209 -1.0802 -0.6181 -1.2734
11433SOL    HW234870   2.069   1.022   6.152  0.3841 -0.5882  1.8319
11434SOL     OW34871   2.456   3.942   3.431 -0.3573 -0.3598 -0.2925
11434SOL    HW134872   2.431   3.910   3.518  0.1188 -1.7018 -0.6180
11434SOL    HW234873   2.490   4.030   3.446 -0.3881 -0.5313  0.8606
11435SOL     OW34874   7.214   3.269   6.428 -0.6278 -0.1304 -0.6516
11435SOL    HW134875   7.274   3.291   6.499  0.1725 -0.8644 -1.0804
11435SOL    HW234876   7.211   3.348   6.373 -1.3246  0.4727  0.2216
11436SOL     OW34877   0.971   2.299   3.413 -0.0553  0.4421 -0.2957
11436SOL    HW134878   1.045   2.240   3.402 -0.4947 -0.0323 -0.7640
11436SOL    HW234879   0.906   2.248   3.461 -0.3615  0.6153 -0.5221
11437SOL     OW34880   2.098   5.328   1.763  0.7614  0.1138 -0.1078
11437SOL    HW134881   2.167   5.374   1.811  0.5041  1.0739 -0.6340
11437SOL    HW234882   2.098   5.370   1.677  1.1656 -1.5119 -0.9448
11438SOL     OW34883   3.356   1.559   7.262 -0.6596  0.4561  0.2690
11438SOL    HW134884   3.366   1.468   7.235  2.5262  0.7125  0.1630
11438SOL    HW234885   3.338   1.554   7.356 -2.8974 -0.2725 -0.1544
11439SOL     OW34886   1.146   7.229   0.915 -0.7714  0.3026 -0.2781
11439SOL    HW134887   1.198   7.273   0.848 -1.1986  0.6966 -0.3535
11439SOL    HW234888   1.116   7.149   0.874 -0.4348  0.1948 -0.3174
11440SOL     OW34889   6.562   6.000   0.154 -0.1153  0.3128  0.2233
11440SOL    HW134890   6.542   6.081   0.200 -0.4283  0.2175  0.2610
11440SOL    HW234891   6.499   5.997   0.083  0.4124  0.4945 -0.2562
11441SOL     OW34892   0.044   3.953   0.487 -0.0771 -0.5352 -0.0602
11441SOL    HW134893   0.034   3.863   0.517  1.6441 -0.7914 -0.1934
11441SOL    HW234894  -0.026   3.965   0.423 -1.2753 -1.2673  1.0675
11442SOL     OW34895   4.085   0.892   4.261 -0.3682 -0.2971 -0.1705
11442SOL    HW134896   4.110   0.960   4.324  1.0528 -1.7577  0.9352
11442SOL    HW234897   4.113   0.926   4.176  0.4433  0.4670  0.3801
11443SOL     OW34898   2.688   6.785   5.402 -0.2303 -0.0795  0.3278
11443SOL    HW134899   2.680   6.876   5.372  0.7546 -0.6079 -1.7373
11443SOL    HW234900   2.602   6.747   5.385 -0.3967  0.2501  0.4159
11444SOL     OW34901   3.643   3.470   4.864  0.0083  0.2410  0.1348
11444SOL    HW134902   3.639   3.564   4.878  0.5864 -0.0884  3.2500
11444SOL    HW234903   3.582   3.433   4.928 -0.4794 -1.5282 -1.2530
11445SOL     OW34904   3.654   0.805   1.437 -0.0612 -0.0820 -0.1752
11445SOL    HW134905   3.615   0.777   1.354 -0.3655 -0.0703 -0.0377
11445SOL    HW234906   3.583   0.849   1.483  0.5663  1.5404 -0.6759
11446SOL     OW34907   0.943   6.851   5.335 -0.0747 -0.0780 -0.3392
11446SOL    HW134908   1.021   6.802   5.308 -0.7367 -1.1487 -0.3774
11446SOL    HW234909   0.872   6.814   5.283 -0.4776  1.4918 -0.9405
11447SOL     OW34910   6.593   5.534   3.072 -0.2267 -0.0165  0.1419
11447SOL    HW134911   6.519   5.484   3.038  1.4023 -0.9159 -2.3064
11447SOL    HW234912   6.601   5.608   3.012 -0.3967  1.2710  1.6431
11448SOL     OW34913   0.884   4.071   4.786  0.1514 -0.4667  0.0368
11448SOL    HW134914   0.838   4.151   4.811  1.1979  0.3282 -0.4768
11448SOL    HW234915   0.845   4.003   4.840 -0.0586  0.5720  1.2401
11449SOL     OW34916   2.017   3.247   5.716 -0.4833  0.0222 -0.1283
11449SOL    HW134917   2.103   3.256   5.673  0.7196 -1.6318  1.7518
11449SOL    HW234918   1.995   3.336   5.743 -0.4672  0.8390 -2.5137
11450SOL     OW34919   7.173   4.680   6.995  0.6947 -0.6247  0.0882
11450SOL    HW134920   7.078   4.689   7.006  0.5852  0.8693 -1.5080
11450SOL    HW234921   7.210   4.742   7.057  0.6330 -1.0615  0.5690
11451SOL     OW34922   0.873   1.701   4.922  0.4622  0.2640 -0.5318
11451SOL    HW134923   0.829   1.783   4.899 -2.1047 -0.7238  0.4932
11451SOL    HW234924   0.861   1.645   4.845  0.7024  0.2604 -0.5687
11452SOL     OW34925   5.838   4.957   1.774 -0.0487 -0.4911  0.4498
11452SOL    HW134926   5.904   5.010   1.819  1.1883 -1.1944 -0.4963
11452SOL    HW234927   5.887   4.886   1.733 -1.2734 -0.5099 -1.0746
11453SOL     OW34928   2.016   2.844   1.732 -0.0893  0.2429 -0.1697
11453SOL    HW134929   2.031   2.936   1.752 -0.6361 -0.1156  2.2676
11453SOL    HW234930   1.952   2.845   1.661  0.6207  1.7312 -0.8183
11454SOL     OW34931   0.835   4.977   5.206 -0.5275 -0.3439  0.8243
11454SOL    HW134932   0.817   5.057   5.156 -1.7894 -0.3411  1.2391
11454SOL    HW234933   0.755   4.962   5.257 -0.9908 -2.7872 -0.4723
11455SOL     OW34934   2.836   5.124   3.345 -0.0618  0.0159 -0.1654
11455SOL    HW134935   2.901   5.055   3.352  1.2893  1.2739  0.2140
11455SOL    HW234936   2.801   5.134   3.434 -0.4796 -0.3709 -0.2826
11456SOL     OW34937   2.774   5.107   5.488 -1.0867  0.1193 -0.1572
11456SOL    HW134938   2.768   5.187   5.539 -0.9905 -0.0842  0.1766
11456SOL    HW234939   2.868   5.089   5.482 -0.9562  1.0830 -1.8954
11457SOL     OW34940   7.283   6.585   5.177  0.4731 -0.6074  0.4097
11457SOL    HW134941   7.360   6.528   5.179 -0.6025 -2.1616 -0.3326
11457SOL    HW234942   7.212   6.528   5.150 -1.0829  0.6579  1.6558
11458SOL     OW34943   1.513   0.398   0.367  0.3976 -0.4504  0.0439
11458SOL    HW134944   1.483   0.484   0.336  1.4954 -0.1228 -0.1416
11458SOL    HW234945   1.504   0.341   0.291 -1.7623 -0.9055  0.5612
11459SOL     OW34946   4.247   0.884   4.555 -0.6782  0.2656  0.1932
11459SOL    HW134947   4.171   0.827   4.544 -0.0220 -0.2748 -2.2688
11459SOL    HW234948   4.235   0.953   4.491  0.4668  0.6670  0.3876
11460SOL     OW34949   5.939   3.382   3.567 -0.4524  0.2798  0.3165
11460SOL    HW134950   5.893   3.301   3.590  1.4473 -0.7312  0.7438
11460SOL    HW234951   5.968   3.418   3.651  0.5949  0.2155 -0.0025
11461SOL     OW34952   3.272   6.043   6.654 -0.1910  0.0693  0.2715
11461SOL    HW134953   3.195   5.998   6.689 -2.2806  1.1645 -2.5256
11461SOL    HW234954   3.346   5.988   6.680 -1.8640 -1.1416  2.9394
11462SOL     OW34955   6.737   3.925   0.126  0.2552  0.5986  0.1660
11462SOL    HW134956   6.645   3.906   0.109  0.7198  0.4124 -2.6790
11462SOL    HW234957   6.746   4.019   0.109  0.7703  0.4132 -0.6341
11463SOL     OW34958   4.102   1.200   3.117  0.2760  0.5105 -0.3608
11463SOL    HW134959   4.116   1.188   3.211 -0.1540  0.1871 -0.3343
11463SOL    HW234960   4.180   1.161   3.077  1.3232  2.2286 -0.0931
11464SOL     OW34961   4.439   6.444   3.769 -0.1417 -0.2321  0.7029
11464SOL    HW134962   4.516   6.399   3.733  0.8360  2.5964 -1.0573
11464SOL    HW234963   4.367   6.382   3.756  1.3704 -1.9031 -0.1009
11465SOL     OW34964   4.950   6.939   2.958  0.4371 -0.9623 -0.6218
11465SOL    HW134965   5.031   6.980   2.989 -0.0596 -0.7299  0.4236
11465SOL    HW234966   4.959   6.847   2.983  0.6620 -1.0699 -1.1005
11466SOL     OW34967   2.329   4.851   2.241 -0.4294 -0.4537  0.4793
11466SOL    HW134968   2.339   4.864   2.335  0.2229  2.1981  0.1284
11466SOL    HW234969   2.370   4.766   2.224  2.9044  0.6249  2.1160
11467SOL     OW34970   4.780   3.273   0.688 -0.1506 -0.0746  0.0270
11467SOL    HW134971   4.838   3.340   0.725  0.2835 -0.4893  0.1090
11467SOL    HW234972   4.723   3.247   0.761 -2.2854  2.2227 -0.6820
11468SOL     OW34973   5.900   2.745   2.627  0.6121 -0.2068  0.2915
11468SOL    HW134974   5.981   2.696   2.614 -0.0379 -1.4102  0.6150
11468SOL    HW234975   5.925   2.816   2.686  1.1864 -1.3306  1.4581
11469SOL     OW34976   4.155   5.904   1.914 -0.0990 -0.5829  0.0762
11469SOL    HW134977   4.237   5.880   1.958  0.6757  1.0136 -0.4136
11469SOL    HW234978   4.174   5.987   1.871 -1.0560 -1.5947 -2.5909
11470SOL     OW34979   5.420   3.746   5.216  0.1377  0.7210 -0.0707
11470SOL    HW134980   5.439   3.838   5.231  1.6527  0.1269  2.0817
11470SOL    HW234981   5.325   3.744   5.200  0.3457  2.7953 -2.0587
11471SOL     OW34982   2.396   5.970   1.897  0.1748 -0.2481 -0.0100
11471SOL    HW134983   2.367   5.986   1.986 -0.8561  0.7640 -0.4979
11471SOL    HW234984   2.346   5.894   1.868 -0.1293 -0.0487 -0.0101
11472SOL     OW34985   2.749   5.468   4.038 -0.3185  0.2096 -0.2288
11472SOL    HW134986   2.655   5.465   4.020 -0.3801  0.6543  0.0150
11472SOL    HW234987   2.756   5.473   4.133 -0.0615  0.6111 -0.2657
11473SOL     OW34988   5.809   5.974   6.323 -0.4352  0.2384  0.1941
11473SOL    HW134989   5.732   5.989   6.267 -1.3632  1.0339  1.6031
11473SOL    HW234990   5.806   5.881   6.343 -1.0271  0.2462  0.1742
11474SOL     OW34991   2.233   2.989   1.035 -0.5368  0.0680 -0.3553
11474SOL    HW134992   2.219   2.924   0.965  1.0820  0.1249 -0.7706
11474SOL    HW234993   2.278   2.940   1.104  0.6490  0.7136 -0.6474
11475SOL     OW34994   4.394   6.284   1.631 -0.4256  0.1773  0.0467
11475SOL    HW134995   4.368   6.334   1.553 -0.0124  1.6605  0.8346
11475SOL    HW234996   4.446   6.212   1.596  0.7558  1.4792 -1.0126
11476SOL     OW34997   6.174   0.709   4.628 -0.4221  0.2192 -0.0932
11476SOL    HW134998   6.165   0.642   4.560 -0.0130  1.6612 -1.6373
11476SOL    HW234999   6.265   0.738   4.622 -0.4006  0.4521  1.0227
11477SOL     OW35000   7.204   4.928   2.942  0.1041  0.2739  0.3972
11477SOL    HW135001   7.206   4.891   2.854  0.3609 -0.8545  0.8557
11477SOL    HW235002   7.137   4.876   2.988 -1.4654  2.1458  0.3307
11478SOL     OW35003   6.620   3.722   0.512 -0.2813  0.3212 -0.0290
11478SOL    HW135004   6.551   3.785   0.491 -0.8093 -0.2761 -0.1201
11478SOL    HW235005   6.686   3.735   0.444 -0.3627  0.8056 -0.0174
11479SOL     OW35006   1.488   0.586   0.857 -0.0498  0.0826 -0.5572
11479SOL    HW135007   1.572   0.573   0.813  1.4656 -0.7507  2.3235
11479SOL    HW235008   1.494   0.674   0.894 -0.0977 -0.2567  0.2831
11480SOL     OW35009   5.541   0.462   3.220 -0.2447 -0.1636  0.4786
11480SOL    HW135010   5.508   0.508   3.297  0.8009  3.2199 -0.8886
11480SOL    HW235011   5.634   0.449   3.237 -0.1404  0.0325  0.0887
11481SOL     OW35012   1.317   2.760   5.924 -0.1533 -0.6519  0.3727
11481SOL    HW135013   1.388   2.819   5.898 -0.2392  0.6985  2.8948
11481SOL    HW235014   1.361   2.692   5.974 -0.5240 -0.3044  1.1787
11482SOL     OW35015   0.432   5.793   1.701  0.5356  0.1626 -0.3954
11482SOL    HW135016   0.463   5.878   1.733  0.1929  1.0538 -2.2873
11482SOL    HW235017   0.346   5.813   1.662  0.3891 -1.0896 -0.7492
11483SOL     OW35018   6.368   0.567   5.563 -0.1062  0.2674  0.4130
11483SOL    HW135019   6.408   0.492   5.608  1.6824  0.8249 -0.1890
11483SOL    HW235020   6.410   0.644   5.602 -1.1815  0.9299  0.3036
11484SOL     OW35021   7.110   3.936   2.285 -0.6256  0.0187  0.1948
11484SOL    HW135022   7.017   3.911   2.288 -0.4389 -0.7595  3.1622
11484SOL    HW235023   7.111   4.028   2.312 -0.5850  0.3661 -0.9483
11485SOL     OW35024   6.321   6.266   3.001  0.4312  0.1401 -0.0185
11485SOL    HW135025   6.236   6.245   2.961  0.9706  2.4993 -2.7013
11485SOL    HW235026   6.348   6.347   2.959  3.7915 -0.2243  1.1479
11486SOL     OW35027   4.466   5.804   1.544 -0.5982 -0.0241  0.4986
11486SOL    HW135028   4.513   5.740   1.598 -1.7096 -1.3812 -0.0825
11486SOL    HW235029   4.396   5.837   1.601 -0.0881  0.6216  0.7643
11487SOL     OW35030   2.873   6.187   3.103 -0.0595 -0.0067  0.0051
11487SOL    HW135031   2.932   6.168   3.176 -1.9796 -0.9348  1.3791
11487SOL    HW235032   2.921   6.251   3.050  3.2647 -2.5704 -0.3948
11488SOL     OW35033   5.031   6.058   1.022  0.3309  0.1526  0.4522
11488SOL    HW135034   4.996   6.018   0.942  1.6395 -2.0371  0.8813
11488SOL    HW235035   5.062   6.144   0.995 -0.7192  0.1032 -1.0268
11489SOL     OW35036   0.889   2.670   6.139 -0.1395  0.0149  0.1777
11489SOL    HW135037   0.901   2.762   6.163 -0.1757 -0.0297  0.3743
11489SOL    HW235038   0.959   2.652   6.077  1.4337 -0.4923  2.0092
11490SOL     OW35039   6.380   3.618   5.989 -0.5499  0.7340 -0.2937
11490SOL    HW135040   6.382   3.548   6.054 -0.7416  0.2742 -0.7755
11490SOL    HW235041   6.471   3.625   5.959 -0.5149  0.7492 -0.1856
11491SOL     OW35042   6.001   5.891   0.750 -0.3778 -0.5280  1.3005
11491SOL    HW135043   6.089   5.900   0.713 -0.3888  1.6733  1.6667
11491SOL    HW235044   6.007   5.932   0.836 -1.8566  0.0688  1.1518
11492SOL     OW35045   4.774   1.240   4.305 -0.0901 -1.0159  0.1649
11492SOL    HW135046   4.780   1.164   4.247 -0.2659 -2.5224  2.0286
11492SOL    HW235047   4.682   1.242   4.332 -0.0174 -0.3309  0.3838
11493SOL     OW35048   2.065   1.329   4.736 -0.2671  0.5713 -0.4525
11493SOL    HW135049   1.983   1.373   4.712 -0.9826  0.1757  1.1569
11493SOL    HW235050   2.067   1.250   4.681 -0.9681  0.5875 -0.5116
11494SOL     OW35051   6.038   6.812   1.010  0.3364  0.0891  0.0238
11494SOL    HW135052   5.956   6.861   1.016 -0.8115 -1.6678 -0.5387
11494SOL    HW235053   6.014   6.722   1.030  2.0844 -0.5232 -0.4169
11495SOL     OW35054   7.324   3.035   3.686  0.4517 -0.0178  0.5237
11495SOL    HW135055   7.315   3.021   3.780  0.8488  0.7981  0.6879
11495SOL    HW235056   7.240   3.073   3.660 -0.0306 -1.1354  0.3558
11496SOL     OW35057   1.723   0.821   3.791  0.0479  0.1220  0.0958
11496SOL    HW135058   1.699   0.902   3.837  0.4631  0.7525 -0.7526
11496SOL    HW235059   1.681   0.830   3.705 -0.7945 -1.0707  0.3685
11497SOL     OW35060   2.109   2.818   1.999  0.2666 -1.2723 -0.1364
11497SOL    HW135061   2.090   2.834   1.907 -0.2886 -2.5190 -0.2611
11497SOL    HW235062   2.203   2.834   2.007  0.3916 -1.5134 -1.0013
11498SOL     OW35063   2.734   4.473   4.607  0.0408  0.2185  0.3114
11498SOL    HW135064   2.760   4.381   4.603 -1.1738 -0.1506  0.4378
11498SOL    HW235065   2.649   4.476   4.562  0.5850  1.4834 -0.6762
11499SOL     OW35066   4.720   6.558   0.604 -0.1776  0.6670  0.4389
11499SOL    HW135067   4.655   6.625   0.581 -0.2686  0.7675  0.9725
11499SOL    HW235068   4.677   6.507   0.673 -0.0716  0.1171  0.1024
11500SOL     OW35069   1.836   1.832   0.134 -1.0510 -0.4069 -0.3273
11500SOL    HW135070   1.816   1.906   0.077  0.0139  0.1276 -0.0292
11500SOL    HW235071   1.921   1.800   0.103 -0.3229  0.0601  1.1171
11501SOL     OW35072   2.845   0.404   3.328  0.1258  0.0721  0.0639
11501SOL    HW135073   2.861   0.351   3.251 -0.8516 -0.5527  0.2750
11501SOL    HW235074   2.817   0.489   3.294  0.3120 -0.0008 -0.2671
11502SOL     OW35075   4.481   0.292   7.150  0.1622  0.5170  0.4585
11502SOL    HW135076   4.390   0.262   7.155  0.5296 -0.6093  0.5157
11502SOL    HW235077   4.487   0.360   7.217 -0.0730 -0.9420  2.0175
11503SOL     OW35078   6.891   1.148   4.911 -0.7261  0.1876  0.4104
11503SOL    HW135079   6.962   1.141   4.848 -0.7364  0.3084  0.3848
11503SOL    HW235080   6.932   1.134   4.996 -0.4677  1.3589  0.4962
11504SOL     OW35081   1.882   7.292   3.828 -0.4726  0.0602  0.4649
11504SOL    HW135082   1.917   7.237   3.898 -0.3426  1.2664  1.3713
11504SOL    HW235083   1.794   7.257   3.812  0.5262 -2.1044 -0.8736
11505SOL     OW35084   6.992   6.582   6.923  0.4051  0.1027 -0.2023
11505SOL    HW135085   7.052   6.654   6.901  1.2069 -0.5243 -0.0972
11505SOL    HW235086   6.938   6.617   6.994 -0.2481  1.1264 -1.1558
11506SOL     OW35087   0.103   0.580   6.701 -0.4827  0.5704 -0.4202
11506SOL    HW135088   0.062   0.581   6.787 -1.4491 -0.0839 -0.8517
11506SOL    HW235089   0.184   0.531   6.713  0.7941  2.7975  0.6843
11507SOL     OW35090   7.397   1.060   3.036  0.2713 -0.2348 -0.1689
11507SOL    HW135091   7.431   1.104   3.113 -1.9432  0.9047  0.2133
11507SOL    HW235092   7.445   1.098   2.963 -0.2231  1.4275  0.3398
11508SOL     OW35093   5.183   5.531   3.219 -0.2398 -0.1170  0.3814
11508SOL    HW135094   5.181   5.574   3.134  1.8882 -0.7683 -0.0646
11508SOL    HW235095   5.275   5.538   3.247 -1.0581  0.9798  3.1045
11509SOL     OW35096   1.913   6.375   6.138  0.2914 -0.1242  0.2345
11509SOL    HW135097   1.956   6.371   6.223 -0.1158 -0.6647  0.4227
11509SOL    HW235098   1.966   6.319   6.081 -0.7549 -1.7238  0.7527
11510SOL     OW35099   6.482   5.696   2.880  0.4149 -0.3839 -0.1439
11510SOL    HW135100   6.449   5.672   2.793  1.2270 -0.5636 -0.4108
11510SOL    HW235101   6.477   5.792   2.881  0.9296 -0.3456 -0.6116
11511SOL     OW35102   4.589   2.153   4.636 -0.0936  0.1109  0.6271
11511SOL    HW135103   4.633   2.096   4.698 -1.5682  0.0386  1.6598
11511SOL    HW235104   4.649   2.160   4.561  1.3612 -0.4397  1.7171
11512SOL     OW35105   5.763   5.301   0.159 -0.1409 -0.2442  0.1776
11512SOL    HW135106   5.688   5.244   0.140 -0.9032  0.6408  0.4867
11512SOL    HW235107   5.794   5.329   0.073 -2.6649  2.5700  0.0409
11513SOL     OW35108   6.708   6.696   2.702  0.1484 -0.0022 -0.7249
11513SOL    HW135109   6.796   6.676   2.736 -0.0346 -0.9178 -0.7768
11513SOL    HW235110   6.724   6.726   2.612  0.3522 -0.9949 -1.0352
11514SOL     OW35111   4.452   0.244   0.205 -0.3882 -0.2627 -0.1613
11514SOL    HW135112   4.477   0.336   0.210 -0.7362 -0.2047  0.6673
11514SOL    HW235113   4.531   0.196   0.227 -0.3856 -0.1452  0.0841
11515SOL     OW35114   0.656   2.728   6.894 -0.4364  0.1782 -0.0458
11515SOL    HW135115   0.622   2.642   6.871  2.1477 -0.9348 -0.0988
11515SOL    HW235116   0.592   2.765   6.955 -2.1620 -1.2677 -0.9106
11516SOL     OW35117   1.265   6.869   6.127 -0.3529 -0.1746  0.1752
11516SOL    HW135118   1.299   6.801   6.185 -0.2852  0.6175  1.0805
11516SOL    HW235119   1.171   6.872   6.147 -1.0349 -2.2539 -2.2086
11517SOL     OW35120   0.468   5.734   6.359 -0.3288  0.3557  0.2266
11517SOL    HW135121   0.499   5.777   6.440 -1.1451  0.3757  0.5318
11517SOL    HW235122   0.465   5.805   6.295  2.9016 -0.1025 -0.6258
11518SOL     OW35123   0.457   1.901   6.489 -0.1408 -0.1708  0.3133
11518SOL    HW135124   0.462   1.995   6.470 -1.0550 -0.2314 -0.2946
11518SOL    HW235125   0.508   1.859   6.420  1.0552 -0.0787  1.1192
11519SOL     OW35126   0.221   5.948   5.280  0.4203 -0.4007 -0.0738
11519SOL    HW135127   0.189   5.884   5.217  1.3250 -1.0058  0.0576
11519SOL    HW235128   0.149   5.958   5.343 -0.6588  0.5188 -1.3873
11520SOL     OW35129   4.629   3.398   4.366 -0.2363 -0.2897 -0.0150
11520SOL    HW135130   4.717   3.408   4.330 -0.5745  0.1597 -0.7428
11520SOL    HW235131   4.615   3.478   4.417 -0.2266 -0.3615  0.1014
11521SOL     OW35132   0.433   1.806   1.925  0.4394  0.4415  0.4964
11521SOL    HW135133   0.444   1.712   1.939 -0.4745  0.3777  0.8812
11521SOL    HW235134   0.471   1.822   1.839 -2.0175 -0.8455 -0.9397
11522SOL     OW35135   6.942   4.954   6.333 -0.2125 -0.3668  0.2962
11522SOL    HW135136   6.869   4.898   6.309 -0.8512  0.4364  0.3165
11522SOL    HW235137   6.920   5.040   6.296  1.2280 -0.3560 -0.6173
11523SOL     OW35138   0.409   0.666   0.735 -0.2124  0.3280 -0.4392
11523SOL    HW135139   0.370   0.645   0.650 -1.5682  1.2483 -0.0833
11523SOL    HW235140   0.416   0.581   0.779 -0.1878 -0.0703 -1.1895
11524SOL     OW35141   4.202   7.082   4.769  0.2023 -0.2866 -0.2964
11524SOL    HW135142   4.120   7.127   4.746  0.4620 -1.3967 -4.1762
11524SOL    HW235143   4.267   7.152   4.774 -0.5108  0.3598  0.1824
11525SOL     OW35144   6.618   4.167   0.341 -0.4471 -0.2118 -0.8015
11525SOL    HW135145   6.596   4.251   0.302  0.9307  0.3691 -0.3622
11525SOL    HW235146   6.693   4.185   0.397 -0.9210 -1.4848  0.2942
11526SOL     OW35147   1.081   6.473   0.907  0.0509  0.0730  0.3416
11526SOL    HW135148   1.042   6.494   0.822  1.8856  0.7775 -0.3665
11526SOL    HW235149   1.148   6.540   0.920  1.2247 -1.2369  1.3617
11527SOL     OW35150   3.800   1.929   6.133  0.4828 -0.2060  0.3440
11527SOL    HW135151   3.719   1.906   6.087 -0.5524  1.0382  1.4501
11527SOL    HW235152   3.798   1.876   6.213  0.5120  0.1725  0.5983
11528SOL     OW35153   3.743   3.023   3.870  0.3329  0.8530  0.0482
11528SOL    HW135154   3.797   2.949   3.900  1.1908  0.4683 -2.2632
11528SOL    HW235155   3.801   3.099   3.877 -0.0763  1.0861  1.0537
11529SOL     OW35156   4.521   6.622   2.920 -0.9171 -0.0430 -0.0383
11529SOL    HW135157   4.499   6.655   2.833 -3.9626 -0.9480  0.2757
11529SOL    HW235158   4.550   6.698   2.969 -0.1100  0.6511 -1.5435
11530SOL     OW35159   5.840   0.447   3.238  0.0033  0.2279 -0.0184
11530SOL    HW135160   5.856   0.355   3.220  0.4937  0.5815 -1.5558
11530SOL    HW235161   5.915   0.475   3.291  0.7056  0.1279 -0.9519
11531SOL     OW35162   1.670   6.837   4.615 -0.3735  1.0030 -0.4186
11531SOL    HW135163   1.754   6.797   4.592 -0.8757 -0.3331 -0.0425
11531SOL    HW235164   1.658   6.813   4.707 -1.3516  0.8546 -0.5832
11532SOL     OW35165   1.170   1.331   6.785  0.1818 -0.0716  0.5116
11532SOL    HW135166   1.100   1.287   6.833 -1.3604  0.5074 -1.1096
11532SOL    HW235167   1.165   1.422   6.813 -0.3350  0.1497 -0.2707
11533SOL     OW35168   2.379   4.669   3.661  0.1731  0.6143  0.1381
11533SOL    HW135169   2.420   4.617   3.730 -2.6819  1.0955  2.3696
11533SOL    HW235170   2.326   4.606   3.611  2.0381  0.3109 -1.5957
11534SOL     OW35171   5.254   1.873   7.095  0.2194 -0.2515 -0.1606
11534SOL    HW135172   5.324   1.934   7.118 -0.9192  0.9736  0.1984
11534SOL    HW235173   5.276   1.844   7.006  2.4536 -1.8224  0.8061
11535SOL     OW35174   6.968   1.013   7.031  0.1368  0.4202  0.0590
11535SOL    HW135175   6.907   0.945   7.062  0.6670  0.1746  0.5947
11535SOL    HW235176   6.934   1.094   7.069 -1.0465  0.6284 -1.3581
11536SOL     OW35177   5.664   4.021   0.066 -0.5179 -1.0320 -0.0879
11536SOL    HW135178   5.599   4.092   0.068 -0.4864 -0.9781 -0.8312
11536SOL    HW235179   5.646   3.975  -0.016 -0.0550 -1.4324  0.0377
11537SOL     OW35180   6.226   4.766   0.161  0.4587 -0.2103  0.0655
11537SOL    HW135181   6.176   4.809   0.231  0.1852 -0.6447  0.1417
11537SOL    HW235182   6.257   4.838   0.107 -1.0256  0.0446 -0.5027
11538SOL     OW35183   1.607   1.089   0.077 -0.1135  0.1607 -0.1486
11538SOL    HW135184   1.659   1.128   0.007 -0.3164 -2.1283 -1.6883
11538SOL    HW235185   1.537   1.153   0.093  0.1917  0.9518 -1.7306
11539SOL     OW35186   5.610   6.270   3.567 -0.0253  0.1356 -0.1418
11539SOL    HW135187   5.683   6.312   3.613 -0.7063 -0.1784  1.2937
11539SOL    HW235188   5.622   6.176   3.582  0.0126 -0.0096 -1.0412
11540SOL     OW35189   0.728   7.195   0.926  0.0972  0.5062  0.2964
11540SOL    HW135190   0.639   7.161   0.944 -0.9671  2.2901 -1.2849
11540SOL    HW235191   0.764   7.133   0.862 -0.4088  0.3503  0.1534
11541SOL     OW35192   6.066   0.823   2.296  0.1420  0.7636  0.0311
11541SOL    HW135193   6.022   0.894   2.342 -2.4368  0.2549 -1.4922
11541SOL    HW235194   6.018   0.744   2.322 -0.5123  0.3033 -2.3935
11542SOL     OW35195   0.610   3.698   2.698  0.0468  0.2680 -0.3787
11542SOL    HW135196   0.660   3.737   2.627  0.0219  0.1147 -0.4814
11542SOL    HW235197   0.527   3.745   2.698  0.4175  0.9360  0.1818
11543SOL     OW35198   5.899   4.138   4.826 -0.7559 -0.5642 -0.0076
11543SOL    HW135199   5.971   4.081   4.853 -0.2341 -0.7541 -1.7166
11543SOL    HW235200   5.837   4.080   4.782 -0.6556  0.0193 -0.9531
11544SOL     OW35201   0.215   6.249   0.074  0.5357 -0.4200 -0.2571
11544SOL    HW135202   0.152   6.255   0.002  2.4805  0.5501 -2.0032
11544SOL    HW235203   0.236   6.340   0.095  0.6945 -0.7075  0.9168
11545SOL     OW35204   1.200   2.126   3.438  0.0572 -0.3088 -0.0085
11545SOL    HW135205   1.195   2.061   3.509  0.8791 -0.9458 -0.5125
11545SOL    HW235206   1.287   2.165   3.448 -0.0295 -0.0237 -0.3519
11546SOL     OW35207   0.265   0.370   2.826 -0.7838  0.0552  0.3990
11546SOL    HW135208   0.319   0.349   2.750 -2.3640 -1.9932 -0.2652
11546SOL    HW235209   0.209   0.443   2.796 -0.5161  0.1163  0.0411
11547SOL     OW35210   1.446   1.552   3.716  0.3532  0.0961 -0.0161
11547SOL    HW135211   1.473   1.504   3.794  0.3358 -1.2028 -0.7755
11547SOL    HW235212   1.527   1.561   3.665  0.4894  1.4950  0.4268
11548SOL     OW35213   5.524   0.209   6.806  0.0372  0.0676  0.2062
11548SOL    HW135214   5.593   0.143   6.812  0.0390  0.0482 -0.0571
11548SOL    HW235215   5.568   0.291   6.826 -0.0682 -0.0705  1.0658
11549SOL     OW35216   1.571   7.362   4.086 -0.3113  0.2857  0.2783
11549SOL    HW135217   1.622   7.421   4.030  1.5994 -1.4033  0.1298
11549SOL    HW235218   1.482   7.397   4.083 -0.0063  1.0429 -2.7341
11550SOL     OW35219   1.558   0.230   2.678 -0.0445 -0.9606 -0.0999
11550SOL    HW135220   1.597   0.144   2.660 -0.0432 -1.1075  0.5892
11550SOL    HW235221   1.578   0.247   2.770 -1.6367 -1.0422  0.2796
11551SOL     OW35222   4.063   6.574   6.559 -0.5385 -0.0011  0.8297
11551SOL    HW135223   4.125   6.593   6.489 -1.1290 -0.1081  0.2684
11551SOL    HW235224   4.115   6.530   6.626  0.1135  0.4500  0.6297
11552SOL     OW35225   7.305   0.059   3.352  0.4757 -0.0193  0.2633
11552SOL    HW135226   7.362  -0.014   3.326 -0.0363 -0.3322 -0.0077
11552SOL    HW235227   7.220   0.037   3.315  0.7604  1.7077 -1.6023
11553SOL     OW35228   5.125   6.004   4.572  0.0774  0.0351  0.3278
11553SOL    HW135229   5.203   5.954   4.596  0.9828  0.4335 -1.5606
11553SOL    HW235230   5.113   6.066   4.644  1.2159 -0.3508  0.8832
11554SOL     OW35231   6.407   5.111   2.444  0.4875 -0.1014 -0.9865
11554SOL    HW135232   6.470   5.181   2.424  0.7855  1.0006  2.8472
11554SOL    HW235233   6.338   5.155   2.493  0.0360 -2.2666  0.4713
11555SOL     OW35234   0.606   1.285   2.329 -0.5758  0.0982  0.3269
11555SOL    HW135235   0.639   1.208   2.375 -0.6765 -0.8351 -1.1107
11555SOL    HW235236   0.610   1.355   2.394  0.2254 -0.9428  1.4415
11556SOL     OW35237   0.104   2.325   1.087  0.7445 -0.5957  0.1047
11556SOL    HW135238   0.076   2.290   1.002  1.6895 -1.8153  0.2689
11556SOL    HW235239   0.145   2.251   1.131  1.8528  0.4601  0.9210
11557SOL     OW35240   5.308   2.516   3.539  0.7176 -0.5527 -0.6548
11557SOL    HW135241   5.375   2.577   3.507 -0.2773  0.3489 -1.0892
11557SOL    HW235242   5.312   2.443   3.478  0.8977 -0.2271 -1.0433
11558SOL     OW35243   6.787   4.836   4.212 -0.3506 -0.0424 -0.2764
11558SOL    HW135244   6.833   4.871   4.136 -0.6296 -0.1503 -0.4960
11558SOL    HW235245   6.696   4.827   4.183 -0.1152 -1.8837 -0.5341
11559SOL     OW35246   1.402   3.982   0.109 -0.3974  0.3043 -0.0690
11559SOL    HW135247   1.368   3.968   0.021  1.2826 -1.5795 -0.5051
11559SOL    HW235248   1.403   4.077   0.120  0.2515  0.6533 -2.4937
11560SOL     OW35249   4.071   3.717   1.688  0.6122 -0.6956 -0.1058
11560SOL    HW135250   3.998   3.655   1.695 -0.2146  0.1935 -0.5855
11560SOL    HW235251   4.031   3.803   1.703  1.4533 -0.1364 -0.9142
11561SOL     OW35252   4.503   2.229   2.712  0.2061 -0.0997  0.0667
11561SOL    HW135253   4.507   2.221   2.807  0.6932  1.2569  0.1891
11561SOL    HW235254   4.429   2.175   2.686 -0.3599  0.0629  1.2915
11562SOL     OW35255   0.229   1.321   1.556 -0.3344 -0.1474 -0.4544
11562SOL    HW135256   0.294   1.389   1.575  0.3902 -1.3029  1.4564
11562SOL    HW235257   0.182   1.355   1.480 -0.1750  2.6189  0.5445
11563SOL     OW35258   4.553   1.234   2.946 -0.6241  0.4688 -0.0102
11563SOL    HW135259   4.550   1.151   2.899 -1.0240  0.3744  0.1829
11563SOL    HW235260   4.489   1.290   2.902  0.2595  0.9721 -0.6903
11564SOL     OW35261   5.965   0.567   1.090  0.4717  0.1144 -0.3741
11564SOL    HW135262   5.910   0.609   1.156 -0.2496 -1.3192 -0.0209
11564SOL    HW235263   6.055   0.581   1.122  0.1264 -3.4211  2.9543
11565SOL     OW35264   1.132   0.000   5.473 -0.0127  0.0021  0.1882
11565SOL    HW135265   1.077   0.030   5.545  1.5287 -0.6458  1.7169
11565SOL    HW235266   1.177   0.079   5.443 -0.8762  0.3251 -0.2737
11566SOL     OW35267   6.524   1.268   4.505  0.5651 -0.0386  0.5256
11566SOL    HW135268   6.473   1.193   4.536  0.9368 -1.1490 -1.4019
11566SOL    HW235269   6.614   1.237   4.501  1.0965  1.2216  1.7570
11567SOL     OW35270   1.335   7.338   3.842 -0.5778  0.1289 -0.1606
11567SOL    HW135271   1.304   7.398   3.774 -2.0323 -0.2604  0.1379
11567SOL    HW235272   1.276   7.264   3.838 -0.5706  0.0043  1.3912
11568SOL     OW35273   2.658   4.604   0.950  0.5577  0.3138  0.3292
11568SOL    HW135274   2.672   4.578   0.859 -1.3463  0.1151  0.0470
11568SOL    HW235275   2.564   4.623   0.955  0.9307  1.9929  1.8503
11569SOL     OW35276   2.111   4.157   6.088  0.6214 -0.2394 -0.2181
11569SOL    HW135277   2.061   4.106   6.151 -0.1571  0.4696 -0.2505
11569SOL    HW235278   2.053   4.166   6.013  0.2560  1.7111  0.2500
11570SOL     OW35279   5.019   5.617   3.669 -0.2230 -0.0786 -0.4026
11570SOL    HW135280   5.114   5.609   3.680 -0.0506  1.7347 -0.3990
11570SOL    HW235281   5.002   5.575   3.584  0.7710  0.6783 -0.9973
11571SOL     OW35282   3.215   0.691   1.734  0.8136  0.6609  0.2712
11571SOL    HW135283   3.133   0.715   1.777  0.4433  0.4867 -0.3364
11571SOL    HW235284   3.194   0.613   1.684  1.0464  1.2858 -0.8228
11572SOL     OW35285   6.142   0.946   0.542  0.2309  0.3583  0.3581
11572SOL    HW135286   6.133   0.987   0.456 -0.1425  0.3516  0.3929
11572SOL    HW235287   6.118   0.855   0.528  0.5075  0.2779  0.3995
11573SOL     OW35288   6.819   6.763   6.619  0.5258  0.2200  0.0739
11573SOL    HW135289   6.872   6.692   6.582  1.9035  1.2137  0.0640
11573SOL    HW235290   6.758   6.787   6.550 -0.7886 -1.7292  0.4866
11574SOL     OW35291   1.080   2.685   1.067  0.2433 -0.4354 -0.1687
11574SOL    HW135292   1.049   2.751   1.006  0.3044  0.4629  0.7448
11574SOL    HW235293   1.174   2.698   1.073  0.7187 -2.4258 -2.0701
11575SOL     OW35294   1.894   0.384   3.933  0.7345 -0.1676  0.8672
11575SOL    HW135295   1.941   0.467   3.932 -0.8973  0.8082 -0.0479
11575SOL    HW235296   1.853   0.380   4.019  0.1680  0.3748  0.6254
11576SOL     OW35297   0.672   0.236   0.517  0.1355 -0.2237  0.3268
11576SOL    HW135298   0.621   0.166   0.476  0.4703  0.2664 -0.9654
11576SOL    HW235299   0.714   0.194   0.592  0.3683 -1.4231 -0.4481
11577SOL     OW35300   0.637   6.461   5.724 -0.2325 -0.2599  0.3071
11577SOL    HW135301   0.662   6.369   5.723  0.1050 -0.3298  3.9663
11577SOL    HW235302   0.548   6.461   5.759  0.0289  0.8188  1.0152
11578SOL     OW35303   1.825   6.508   4.954 -0.9957 -0.2003  0.5726
11578SOL    HW135304   1.742   6.508   4.907 -0.4126 -2.2930 -0.5868
11578SOL    HW235305   1.825   6.426   5.003  0.6877 -0.6259 -0.0591
11579SOL     OW35306   4.170   4.753   1.677 -0.7250 -0.2632  0.0890
11579SOL    HW135307   4.119   4.829   1.651 -0.3109  0.4942  1.4148
11579SOL    HW235308   4.108   4.680   1.672 -2.0560  0.6666  1.8760
11580SOL     OW35309   6.871   7.324   7.075 -0.1557  0.3791 -0.4391
11580SOL    HW135310   6.859   7.416   7.098  1.6894  0.8964 -1.3213
11580SOL    HW235311   6.865   7.322   6.979 -1.0514 -0.5768 -0.3743
11581SOL     OW35312   2.356   6.620   4.559  0.1718  0.3881  0.2000
11581SOL    HW135313   2.302   6.691   4.524 -1.9955 -0.6309  1.3041
11581SOL    HW235314   2.357   6.634   4.654  1.8871  0.3473  0.2368
11582SOL     OW35315   5.536   7.049   6.809 -0.1510  0.2182 -0.3687
11582SOL    HW135316   5.622   7.067   6.849 -0.2378 -0.9657  0.4076
11582SOL    HW235317   5.498   7.136   6.796  0.4845  0.7143  0.8328
11583SOL     OW35318   1.234   5.688   4.430  0.3032 -0.0990  0.1345
11583SOL    HW135319   1.188   5.702   4.513 -0.3255 -3.1033  0.4421
11583SOL    HW235320   1.306   5.628   4.453  1.3418  0.5985 -1.1861
11584SOL     OW35321   6.159   5.632   1.506  0.1217  0.1341  0.3344
11584SOL    HW135322   6.140   5.586   1.588 -0.2971  2.3700  1.5678
11584SOL    HW235323   6.252   5.615   1.490 -0.1125 -1.4489  0.4968
11585SOL     OW35324   6.253   1.509   1.432  0.2143  0.5330  0.1059
11585SOL    HW135325   6.236   1.599   1.460  0.8800  1.1182 -1.2710
11585SOL    HW235326   6.292   1.467   1.508  0.9249  1.7364  0.4325
11586SOL     OW35327   6.893   4.140   0.394 -0.2981  0.5802 -0.5298
11586SOL    HW135328   6.883   4.060   0.445 -1.7617  2.1007  1.7406
11586SOL    HW235329   6.924   4.110   0.308  0.3913 -2.2650  0.6081
11587SOL     OW35330   6.547   1.662   0.735 -0.4587 -0.0829  0.7103
11587SOL    HW135331   6.564   1.585   0.790  0.4557  0.0174  0.5781
11587SOL    HW235332   6.479   1.632   0.675  1.0150 -1.3455 -0.4143
11588SOL     OW35333   6.010   4.542   7.147 -0.1747  0.2845 -0.0037
11588SOL    HW135334   5.983   4.486   7.074 -0.2402  0.0541  0.1968
11588SOL    HW235335   6.006   4.631   7.111 -1.6142  0.3063  0.1342
11589SOL     OW35336   4.568   0.122   6.938  0.5662 -0.2970  0.1623
11589SOL    HW135337   4.554   0.181   6.864  0.8612 -0.5339 -0.0881
11589SOL    HW235338   4.574   0.179   7.014  0.5783 -0.0233 -0.0439
11590SOL     OW35339   2.703   6.039   0.832 -0.5367 -0.0907  0.4681
11590SOL    HW135340   2.798   6.027   0.840 -0.1742  1.7794 -0.4483
11590SOL    HW235341   2.676   6.072   0.917  0.0164  1.2822  0.1468
11591SOL     OW35342   3.035   3.220   4.439  0.3069  0.8817 -0.5472
11591SOL    HW135343   3.103   3.154   4.456  1.6868  2.1321 -0.9642
11591SOL    HW235344   3.015   3.210   4.346 -1.4144 -0.6295 -0.0884
11592SOL     OW35345   5.122   5.909   1.565  0.0071  0.3079  0.0806
11592SOL    HW135346   5.164   5.985   1.526 -0.0013 -0.9944 -2.6866
11592SOL    HW235347   5.085   5.942   1.647  0.4560  3.1206 -0.7322
11593SOL     OW35348   2.666   6.332   3.379  0.0343 -0.3982 -0.2858
11593SOL    HW135349   2.690   6.400   3.442 -0.1341 -0.4859 -0.1243
11593SOL    HW235350   2.716   6.255   3.407  1.6980  0.1610 -1.5994
11594SOL     OW35351   1.729   5.068   0.467  0.4255  0.2801  0.0518
11594SOL    HW135352   1.805   5.085   0.411  0.8815 -0.4930  0.4218
11594SOL    HW235353   1.716   5.150   0.515  1.4968  0.1790  0.5372
11595SOL     OW35354   3.883   6.340   1.215  0.1539 -0.5171  0.4609
11595SOL    HW135355   3.893   6.245   1.217  0.5988 -0.5038 -0.6881
11595SOL    HW235356   3.957   6.373   1.267  1.0634 -0.7475 -0.6540
11596SOL     OW35357   5.639   4.031   4.138  0.0122 -1.0851  0.4985
11596SOL    HW135358   5.643   3.991   4.051  1.8499 -0.7051  0.3493
11596SOL    HW235359   5.546   4.047   4.154 -0.3780 -1.4335 -1.2651
11597SOL     OW35360   5.888   1.925   5.225 -0.4306  0.4133 -0.0214
11597SOL    HW135361   5.815   1.910   5.285 -2.0399 -0.6575 -2.1084
11597SOL    HW235362   5.889   1.848   5.168  2.3913  0.3739 -0.0872
11598SOL     OW35363   1.056   2.396   2.379  0.0311 -0.6194  0.2949
11598SOL    HW135364   0.985   2.410   2.316 -0.1847 -0.4528  0.5736
11598SOL    HW235365   1.032   2.448   2.455  0.7804 -0.0394  0.1444
11599SOL     OW35366   7.309   6.089   0.578  0.0468 -0.1490  0.0893
11599SOL    HW135367   7.233   6.136   0.543  0.3098 -0.1340 -0.4702
11599SOL    HW235368   7.274   6.036   0.650 -0.6023 -0.6209 -0.5631
11600SOL     OW35369   7.164   5.321   0.097 -0.3453  0.6251  0.2326
11600SOL    HW135370   7.234   5.341   0.035  0.1797 -0.1143  0.5719
11600SOL    HW235371   7.196   5.356   0.180  0.0404 -0.4957  0.5757
11601SOL     OW35372   5.870   0.235   2.410  0.1755  0.4800 -0.0619
11601SOL    HW135373   5.900   0.307   2.355 -1.1465  0.5646 -0.7156
11601SOL    HW235374   5.894   0.261   2.499 -0.2418  1.7174 -0.2917
11602SOL     OW35375   5.636   0.478   3.910  0.3077 -0.2111  0.9470
11602SOL    HW135376   5.716   0.518   3.875  1.2679 -1.7806  1.2207
11602SOL    HW235377   5.565   0.516   3.859  1.4150 -0.3102 -0.7235
11603SOL     OW35378   3.300   4.801   1.287  0.3321 -0.2186 -0.2201
11603SOL    HW135379   3.330   4.724   1.336  1.1700 -0.1199 -0.5734
11603SOL    HW235380   3.277   4.766   1.201 -0.3377 -0.2511 -0.0312
11604SOL     OW35381   4.221   6.136   1.803 -0.0718  0.4983  0.1955
11604SOL    HW135382   4.173   6.188   1.867 -2.0003 -2.4174  1.3089
11604SOL    HW235383   4.278   6.199   1.758 -0.4537  3.0793  3.0436
11605SOL     OW35384   0.577   0.807   2.782 -0.1226 -0.2045  0.3595
11605SOL    HW135385   0.657   0.857   2.796  1.2134 -1.5210 -1.8915
11605SOL    HW235386   0.507   0.872   2.785  1.3002  1.4414 -0.2074
11606SOL     OW35387   6.496   6.936   5.211 -0.9156  0.1002  0.4512
11606SOL    HW135388   6.495   6.951   5.305 -0.5006 -0.9828  0.6476
11606SOL    HW235389   6.588   6.948   5.186 -1.0172  0.3397  0.1971
11607SOL     OW35390   5.647   5.950   1.046 -0.3089  0.2341 -0.2414
11607SOL    HW135391   5.656   5.965   1.140 -1.2021 -0.4774 -0.0173
11607SOL    HW235392   5.575   6.007   1.019  0.7203  1.3099 -0.7390
11608SOL     OW35393   7.183   2.549   2.622  0.2749 -0.7547  0.3414
11608SOL    HW135394   7.224   2.493   2.688  0.0768  0.4074  1.4911
11608SOL    HW235395   7.089   2.540   2.639  0.2267 -0.3979  0.2679
11609SOL     OW35396   7.142   0.619   4.570  0.1222  0.5022 -0.5126
11609SOL    HW135397   7.115   0.607   4.479 -2.3898 -0.4752  0.2843
11609SOL    HW235398   7.080   0.566   4.621  1.1561  1.3953  1.8161
11610SOL     OW35399   3.059   4.277   3.177 -0.1032 -0.2096  0.0789
11610SOL    HW135400   3.111   4.266   3.098 -0.6803 -2.4979 -0.0371
11610SOL    HW235401   2.969   4.289   3.146  0.0104  1.6566  0.3456
11611SOL     OW35402   6.264   2.707   7.040 -0.7245 -0.1046  0.2310
11611SOL    HW135403   6.209   2.721   6.963 -0.3247  1.2385  0.1668
11611SOL    HW235404   6.267   2.792   7.084 -2.0697 -1.1408  2.5098
11612SOL     OW35405   5.162   3.044   5.872  0.3488  0.7386  0.2613
11612SOL    HW135406   5.127   2.960   5.843  0.2098  0.7895  0.2796
11612SOL    HW235407   5.105   3.110   5.831  0.9711  0.8541 -0.4397
11613SOL     OW35408   0.619   2.548   0.066  0.4046 -0.1011 -0.1169
11613SOL    HW135409   0.666   2.515   0.143  2.0400 -0.9949 -1.4396
11613SOL    HW235410   0.607   2.471   0.011 -0.6291  0.5528 -0.8249
11614SOL     OW35411   5.494   3.866   5.560  0.1475  0.1919  0.2741
11614SOL    HW135412   5.433   3.927   5.518  0.6011 -0.1458 -0.9163
11614SOL    HW235413   5.571   3.865   5.502  0.6061 -0.6451  0.8744
11615SOL     OW35414   4.488   1.814   2.322 -0.3007 -0.4487  0.1488
11615SOL    HW135415   4.414   1.760   2.348 -0.2236 -0.3835  0.5115
11615SOL    HW235416   4.513   1.861   2.401 -1.2296  1.1621 -0.4827
11616SOL     OW35417   6.170   4.104   1.579 -0.5039  0.4128  0.0524
11616SOL    HW135418   6.079   4.133   1.569 -0.3251  1.1571  0.5067
11616SOL    HW235419   6.201   4.149   1.657  0.6584  1.2025 -0.8298
11617SOL     OW35420   1.608   1.847   1.460 -0.4057 -0.2054 -0.4206
11617SOL    HW135421   1.657   1.765   1.457 -0.9827 -0.5463 -0.7478
11617SOL    HW235422   1.648   1.902   1.393  0.4443  0.0527  0.2811
11618SOL     OW35423   0.959   5.551   0.126  0.6551 -0.0821  0.4116
11618SOL    HW135424   0.875   5.507   0.136 -0.1770  1.1030 -1.0156
11618SOL    HW235425   0.955   5.625   0.187  1.0977 -0.5788  1.0677
11619SOL     OW35426   0.056   1.410   0.760 -0.1191  0.5855  0.5372
11619SOL    HW135427   0.146   1.387   0.782 -0.0535  0.1868 -0.1135
11619SOL    HW235428   0.015   1.326   0.740 -0.3392  0.8784 -0.2413
11620SOL     OW35429   5.155   7.073   4.575  0.1100 -0.2795 -0.3041
11620SOL    HW135430   5.134   7.067   4.668  2.1317 -1.8508  0.1130
11620SOL    HW235431   5.230   7.133   4.571  0.0029 -0.1762 -0.9427
11621SOL     OW35432   6.746   2.948   6.728  0.2933 -0.3165  0.2670
11621SOL    HW135433   6.756   3.043   6.728  0.3124 -0.2818 -1.8740
11621SOL    HW235434   6.835   2.915   6.740  0.2845 -0.0965  1.0307
11622SOL     OW35435   5.623   2.179   5.911  0.5675 -0.0447 -0.3916
11622SOL    HW135436   5.669   2.182   5.827  0.7257  0.7667 -0.2832
11622SOL    HW235437   5.651   2.258   5.957  0.0642 -0.2031  0.2070
11623SOL     OW35438   2.944   0.487   3.887  0.3366 -0.1167 -0.0361
11623SOL    HW135439   2.972   0.507   3.976  1.9028  1.5887 -0.8376
11623SOL    HW235440   2.863   0.537   3.876  0.0038 -0.5314  0.5112
11624SOL     OW35441   2.336   6.934   5.285  0.3157  0.2951  0.1873
11624SOL    HW135442   2.292   6.953   5.368  1.6059  1.2305  0.6810
11624SOL    HW235443   2.271   6.958   5.218 -0.7850 -0.6030  0.9082
11625SOL     OW35444   2.235   4.140   1.373 -0.9886 -0.2369 -0.1724
11625SOL    HW135445   2.257   4.213   1.430  1.0556 -1.5998  0.9259
11625SOL    HW235446   2.211   4.069   1.433 -0.9637 -1.0566 -1.0936
11626SOL     OW35447   6.600   4.522   1.429 -0.2378  0.4558  0.4710
11626SOL    HW135448   6.522   4.517   1.484 -0.4066 -0.8842  0.1557
11626SOL    HW235449   6.599   4.610   1.393 -1.3009  0.6373  0.9057
11627SOL     OW35450   1.311   2.832   1.647  0.4644 -0.5773 -0.0087
11627SOL    HW135451   1.274   2.889   1.580  1.5421  2.0350  1.4759
11627SOL    HW235452   1.321   2.888   1.724 -0.8560 -3.4436  2.4774
11628SOL     OW35453   6.557   3.130   4.567 -0.5824 -0.1517 -0.1815
11628SOL    HW135454   6.516   3.049   4.596  1.3834 -1.1314 -0.0045
11628SOL    HW235455   6.586   3.112   4.477  2.1172 -0.5956  0.7058
11629SOL     OW35456   3.295   6.542   7.121 -0.6116  0.3542 -0.1021
11629SOL    HW135457   3.356   6.609   7.091 -0.7997  0.8319  0.5637
11629SOL    HW235458   3.294   6.477   7.050 -0.1692  0.8810 -0.6007
11630SOL     OW35459   0.373   4.377   1.310  0.1816 -0.5984 -0.0054
11630SOL    HW135460   0.288   4.387   1.353  0.9329 -0.1676  1.4623
11630SOL    HW235461   0.426   4.327   1.373  0.2186 -3.3135 -2.0450
11631SOL     OW35462   7.432   2.436   3.207  0.5373 -0.1419 -0.3406
11631SOL    HW135463   7.341   2.430   3.236  0.2737  1.4756 -0.7504
11631SOL    HW235464   7.427   2.462   3.115  1.3702 -4.6208 -1.9219
11632SOL     OW35465   4.720   3.595   6.445  0.1770  0.6284  0.0097
11632SOL    HW135466   4.686   3.632   6.526 -4.3600 -1.6534 -0.5539
11632SOL    HW235467   4.749   3.507   6.468 -0.1009  0.3572 -0.6401
11633SOL     OW35468   6.333   6.593   3.235  0.1849  0.1712 -0.2608
11633SOL    HW135469   6.307   6.574   3.326  0.3832  0.7899 -0.0714
11633SOL    HW235470   6.405   6.655   3.243 -0.7984  1.4428 -0.8694
11634SOL     OW35471   4.848   3.197   6.433 -0.1613  0.3259  0.5389
11634SOL    HW135472   4.753   3.186   6.426 -0.4000  2.6247 -1.1235
11634SOL    HW235473   4.881   3.171   6.347  0.4395  1.5866  0.3706
11635SOL     OW35474   6.594   0.171   0.178 -0.0037  0.0752  0.5465
11635SOL    HW135475   6.543   0.211   0.249  0.2564  0.0657  0.7432
11635SOL    HW235476   6.642   0.099   0.221  0.7724  0.5703  0.5297
11636SOL     OW35477   1.078   0.212   5.672 -0.3357  0.0537 -0.2709
11636SOL    HW135478   1.065   0.292   5.620  1.1864  0.0730 -0.6814
11636SOL    HW235479   1.128   0.241   5.748 -2.0585 -0.0793  0.9601
11637SOL     OW35480   5.598   0.179   1.162 -0.1862 -0.4695 -1.3039
11637SOL    HW135481   5.616   0.111   1.227 -1.3948  0.3508 -0.0380
11637SOL    HW235482   5.683   0.197   1.121  1.1022  0.4053  1.5061
11638SOL     OW35483   1.650   0.329   2.136 -0.1699  0.0789 -0.7956
11638SOL    HW135484   1.703   0.404   2.163 -1.7746  1.4164 -1.1413
11638SOL    HW235485   1.622   0.351   2.046 -1.2930 -0.5342 -0.6163
11639SOL     OW35486   5.554   4.556   0.705 -0.0302 -0.2551  0.0084
11639SOL    HW135487   5.514   4.617   0.768  1.4600 -0.1040  0.8448
11639SOL    HW235488   5.597   4.491   0.760 -0.9041 -1.6287 -0.8847
11640SOL     OW35489   0.475   1.200   6.172  0.2849 -0.6097 -0.4780
11640SOL    HW135490   0.539   1.263   6.205  0.7842 -0.5600 -1.5195
11640SOL    HW235491   0.408   1.254   6.130 -0.7203 -0.6293  1.0238
11641SOL     OW35492   0.132   7.255   0.700  0.4852 -0.0503 -0.0797
11641SOL    HW135493   0.198   7.191   0.727  1.3140  0.3057 -1.2018
11641SOL    HW235494   0.065   7.203   0.656  0.5103 -0.2976  0.1717
11642SOL     OW35495   5.913   4.055   1.946  0.0610 -0.1109  0.1281
11642SOL    HW135496   6.007   4.056   1.965  0.3063 -0.2652 -1.0090
11642SOL    HW235497   5.873   4.099   2.022  0.9620 -0.7793  1.0207
11643SOL     OW35498   1.002   4.018   3.066 -0.0014  0.1476  0.2816
11643SOL    HW135499   1.084   4.013   3.116  0.2300  0.9566  0.0013
11643SOL    HW235500   1.002   3.939   3.013  1.0694  0.5724 -0.4005
11644SOL     OW35501   4.866   6.870   3.509 -0.0411 -0.3358 -0.1744
11644SOL    HW135502   4.775   6.844   3.526 -0.1005 -0.6128 -0.9023
11644SOL    HW235503   4.859   6.943   3.448  0.1920  0.3423  0.5844
11645SOL     OW35504   1.190   2.576   7.299 -0.1642  0.0555  0.4969
11645SOL    HW135505   1.143   2.539   7.225  1.2494  0.3832 -0.6304
11645SOL    HW235506   1.122   2.609   7.357 -1.3375 -0.9175 -0.2710
11646SOL     OW35507   3.978   1.553   1.245 -0.6929 -0.3460 -0.0035
11646SOL    HW135508   3.924   1.487   1.289 -2.4189  0.4945 -0.7819
11646SOL    HW235509   3.975   1.629   1.303 -0.1484 -0.3599  0.0487
11647SOL     OW35510   4.850   5.354   5.249  0.0582  0.4840 -0.0171
11647SOL    HW135511   4.823   5.429   5.196  1.5184  0.8916 -0.2260
11647SOL    HW235512   4.771   5.302   5.259 -0.8795  1.8139 -0.2677
11648SOL     OW35513   4.329   0.479   1.530  0.2400  0.0691  0.3329
11648SOL    HW135514   4.306   0.394   1.569  0.8707 -1.2386 -1.9801
11648SOL    HW235515   4.415   0.465   1.491  0.4580  1.8673  0.1156
11649SOL     OW35516   5.574   7.018   5.694 -0.1304 -0.2035 -0.5512
11649SOL    HW135517   5.531   6.942   5.734 -0.6527  0.3527 -0.0344
11649SOL    HW235518   5.586   6.993   5.603  0.2422 -1.1378 -0.2582
11650SOL     OW35519   3.612   5.008   6.722 -0.9925  0.0601  0.1778
11650SOL    HW135520   3.520   4.982   6.729 -0.4021 -2.1694  0.5824
11650SOL    HW235521   3.647   4.992   6.810  0.3236 -1.6048 -0.5972
11651SOL     OW35522   3.530   1.212   3.647  0.1672 -0.5764 -0.1733
11651SOL    HW135523   3.580   1.286   3.683 -0.0971 -0.7241  0.5211
11651SOL    HW235524   3.571   1.194   3.563  0.3581  0.2403 -0.2632
11652SOL     OW35525   0.140   6.755   0.610 -0.2815 -0.5298 -0.3652
11652SOL    HW135526   0.060   6.749   0.662  1.0100 -2.4170  1.6170
11652SOL    HW235527   0.196   6.815   0.659 -0.7685  1.6409 -2.2999
11653SOL     OW35528   7.385   1.938   1.827 -0.5990 -0.2157  0.3229
11653SOL    HW135529   7.395   1.925   1.922 -1.1535 -0.8744  0.2950
11653SOL    HW235530   7.426   2.023   1.811  1.2582 -0.9654  0.8441
11654SOL     OW35531   4.680   7.266   1.341  0.3935  0.4460  0.2183
11654SOL    HW135532   4.725   7.265   1.256 -0.0330 -1.0444 -0.0293
11654SOL    HW235533   4.732   7.207   1.396 -0.7291 -0.6180  0.1876
11655SOL     OW35534   1.050   0.118   3.960 -0.5272  0.1055  0.0409
11655SOL    HW135535   0.981   0.072   3.910  0.4354 -2.2355  0.7094
11655SOL    HW235536   1.061   0.064   4.039  1.4727  0.9100  0.3483
11656SOL     OW35537   2.842   3.007   3.867  0.0155  0.2507  0.0352
11656SOL    HW135538   2.833   3.056   3.949  1.1862 -0.9247  0.9302
11656SOL    HW235539   2.799   2.923   3.884 -1.5451  0.7474 -1.2981
11657SOL     OW35540   6.984   0.197   2.748  0.2664  0.6171 -0.1453
11657SOL    HW135541   7.038   0.217   2.672  2.9566 -0.3586  1.3861
11657SOL    HW235542   6.974   0.280   2.793 -0.9708  1.1129 -1.2458
11658SOL     OW35543   4.472   5.008   5.300 -0.3099  0.0249  0.6336
11658SOL    HW135544   4.385   4.987   5.268  0.0852  1.2414 -1.4464
11658SOL    HW235545   4.521   4.927   5.294 -1.3854 -0.8226  2.3876
11659SOL     OW35546   2.754   4.042   2.323  0.4083  0.1314  0.0914
11659SOL    HW135547   2.672   4.025   2.369 -0.2304  1.2097 -0.6054
11659SOL    HW235548   2.775   3.959   2.281 -1.2705  0.2840 -1.1553
11660SOL     OW35549   2.275   3.146   0.384 -0.0255 -0.4070 -0.2445
11660SOL    HW135550   2.236   3.061   0.402 -1.3980  0.0781 -0.7452
11660SOL    HW235551   2.257   3.198   0.462 -1.1203  0.0549 -0.7836
11661SOL     OW35552   5.972   5.681   6.399  0.0415  0.8583  0.2944
11661SOL    HW135553   5.920   5.678   6.319 -0.1564 -2.1314  0.4275
11661SOL    HW235554   5.942   5.605   6.450  1.4209  1.6404  2.3943
11662SOL     OW35555   2.438   2.028   7.195 -0.1994  0.1865 -0.8519
11662SOL    HW135556   2.419   2.112   7.154  0.7025 -0.2615 -2.2905
11662SOL    HW235557   2.503   2.048   7.262  0.7954  0.5332 -1.8877
11663SOL     OW35558   5.683   6.736   3.578  0.2702  0.3078 -0.8278
11663SOL    HW135559   5.609   6.706   3.630 -0.1708  0.7831 -1.1724
11663SOL    HW235560   5.747   6.767   3.643 -0.0839  0.4677 -0.5546
11664SOL     OW35561   1.493   0.529   6.232  0.2239  0.0363  0.6269
11664SOL    HW135562   1.549   0.573   6.296  1.6833 -0.2412 -0.3912
11664SOL    HW235563   1.542   0.535   6.150 -0.9778 -0.7776 -0.1862
11665SOL     OW35564   3.992   6.759   3.367 -0.4257 -0.0573 -0.4194
11665SOL    HW135565   4.064   6.746   3.429  1.6098  0.3415 -2.5487
11665SOL    HW235566   3.966   6.851   3.379 -1.3553 -0.4707  1.0550
11666SOL     OW35567   6.657   4.024   4.348  0.0843  0.6225 -0.4204
11666SOL    HW135568   6.568   3.998   4.328 -0.6933  2.4745  0.4045
11666SOL    HW235569   6.708   3.942   4.344 -1.7938 -0.6177 -0.0287
11667SOL     OW35570   0.042   2.465   6.559 -0.5319  0.2624 -0.1437
11667SOL    HW135571   0.123   2.468   6.611 -0.7257 -1.5719  0.3132
11667SOL    HW235572  -0.024   2.503   6.617 -0.5403 -0.8405  0.6136
11668SOL     OW35573   4.424   3.274   1.416 -0.2376  0.3111 -0.0924
11668SOL    HW135574   4.372   3.293   1.494  0.5551 -2.7011  1.3317
11668SOL    HW235575   4.361   3.243   1.352 -0.7337  1.3989 -0.1395
11669SOL     OW35576   1.735   7.221   6.197  0.1687 -0.9964 -0.0367
11669SOL    HW135577   1.774   7.234   6.110  0.0075  0.3580  0.0774
11669SOL    HW235578   1.641   7.229   6.182  0.0942 -1.4702  0.1571
11670SOL     OW35579   3.584   6.798   3.098  0.1256 -0.4973  0.3593
11670SOL    HW135580   3.643   6.729   3.127 -0.0066 -1.6055 -1.7758
11670SOL    HW235581   3.642   6.859   3.051 -0.1001 -0.4645  0.1207
11671SOL     OW35582   7.340   7.089   0.643  0.1034  0.5594  0.3523
11671SOL    HW135583   7.284   7.032   0.696  0.3455 -0.2233 -0.2173
11671SOL    HW235584   7.279   7.139   0.589 -0.1359 -2.7739 -2.8935
11672SOL     OW35585   2.295   0.569   2.968 -0.1902 -0.0682  0.0083
11672SOL    HW135586   2.357   0.540   2.902 -1.7227 -0.0275 -1.5222
11672SOL    HW235587   2.346   0.573   3.049  0.9986 -3.3907 -0.4257
11673SOL     OW35588   7.088   3.283   4.587  0.2584  0.5849  0.1605
11673SOL    HW135589   7.119   3.367   4.553  0.7955 -0.2074 -1.4068
11673SOL    HW235590   7.166   3.227   4.589 -0.2798 -0.1912  0.1362
11674SOL     OW35591   6.894   2.763   2.885 -0.7474 -0.3068  0.1091
11674SOL    HW135592   6.965   2.799   2.831  1.8367 -0.2088  3.2851
11674SOL    HW235593   6.896   2.669   2.866  0.2737 -0.3088  0.1664
11675SOL     OW35594   4.662   4.433   2.277  0.0439  0.2435  0.7728
11675SOL    HW135595   4.624   4.504   2.329  0.6235  0.6278  0.6867
11675SOL    HW235596   4.613   4.433   2.195  1.1713  1.6991  0.0671
11676SOL     OW35597   0.605   6.112   3.167 -0.1813  0.5746 -0.2561
11676SOL    HW135598   0.578   6.026   3.201  0.7751  0.6855  0.8475
11676SOL    HW235599   0.546   6.174   3.209  0.1497  0.5903  0.1943
11677SOL     OW35600   4.716   6.517   6.998  0.4150 -0.1382 -0.3853
11677SOL    HW135601   4.772   6.449   6.961  0.9351 -1.6042  2.7475
11677SOL    HW235602   4.627   6.489   6.979  0.6626 -0.8604 -0.4876
11678SOL     OW35603   4.632   4.691   7.200 -0.0256 -0.2801 -0.4915
11678SOL    HW135604   4.717   4.733   7.186 -0.9340  0.8649 -3.2332
11678SOL    HW235605   4.654   4.599   7.216  1.7594  0.1036 -0.4645
11679SOL     OW35606   6.784   3.083   6.313  0.1897 -0.2394 -0.0176
11679SOL    HW135607   6.781   3.144   6.386  2.1819  0.8153 -0.7456
11679SOL    HW235608   6.806   2.999   6.353  0.8578  0.2398  0.6590
11680SOL     OW35609   6.387   1.506   5.577  0.2726 -0.0575 -0.1003
11680SOL    HW135610   6.464   1.557   5.550  0.7883 -0.7223  0.0860
11680SOL    HW235611   6.351   1.554   5.652  1.0578 -0.2259  0.4015
11681SOL     OW35612   4.935   2.830   1.291  0.6718 -0.0871 -0.1060
11681SOL    HW135613   4.922   2.894   1.221  1.2644  0.7443  0.5134
11681SOL    HW235614   4.920   2.880   1.372  0.5584 -0.8836  0.3774
11682SOL     OW35615   4.533   5.187   0.672  0.4797  0.7851 -0.6236
11682SOL    HW135616   4.628   5.192   0.657  0.6886 -2.2599 -0.8011
11682SOL    HW235617   4.496   5.176   0.584  0.2437 -0.7271 -0.3592
11683SOL     OW35618   2.413   5.287   6.024  0.0995  0.6196  0.1338
11683SOL    HW135619   2.397   5.288   5.929 -0.6182 -1.2063  0.1949
11683SOL    HW235620   2.479   5.218   6.036  0.1655  0.8251  0.9557
11684SOL     OW35621   7.406   2.118   5.288 -0.6905  0.0702 -0.1636
11684SOL    HW135622   7.374   2.144   5.202  2.1034 -0.2293 -1.4102
11684SOL    HW235623   7.435   2.199   5.329 -1.4603  0.1347  0.2729
11685SOL     OW35624   4.813   6.215   0.822  0.0628  0.1119  0.4344
11685SOL    HW135625   4.790   6.132   0.863  3.4570 -0.3697  1.7389
11685SOL    HW235626   4.854   6.266   0.892  2.0505  1.0608 -1.2850
11686SOL     OW35627   2.566   1.412   4.819 -0.0741 -0.3555 -0.2230
11686SOL    HW135628   2.612   1.430   4.737  0.8870  0.1487  0.4065
11686SOL    HW235629   2.475   1.436   4.801  0.5161  1.9103 -0.4847
11687SOL     OW35630   6.618   0.012   5.951  0.1735 -0.2482  0.0984
11687SOL    HW135631   6.676   0.089   5.948  0.3292 -0.3635  0.1438
11687SOL    HW235632   6.643  -0.039   5.874  0.7403 -0.7368  0.6019
11688SOL     OW35633   2.834   0.428   1.258 -0.1802 -0.6421 -0.2829
11688SOL    HW135634   2.774   0.498   1.284  1.8893  1.0402  0.3316
11688SOL    HW235635   2.860   0.452   1.169  3.2588  1.6451  1.0881
11689SOL     OW35636   2.373   4.595   0.876  0.0438 -0.8444  0.2032
11689SOL    HW135637   2.290   4.604   0.829  0.1131 -0.0919  0.2136
11689SOL    HW235638   2.367   4.510   0.919 -0.8941 -0.6167  0.5362
11690SOL     OW35639   6.532   1.916   6.191 -0.1359  0.0388  0.0134
11690SOL    HW135640   6.599   1.849   6.205  0.5678  0.3599 -1.6518
11690SOL    HW235641   6.575   1.998   6.215 -0.3895  0.1031  0.2531
11691SOL     OW35642   3.934   1.638   5.904  0.2314  0.2483 -0.3449
11691SOL    HW135643   3.980   1.720   5.884 -1.1761  1.0087 -0.5737
11691SOL    HW235644   3.931   1.592   5.820  0.8871  0.0264 -0.2505
11692SOL     OW35645   7.419   1.445   2.041  0.3110 -0.1958 -0.1944
11692SOL    HW135646   7.407   1.529   1.998  0.1070 -0.1650 -0.0775
11692SOL    HW235647   7.477   1.464   2.115 -0.5477  0.0323  0.4270
11693SOL     OW35648   1.638   1.667   6.106 -0.1711 -0.0211  0.4371
11693SOL    HW135649   1.694   1.589   6.107  2.8684  1.9815  0.3084
11693SOL    HW235650   1.645   1.701   6.017 -1.3522  0.4935  0.5177
11694SOL     OW35651   1.424   5.802   3.253 -0.4067  0.0471  0.3165
11694SOL    HW135652   1.336   5.765   3.246  0.1973 -1.6591  1.3617
11694SOL    HW235653   1.462   5.791   3.166 -0.5257 -1.0811  0.4019
11695SOL     OW35654   4.951   5.874   7.247  0.2821 -0.3886 -0.0883
11695SOL    HW135655   4.966   5.902   7.337  1.4399 -0.4049 -0.2677
11695SOL    HW235656   4.952   5.778   7.251 -0.4908 -0.4045 -0.0007
11696SOL     OW35657   3.396   1.015   1.399  0.0456 -0.3114 -0.6922
11696SOL    HW135658   3.412   0.980   1.487  3.0600  0.4534 -0.8326
11696SOL    HW235659   3.406   0.940   1.341  0.4253 -0.3816 -0.5392
11697SOL     OW35660   3.820   4.769   3.986  0.4304  0.6598 -0.4257
11697SOL    HW135661   3.749   4.798   3.928  0.4373 -1.0124 -1.3369
11697SOL    HW235662   3.827   4.675   3.970  0.4212  0.1203  2.3613
11698SOL     OW35663   0.730   7.289   2.890 -0.4836  0.5279  0.8017
11698SOL    HW135664   0.812   7.336   2.873 -0.1231 -0.4334 -0.2342
11698SOL    HW235665   0.756   7.213   2.941 -0.5286 -0.3915 -0.4907
11699SOL     OW35666   2.159   2.358   6.891 -0.4537  0.3020 -0.3274
11699SOL    HW135667   2.197   2.272   6.913  1.3911  1.4466  1.3393
11699SOL    HW235668   2.191   2.375   6.802  1.1942  0.2409  0.2049
11700SOL     OW35669   0.598   1.183   7.180 -0.0794 -0.1893 -0.1971
11700SOL    HW135670   0.610   1.088   7.173  0.3270 -0.1511 -0.0179
11700SOL    HW235671   0.538   1.194   7.253  1.3008 -0.2235  0.9770
11701SOL     OW35672   7.235   4.417   7.004  0.0070  0.0334  0.1313
11701SOL    HW135673   7.193   4.398   7.088  0.1742  0.9824  0.4473
11701SOL    HW235674   7.219   4.510   6.990  0.4060 -0.0061 -0.6565
11702SOL     OW35675   6.612   3.522   3.539 -0.2116 -0.0285 -0.0599
11702SOL    HW135676   6.575   3.524   3.627 -0.7511  0.1502 -0.2868
11702SOL    HW235677   6.686   3.461   3.545 -0.3813 -0.1837  0.4634
11703SOL     OW35678   0.545   4.801   1.450 -0.0929  0.6577 -0.2624
11703SOL    HW135679   0.534   4.882   1.500  2.0210  2.0564 -1.8716
11703SOL    HW235680   0.627   4.764   1.481 -1.6680 -1.7147  1.4070
11704SOL     OW35681   3.791   3.025   1.481  0.2129  0.7231 -0.0649
11704SOL    HW135682   3.777   3.036   1.576 -1.6340  2.2947 -0.4424
11704SOL    HW235683   3.724   2.962   1.455  2.9333 -2.5069  0.1108
11705SOL     OW35684   6.902   6.197   0.980  0.4820 -0.1060 -0.0641
11705SOL    HW135685   6.897   6.118   1.034  0.6047  0.5699  0.9599
11705SOL    HW235686   6.996   6.209   0.965  0.3783 -1.0753 -1.6330
11706SOL     OW35687   5.387   6.369   2.359  0.3359  0.1807  0.1404
11706SOL    HW135688   5.436   6.378   2.440 -1.7053  0.0663  1.4443
11706SOL    HW235689   5.386   6.275   2.342 -1.5014 -0.1190  1.5364
11707SOL     OW35690   6.395   0.911   7.180 -0.2639 -0.6634 -0.0079
11707SOL    HW135691   6.448   0.887   7.104 -0.6850 -0.3119 -0.4190
11707SOL    HW235692   6.450   0.890   7.255  1.7390  2.4555 -0.4171
11708SOL     OW35693   1.803   6.226   3.928  0.2015 -0.0207 -0.0947
11708SOL    HW135694   1.812   6.155   3.864  0.9574 -1.3519  1.4226
11708SOL    HW235695   1.818   6.306   3.877 -2.2540 -0.7417 -2.2030
11709SOL     OW35696   5.865   6.585   3.406 -0.5643  0.1276  0.2364
11709SOL    HW135697   5.894   6.655   3.346  1.1350  0.0410  0.8971
11709SOL    HW235698   5.791   6.624   3.453  0.8136  1.8242  1.1321
11710SOL     OW35699   0.599   6.674   2.777 -0.3884 -0.3259 -0.2591
11710SOL    HW135700   0.664   6.605   2.792 -0.2986 -0.4448 -1.1370
11710SOL    HW235701   0.640   6.732   2.713  0.1911  1.4567  1.6073
11711SOL     OW35702   2.247   2.964   6.083 -1.0186  0.0314  0.8104
11711SOL    HW135703   2.272   2.966   6.176  1.6879  0.7980  0.1544
11711SOL    HW235704   2.197   2.883   6.074  3.0763 -2.9956  2.0216
11712SOL     OW35705   2.046   7.134   0.567  0.2544 -0.2076 -0.0327
11712SOL    HW135706   1.993   7.197   0.617  0.2827  1.4073 -1.9139
11712SOL    HW235707   2.006   7.133   0.480  2.3100 -0.1931 -1.0362
11713SOL     OW35708   1.726   5.315   5.349 -0.1944 -0.0639  0.0773
11713SOL    HW135709   1.705   5.288   5.438  2.9979 -0.9278  0.6686
11713SOL    HW235710   1.819   5.296   5.338 -0.1898  1.0669 -3.0832
11714SOL     OW35711   6.754   2.930   2.366 -0.2020 -0.3154  0.2471
11714SOL    HW135712   6.737   2.936   2.273  0.0264  0.8498  0.2639
11714SOL    HW235713   6.725   3.014   2.402  1.4605  0.0275  0.9127
11715SOL     OW35714   4.685   2.686   5.419 -0.0431  0.2258  0.0447
11715SOL    HW135715   4.721   2.639   5.343 -2.0508  0.6886 -1.2720
11715SOL    HW235716   4.649   2.617   5.475 -0.9830  0.0113 -0.7894
11716SOL     OW35717   3.975   1.713   0.760  0.1767  0.5848 -0.0314
11716SOL    HW135718   3.925   1.638   0.727  0.2508  0.4024  0.2690
11716SOL    HW235719   4.047   1.723   0.697  1.4665 -0.9865  1.0927
11717SOL     OW35720   5.509   6.409   7.108 -0.4396  0.0383 -0.2949
11717SOL    HW135721   5.457   6.399   7.188 -1.4079 -2.2664 -1.1244
11717SOL    HW235722   5.466   6.481   7.061 -0.5299  0.6743  0.7096
11718SOL     OW35723   5.569   3.902   5.813  0.5949  0.1794 -0.2504
11718SOL    HW135724   5.657   3.878   5.787  0.0919 -0.9312 -0.9870
11718SOL    HW235725   5.516   3.889   5.735 -0.1882  1.0735  0.1108
11719SOL     OW35726   5.824   1.569   3.839 -0.7227 -0.6906  0.2453
11719SOL    HW135727   5.896   1.625   3.868 -0.3501  0.0347 -1.9057
11719SOL    HW235728   5.793   1.527   3.919  1.1197  0.1016  1.4458
11720SOL     OW35729   6.115   0.536   3.874  0.0225 -0.3682  0.1342
11720SOL    HW135730   6.056   0.469   3.839 -1.0975  0.2406  0.7740
11720SOL    HW235731   6.156   0.495   3.950  0.1880 -0.6928 -0.1297
11721SOL     OW35732   5.505   3.516   2.987  0.3395 -0.3487  0.1323
11721SOL    HW135733   5.594   3.512   3.022  1.0723  0.1704 -1.5949
11721SOL    HW235734   5.452   3.551   3.059  1.5696 -0.3981  1.0837
11722SOL     OW35735   1.333   3.896   0.682  0.4023 -0.7499 -0.8119
11722SOL    HW135736   1.399   3.941   0.736  0.1320 -1.2110 -0.0779
11722SOL    HW235737   1.291   3.835   0.743 -0.6765 -0.4834 -1.2784
11723SOL     OW35738   6.697   1.388   5.091 -0.2600 -0.1757 -0.2292
11723SOL    HW135739   6.739   1.332   5.025 -0.5049 -0.7925  0.1294
11723SOL    HW235740   6.747   1.469   5.089  0.2653 -0.5029 -0.5857
11724SOL     OW35741   2.709   6.263   0.676 -0.0999  0.1466  0.5774
11724SOL    HW135742   2.704   6.171   0.700  0.2571 -0.0650 -0.1275
11724SOL    HW235743   2.617   6.290   0.666 -0.2802  0.3231  2.3817
11725SOL     OW35744   3.196   4.829   6.459 -0.0500  0.2144  0.2314
11725SOL    HW135745   3.143   4.756   6.492  1.1484 -0.5519  0.5290
11725SOL    HW235746   3.143   4.868   6.390 -1.9822  0.8850  1.9642
11726SOL     OW35747   2.793   6.702   6.484 -0.3075 -0.2099  0.1803
11726SOL    HW135748   2.833   6.649   6.415  0.8139 -0.3192  0.8760
11726SOL    HW235749   2.826   6.790   6.469 -0.0555 -0.2339  0.5555
11727SOL     OW35750   7.410   0.858   0.893 -0.1329 -0.1279 -0.4148
11727SOL    HW135751   7.315   0.842   0.891 -0.9168  3.5850 -2.1376
11727SOL    HW235752   7.434   0.853   0.985 -2.1523 -0.4716  0.1417
11728SOL     OW35753   5.287   6.519   3.478  0.4931  1.0829 -0.2647
11728SOL    HW135754   5.217   6.460   3.506  0.7806  1.1863  0.7296
11728SOL    HW235755   5.243   6.590   3.432 -0.0780  1.2481  0.5222
11729SOL     OW35756   5.039   7.380   4.885  0.5627 -0.2071  0.2920
11729SOL    HW135757   5.032   7.403   4.978  0.5016  0.2335  0.1788
11729SOL    HW235758   5.122   7.418   4.856 -0.0443  0.8078 -0.1574
11730SOL     OW35759   6.985   4.425   1.814  0.0544  0.2543  0.1163
11730SOL    HW135760   7.020   4.348   1.860 -1.4885 -1.7990 -1.9011
11730SOL    HW235761   7.063   4.472   1.784  1.0497 -0.5057  1.3712
11731SOL     OW35762   4.574   4.560   6.779 -0.0682  0.1457 -0.4717
11731SOL    HW135763   4.516   4.576   6.705 -0.6782 -0.2400 -0.0793
11731SOL    HW235764   4.593   4.648   6.814 -0.6706  0.2483 -0.4033
11732SOL     OW35765   5.806   1.272   5.290  0.0244  0.0493  0.0605
11732SOL    HW135766   5.744   1.210   5.252 -1.3495  0.2063  1.8994
11732SOL    HW235767   5.753   1.348   5.315  1.1846  0.7648  0.4684
11733SOL     OW35768   6.727   6.496   5.674  0.5966  0.4258  0.0708
11733SOL    HW135769   6.766   6.493   5.762 -0.7812  1.3082  0.7539
11733SOL    HW235770   6.677   6.578   5.673  0.5891  0.4350 -1.5548
11734SOL     OW35771   4.279   5.610   4.925 -0.1887 -0.1354 -0.1766
11734SOL    HW135772   4.356   5.631   4.977 -0.9324  1.5770  0.3035
11734SOL    HW235773   4.213   5.672   4.954 -0.2996  1.8441 -4.0323
11735SOL     OW35774   2.677   6.516   5.780 -0.0398  0.1146  0.6499
11735SOL    HW135775   2.632   6.507   5.696  0.1365  1.6877  0.3469
11735SOL    HW235776   2.768   6.532   5.756 -0.2254  2.0119  1.0414
11736SOL     OW35777   4.956   6.345   6.636  0.0545 -0.3344 -0.1545
11736SOL    HW135778   4.973   6.270   6.579 -0.7297  0.2297 -1.1643
11736SOL    HW235779   4.939   6.418   6.576 -0.8349  0.2824  0.8011
11737SOL     OW35780   3.214   3.437   2.952  0.2502  0.5744  0.6492
11737SOL    HW135781   3.282   3.376   2.980  1.1998  1.8732  1.2615
11737SOL    HW235782   3.132   3.398   2.983  0.6675 -1.0684 -0.1901
11738SOL     OW35783   1.211   6.398   7.137 -0.5592  0.0217  0.1787
11738SOL    HW135784   1.293   6.377   7.092 -1.3279 -1.1344 -0.7826
11738SOL    HW235785   1.223   6.487   7.170  0.9554 -0.0089 -0.2148
11739SOL     OW35786   3.927   4.693   7.016  0.1097  0.1220  0.4496
11739SOL    HW135787   3.959   4.765   6.962 -0.4903  0.4680  0.5366
11739SOL    HW235788   3.908   4.622   6.955 -0.1387  0.3540  0.2553
11740SOL     OW35789   5.877   4.694   3.781  0.0041  0.1448  0.0207
11740SOL    HW135790   5.934   4.754   3.733  0.5556 -0.3549  0.0365
11740SOL    HW235791   5.882   4.611   3.733  0.9552 -0.5090  1.1857
11741SOL     OW35792   4.161   2.157   6.178 -0.6934  0.3516  0.5735
11741SOL    HW135793   4.234   2.218   6.194  0.9809 -1.0710 -1.1175
11741SOL    HW235794   4.106   2.202   6.114 -0.6997  0.9864  1.0131
11742SOL     OW35795   6.673   0.949   6.961  0.4263  0.6101  0.3787
11742SOL    HW135796   6.719   0.986   6.885  1.3794 -1.9582 -0.4070
11742SOL    HW235797   6.624   0.875   6.925  0.3746 -0.2703  2.1711
11743SOL     OW35798   4.956   7.235   0.307 -0.1668 -0.3993  0.0513
11743SOL    HW135799   4.976   7.320   0.267 -0.7236 -0.2371  0.0990
11743SOL    HW235800   4.910   7.258   0.388 -0.7198 -0.7468 -0.1576
11744SOL     OW35801   3.362   6.169   3.813 -0.1858 -0.1382 -0.6461
11744SOL    HW135802   3.363   6.102   3.881  0.8243 -0.4747 -0.9798
11744SOL    HW235803   3.391   6.124   3.734 -2.1188  0.0485 -1.5184
11745SOL     OW35804   2.243   2.991   6.620  0.0890 -0.4958 -0.7432
11745SOL    HW135805   2.164   3.025   6.662  0.1464  0.2540 -1.2302
11745SOL    HW235806   2.303   2.973   6.692  0.1427  0.6662 -0.4800
11746SOL     OW35807   2.271   5.001   6.392 -0.0914 -0.0053 -0.3497
11746SOL    HW135808   2.365   5.011   6.406 -0.4458  1.3263  1.4222
11746SOL    HW235809   2.245   5.081   6.345 -0.4880  0.0539 -0.0318
11747SOL     OW35810   2.721   4.524   5.342 -0.0261  0.1874  0.4010
11747SOL    HW135811   2.765   4.579   5.277 -0.0965  0.4148  0.5467
11747SOL    HW235812   2.688   4.450   5.291 -2.4066  1.6308 -0.3228
11748SOL     OW35813   0.468   6.652   3.428  0.4718 -0.1735 -0.1934
11748SOL    HW135814   0.413   6.685   3.358 -0.5360  1.2142  1.1802
11748SOL    HW235815   0.423   6.573   3.459 -1.1431  1.2381  1.2679
11749SOL     OW35816   2.249   1.255   2.225 -0.3115  0.0968 -0.0330
11749SOL    HW135817   2.315   1.233   2.159 -1.3635 -0.8762 -0.7979
11749SOL    HW235818   2.229   1.172   2.268  1.5514  0.9540  2.7412
11750SOL     OW35819   2.971   3.365   5.749  0.2935  0.4973 -0.0426
11750SOL    HW135820   2.948   3.438   5.691 -1.8987 -0.7482 -0.8870
11750SOL    HW235821   3.066   3.357   5.741  0.6792  3.4699  0.4132
11751SOL     OW35822   0.031   0.144   1.946 -0.5571 -0.2228  0.6213
11751SOL    HW135823   0.074   0.094   1.877  0.2647 -0.8366  1.5481
11751SOL    HW235824  -0.062   0.119   1.939 -1.3408  2.8584 -2.8641
11752SOL     OW35825   3.070   3.572   0.038 -0.1594 -0.0403 -0.2989
11752SOL    HW135826   3.074   3.573   0.134  0.1158  0.1814 -0.3098
11752SOL    HW235827   3.126   3.499   0.012  2.1915  1.6791 -0.3755
11753SOL     OW35828   2.035   3.004   2.194 -0.3116  0.4161 -0.4788
11753SOL    HW135829   1.989   3.053   2.126 -0.3021 -0.2489 -0.9731
11753SOL    HW235830   2.043   2.915   2.159 -0.2981  0.0611  0.3827
11754SOL     OW35831   5.173   0.313   0.975  0.0117  0.1057  0.5393
11754SOL    HW135832   5.199   0.345   1.062  1.5925  0.6663 -0.0925
11754SOL    HW235833   5.253   0.322   0.923 -0.6555 -1.1279 -0.7249
11755SOL     OW35834   3.118   1.281   3.050  0.7644 -0.1472  0.5553
11755SOL    HW135835   3.032   1.284   3.009  0.9237  0.6127  0.2593
11755SOL    HW235836   3.140   1.373   3.067  1.7585 -0.2832  0.1064
11756SOL     OW35837   5.052   1.542   4.159 -0.4516  0.1409 -0.5280
11756SOL    HW135838   5.050   1.461   4.108 -2.8880  1.1050 -2.1507
11756SOL    HW235839   5.132   1.586   4.132  0.2032 -1.0882 -0.6520
11757SOL     OW35840   3.168   0.574   2.164 -0.0112 -0.4172 -0.4647
11757SOL    HW135841   3.080   0.545   2.138 -0.8269  1.3249  0.1998
11757SOL    HW235842   3.157   0.605   2.254  1.6804 -1.7133  0.2393
11758SOL     OW35843   3.910   4.130   3.097 -0.1869  0.7527  0.2780
11758SOL    HW135844   3.936   4.109   3.008 -2.7435 -0.9153 -0.1663
11758SOL    HW235845   3.850   4.204   3.088 -1.9457 -0.6142  0.3441
11759SOL     OW35846   7.072   4.934   1.951 -0.0348  0.2943 -0.4146
11759SOL    HW135847   7.066   4.985   2.032 -3.4144  0.5853 -0.6901
11759SOL    HW235848   7.056   4.844   1.979 -0.0658  0.2319 -0.6365
11760SOL     OW35849   0.032   6.276   0.965  0.4709 -0.3108  0.8037
11760SOL    HW135850   0.075   6.347   0.917 -0.2204 -0.6573 -0.3742
11760SOL    HW235851  -0.024   6.321   1.028  1.6683  0.1540  1.5772
11761SOL     OW35852   0.748   3.525   0.189 -0.3514  0.3133 -0.3575
11761SOL    HW135853   0.733   3.435   0.158  0.8849  0.5815 -1.8955
11761SOL    HW235854   0.669   3.572   0.163 -0.0532  0.1474 -1.6278
11762SOL     OW35855   3.477   3.132   6.731  0.3360  0.6492  0.4945
11762SOL    HW135856   3.549   3.070   6.731 -0.9624 -0.9023  0.2479
11762SOL    HW235857   3.406   3.088   6.684 -0.3787  2.6311 -0.3958
11763SOL     OW35858   0.179   5.740   0.362  0.6505  0.1171 -0.3805
11763SOL    HW135859   0.195   5.834   0.374  0.1161  0.1582  0.0565
11763SOL    HW235860   0.253   5.697   0.405  1.0221  0.3334 -0.7864
11764SOL     OW35861   7.426   1.475   5.995 -0.5561  0.2101 -0.0698
11764SOL    HW135862   7.357   1.465   6.060 -1.6002  1.7250 -0.8783
11764SOL    HW235863   7.497   1.418   6.026 -0.7764  1.2871  2.6726
11765SOL     OW35864   0.906   0.359   5.919 -0.3306  0.2980 -0.0982
11765SOL    HW135865   0.845   0.371   5.846 -0.2543  0.8887 -0.0701
11765SOL    HW235866   0.977   0.420   5.902  0.5136 -0.7263 -0.3767
11766SOL     OW35867   5.280   2.712   2.243  0.0670 -0.1800 -0.4834
11766SOL    HW135868   5.343   2.709   2.315 -0.4156 -1.3277 -0.0823
11766SOL    HW235869   5.255   2.620   2.230 -0.3613  0.0920 -1.6665
11767SOL     OW35870   4.109   0.209   0.857 -0.0577 -0.0930 -0.0265
11767SOL    HW135871   4.056   0.191   0.935 -0.2194  0.4346 -0.0119
11767SOL    HW235872   4.184   0.150   0.865  0.1291  0.2420  0.7370
11768SOL     OW35873   0.760   4.483   6.428  0.6085  0.5940  0.2409
11768SOL    HW135874   0.709   4.412   6.467  0.9590 -0.3997 -1.0432
11768SOL    HW235875   0.850   4.450   6.427  0.5446  0.3562 -1.8169
11769SOL     OW35876   5.698   1.222   4.935  0.0388  0.9049 -0.2402
11769SOL    HW135877   5.793   1.215   4.942 -0.0984 -0.2883  1.0649
11769SOL    HW235878   5.681   1.315   4.919  1.3755  1.3542  0.7689
11770SOL     OW35879   0.343   0.351   5.189 -0.2444 -0.0161  0.4882
11770SOL    HW135880   0.407   0.420   5.204 -0.3180 -0.2019  1.7805
11770SOL    HW235881   0.296   0.378   5.110  1.0764  0.3749 -0.2007
11771SOL     OW35882   7.030   6.420   1.504  0.2207  0.2395 -0.1199
11771SOL    HW135883   7.085   6.477   1.557  0.3833 -0.9559  1.0487
11771SOL    HW235884   7.018   6.467   1.422 -1.0897  2.7688  1.3888
11772SOL     OW35885   2.316   6.632   1.986 -0.2707  0.3733 -0.0159
11772SOL    HW135886   2.226   6.662   1.978 -1.7315 -2.9134  2.0938
11772SOL    HW235887   2.315   6.541   1.954  2.1813  0.0902  0.4589
11773SOL     OW35888   6.032   2.891   0.931  0.1898  0.1696 -0.2263
11773SOL    HW135889   5.960   2.909   0.870  0.3410  2.5744  0.2276
11773SOL    HW235890   6.000   2.817   0.983 -2.0017  1.1485 -0.0426
11774SOL     OW35891   3.598   2.897   6.474  0.0957  0.0535 -0.0131
11774SOL    HW135892   3.579   2.804   6.487 -1.7400  0.1292 -1.7189
11774SOL    HW235893   3.689   2.907   6.502  0.7870 -2.5501 -1.0380
11775SOL     OW35894   1.954   2.821   1.177  0.2919 -0.8136  0.4465
11775SOL    HW135895   1.971   2.761   1.104 -1.8416  0.1143 -0.8970
11775SOL    HW235896   1.956   2.908   1.138  0.7538 -0.1614  1.8627
11776SOL     OW35897   5.612   6.539   5.155  0.5925 -0.5099 -0.1067
11776SOL    HW135898   5.601   6.453   5.115 -0.4080 -0.4269 -0.0444
11776SOL    HW235899   5.601   6.523   5.248 -2.1111  0.0138 -0.2601
11777SOL     OW35900   7.225   1.084   6.944  0.0149  0.2380 -0.0734
11777SOL    HW135901   7.189   1.129   6.868  0.8430 -0.0756 -0.6724
11777SOL    HW235902   7.151   1.037   6.982 -0.8345  1.9359  0.4740
11778SOL     OW35903   1.881   1.196   3.782 -0.6936 -0.2846  0.0084
11778SOL    HW135904   1.898   1.279   3.826 -3.6139  0.0358  0.7262
11778SOL    HW235905   1.963   1.176   3.736  0.9754  1.6340  1.9182
11779SOL     OW35906   2.333   4.725   7.218  0.0683  0.0127 -0.4884
11779SOL    HW135907   2.397   4.790   7.249  0.3073 -0.7687  0.7174
11779SOL    HW235908   2.264   4.726   7.284 -0.8762  0.3701 -1.4434
11780SOL     OW35909   0.515   7.075   4.426  0.0269  0.2516 -0.0882
11780SOL    HW135910   0.510   7.163   4.463  1.9519  0.4015 -0.0628
11780SOL    HW235911   0.461   7.021   4.485  0.0871  1.1421  0.8077
11781SOL     OW35912   6.424   0.579   0.134 -0.0744  0.2631 -0.0363
11781SOL    HW135913   6.387   0.517   0.071  1.1985 -0.5623 -0.0124
11781SOL    HW235914   6.362   0.652   0.136 -0.6333 -0.1468 -1.4976
11782SOL     OW35915   5.763   1.237   4.515 -0.2523  0.0981 -0.1323
11782SOL    HW135916   5.846   1.262   4.474 -0.5257 -0.3245 -0.9736
11782SOL    HW235917   5.704   1.311   4.497 -0.6521 -0.4976 -1.3819
11783SOL     OW35918   2.679   6.783   0.225  0.1239 -0.4139  0.0416
11783SOL    HW135919   2.683   6.693   0.257 -1.4527 -0.8121 -0.7901
11783SOL    HW235920   2.765   6.798   0.185  1.2768 -0.6920  2.2671
11784SOL     OW35921   6.697   7.075   2.782  0.2193 -0.3198  0.1326
11784SOL    HW135922   6.687   7.087   2.876  0.1423  0.1141  0.0691
11784SOL    HW235923   6.607   7.076   2.748  0.1653 -1.6231  0.1889
11785SOL     OW35924   5.882   3.290   3.165  0.4298 -0.3379  0.0316
11785SOL    HW135925   5.941   3.351   3.210  0.9967 -1.2984  0.6167
11785SOL    HW235926   5.808   3.344   3.137  1.3505  0.8002 -0.2751
11786SOL     OW35927   6.081   1.443   3.667 -0.0168 -0.3742  0.1051
11786SOL    HW135928   6.142   1.429   3.595 -0.2688  0.2203 -0.2268
11786SOL    HW235929   6.118   1.392   3.740  0.2867 -0.9010 -0.4068
11787SOL     OW35930   6.705   6.189   4.734  0.0381  0.1225  0.4304
11787SOL    HW135931   6.731   6.165   4.823  2.3651 -0.6437 -0.3762
11787SOL    HW235932   6.753   6.269   4.716  0.2267 -0.1764 -0.4148
11788SOL     OW35933   1.992   6.371   1.426  0.2290  0.0735 -0.0600
11788SOL    HW135934   2.066   6.313   1.408  0.8034  0.7905 -0.0844
11788SOL    HW235935   2.031   6.445   1.472 -1.0232 -1.2849  3.5459
11789SOL     OW35936   0.184   5.994   2.418 -0.4660 -0.6924  0.3763
11789SOL    HW135937   0.102   5.956   2.385 -0.9005  0.9910 -0.5724
11789SOL    HW235938   0.163   6.020   2.508 -1.3672  0.7254 -0.2011
11790SOL     OW35939   4.698   4.199   0.548  0.0764 -0.4281  0.1280
11790SOL    HW135940   4.680   4.259   0.475 -0.6545  1.8382  2.0328
11790SOL    HW235941   4.679   4.112   0.513  0.8967  0.4189 -2.7133
11791SOL     OW35942   0.903   3.082   7.185 -0.4319  0.3290 -0.2433
11791SOL    HW135943   0.870   2.995   7.163  2.8374 -0.6164 -2.2217
11791SOL    HW235944   0.936   3.073   7.274 -2.4967  0.4265  0.5885
11792SOL     OW35945   5.363   5.857   4.440 -0.1276 -0.0090 -0.3525
11792SOL    HW135946   5.448   5.900   4.441 -0.1069 -0.0371  1.3576
11792SOL    HW235947   5.319   5.894   4.363  1.1949  0.4112 -0.9484
11793SOL     OW35948   2.152   4.733   1.894  0.2067  0.0698  0.3275
11793SOL    HW135949   2.075   4.747   1.950  0.7875 -0.4589  1.2924
11793SOL    HW235950   2.194   4.655   1.931  0.9133  0.0356 -0.5226
11794SOL     OW35951   2.128   0.045   0.215  0.6194 -0.3680  0.1308
11794SOL    HW135952   2.046   0.096   0.218  0.3613 -0.7665 -0.0792
11794SOL    HW235953   2.101  -0.041   0.182  1.2013 -0.3497 -0.4018
11795SOL     OW35954   5.857   6.473   0.909 -0.0552  0.0031 -0.0568
11795SOL    HW135955   5.952   6.470   0.899 -0.0371 -1.5805  0.3403
11795SOL    HW235956   5.843   6.471   1.004 -0.4827  2.6937  0.0295
11796SOL     OW35957   2.417   1.279   4.416 -0.1241 -0.4110  0.3500
11796SOL    HW135958   2.471   1.352   4.389 -2.7607  1.7318  0.4458
11796SOL    HW235959   2.457   1.202   4.374  0.9809  1.4907 -2.3338
11797SOL     OW35960   0.140   5.371   2.575  0.2792  0.1612 -0.1252
11797SOL    HW135961   0.145   5.442   2.639 -0.5280  0.7868 -0.7351
11797SOL    HW235962   0.083   5.405   2.506  0.3496 -0.8684 -0.7096
11798SOL     OW35963   4.193   4.263   4.551 -0.1925 -0.4987  0.1691
11798SOL    HW135964   4.267   4.241   4.607 -0.3548 -0.6250  0.3370
11798SOL    HW235965   4.193   4.196   4.483 -1.1752 -1.5362  1.1404
11799SOL     OW35966   7.174   6.803   1.751 -0.3782  0.3262  0.1765
11799SOL    HW135967   7.123   6.884   1.749  1.3579  1.4696  0.1944
11799SOL    HW235968   7.259   6.826   1.714  0.7559 -1.0526  1.7291
11800SOL     OW35969   6.728   7.028   5.659 -0.6746  0.3852  0.2030
11800SOL    HW135970   6.797   7.093   5.646 -0.8762  0.3821 -1.0367
11800SOL    HW235971   6.772   6.944   5.647 -1.0185  0.4014 -1.4818
11801SOL     OW35972   2.134   1.155   3.134  0.6020  0.6652  0.2151
11801SOL    HW135973   2.212   1.148   3.080  1.1322  0.6804  0.9590
11801SOL    HW235974   2.143   1.083   3.197  0.3737  1.1010  0.7497
11802SOL     OW35975   3.506   0.424   7.150  0.6546  0.2684 -0.0444
11802SOL    HW135976   3.520   0.332   7.172 -0.3402  0.1081 -0.0733
11802SOL    HW235977   3.462   0.461   7.226 -0.0847  0.4227 -0.5426
11803SOL     OW35978   5.082   4.637   2.772  0.7477  0.0782 -0.0576
11803SOL    HW135979   5.162   4.605   2.813 -0.9133 -1.7091  2.0974
11803SOL    HW235980   5.011   4.598   2.824 -1.5430  1.5621 -1.8302
11804SOL     OW35981   4.204   4.122   5.031  0.5878  0.1317  0.6862
11804SOL    HW135982   4.155   4.095   4.954 -1.1382 -0.6406  1.9979
11804SOL    HW235983   4.295   4.130   5.000 -0.2599  1.3206 -1.7360
11805SOL     OW35984   5.168   0.917   7.173  0.6427 -0.1232 -0.5963
11805SOL    HW135985   5.154   0.949   7.084 -1.3048  0.7051 -0.0406
11805SOL    HW235986   5.189   0.995   7.224 -0.4293 -0.2520  0.0681
11806SOL     OW35987   2.586   7.435   4.745  0.0188  0.0139  0.8484
11806SOL    HW135988   2.543   7.351   4.760  0.8563 -0.5675  0.1051
11806SOL    HW235989   2.679   7.417   4.760  0.3083  0.5890 -0.1736
11807SOL     OW35990   2.943   5.586   3.578 -0.1276  0.1171 -0.2934
11807SOL    HW135991   2.868   5.596   3.636 -0.0523  0.4044 -0.2450
11807SOL    HW235992   2.985   5.505   3.607 -1.6305 -1.2366 -1.6943
11808SOL     OW35993   3.691   5.858   7.329 -0.0980 -0.6449  0.1091
11808SOL    HW135994   3.630   5.900   7.390  0.5952 -1.5048  1.4477
11808SOL    HW235995   3.691   5.914   7.252  0.5514  1.6608  1.6882
11809SOL     OW35996   6.501   3.677   5.712 -0.5901 -0.1623 -0.5926
11809SOL    HW135997   6.457   3.593   5.723  0.3348 -0.5255  0.4800
11809SOL    HW235998   6.572   3.677   5.777 -2.4753  2.7645  1.7542
11810SOL     OW35999   2.795   2.582   7.117  0.9704  0.0066  0.1916
11810SOL    HW136000   2.787   2.575   7.212 -2.2815 -1.8296 -0.0823
11810SOL    HW236001   2.781   2.492   7.086 -1.3697  1.0424 -2.0956
11811SOL     OW36002   5.274   6.812   1.652 -0.4362  0.0749 -0.6241
11811SOL    HW136003   5.312   6.796   1.565  1.0539 -0.3449  0.0697
11811SOL    HW236004   5.226   6.732   1.673 -0.3475 -0.0332 -0.8277
11812SOL     OW36005   2.047   1.997   3.076 -1.1476  0.5813  0.3714
11812SOL    HW136006   1.965   2.030   3.039 -0.6064  1.2054 -0.3213
11812SOL    HW236007   2.043   1.902   3.062 -1.6581  0.6290  0.1476
11813SOL     OW36008   7.310   4.099   0.063  0.5982 -0.1172 -0.0124
11813SOL    HW136009   7.238   4.157   0.038  0.6747  0.3077  0.7103
11813SOL    HW236010   7.286   4.014   0.026  0.0057  0.1507 -0.2654
11814SOL     OW36011   4.230   5.734   2.222 -0.0160 -0.0654 -0.2690
11814SOL    HW136012   4.160   5.776   2.273  0.7535  1.1865 -0.2163
11814SOL    HW236013   4.245   5.651   2.266 -0.7809  0.0906  0.3088
11815SOL     OW36014   2.371   1.399   3.015 -0.0572 -0.2616  0.6353
11815SOL    HW136015   2.276   1.390   3.022 -0.5464  0.0384 -3.4220
11815SOL    HW236016   2.402   1.311   2.994  0.0679  0.1711 -1.1797
11816SOL     OW36017   4.206   4.529   1.410  0.1738 -0.5713  0.0544
11816SOL    HW136018   4.136   4.503   1.470 -0.0280  0.7782  0.4478
11816SOL    HW236019   4.254   4.449   1.392 -0.7302 -1.2944  0.7634
11817SOL     OW36020   2.572   2.343   7.243 -0.5059  0.0445 -0.2621
11817SOL    HW136021   2.564   2.420   7.299 -1.2539  1.3149 -2.0500
11817SOL    HW236022   2.658   2.306   7.266  0.1032  1.6834  0.2707
11818SOL     OW36023   0.351   3.116   3.459 -0.3568 -0.2298  0.4306
11818SOL    HW136024   0.352   3.023   3.437 -1.3205 -0.2884  0.5885
11818SOL    HW236025   0.398   3.121   3.543  1.9166 -0.2145 -0.7673
11819SOL     OW36026   5.586   6.661   4.906 -0.1370 -0.1542  0.1239
11819SOL    HW136027   5.569   6.623   4.992  1.6692  1.6342  1.3711
11819SOL    HW236028   5.551   6.750   4.911  3.5297  1.4360  0.6171
11820SOL     OW36029   5.319   3.798   1.230  0.1277 -0.2465  0.0704
11820SOL    HW136030   5.284   3.732   1.289 -0.6947 -0.6889 -0.8771
11820SOL    HW236031   5.275   3.782   1.146  1.3405  0.2863 -0.7072
11821SOL     OW36032   3.538   3.207   0.827 -0.0641  0.0197  1.0883
11821SOL    HW136033   3.483   3.138   0.791 -0.2612 -0.5086  2.3488
11821SOL    HW236034   3.477   3.278   0.846  0.1088  0.4836 -0.0188
11822SOL     OW36035   1.307   0.590   2.129 -0.1359 -0.0716  0.4033
11822SOL    HW136036   1.333   0.680   2.110  0.2858  0.1397  1.8116
11822SOL    HW236037   1.275   0.594   2.219 -1.2419 -1.1163  0.0798
11823SOL     OW36038   1.176   1.212   5.804  0.3418 -0.0218 -0.5631
11823SOL    HW136039   1.255   1.258   5.776  1.2710 -1.9204 -1.2939
11823SOL    HW236040   1.207   1.148   5.869 -0.5870 -0.7238 -0.7876
11824SOL     OW36041   4.901   2.824   2.434 -0.5558 -0.0211  0.7007
11824SOL    HW136042   4.980   2.771   2.437 -0.1566  0.4007 -1.2468
11824SOL    HW236043   4.870   2.826   2.525  1.5000 -0.4213  1.4605
11825SOL     OW36044   6.416   2.895   4.593  0.0639  0.3455  0.1247
11825SOL    HW136045   6.488   2.841   4.561  0.0504  0.8266 -0.7431
11825SOL    HW236046   6.359   2.834   4.640  0.8526 -0.0994  0.5241
11826SOL     OW36047   0.012   0.097   3.841 -0.0470 -0.1652  0.2330
11826SOL    HW136048   0.100   0.111   3.877 -0.0815  1.6298 -0.2990
11826SOL    HW236049   0.024   0.102   3.746 -0.5801 -0.8489  0.1285
11827SOL     OW36050   0.080   1.051   0.720  0.3700 -0.3817  0.3442
11827SOL    HW136051   0.170   1.021   0.733  0.4043 -0.2344  0.4484
11827SOL    HW236052   0.028   0.996   0.779  0.5110  0.2049  1.0255
11828SOL     OW36053   3.169   4.479   2.580  0.6100 -0.4783 -0.0853
11828SOL    HW136054   3.143   4.389   2.561  0.2765 -0.9396  2.2335
11828SOL    HW236055   3.100   4.512   2.638  1.7658  0.5793  0.7356
11829SOL     OW36056   1.065   4.778   0.165 -0.1431  0.0852  0.0415
11829SOL    HW136057   0.989   4.774   0.223  0.2443 -2.7781  0.5206
11829SOL    HW236058   1.077   4.688   0.135  3.1654  0.3488  0.1361
11830SOL     OW36059   5.648   3.867   0.262 -0.1676  0.0128 -0.1520
11830SOL    HW136060   5.651   3.940   0.200 -2.1257  0.9552  0.7749
11830SOL    HW236061   5.720   3.883   0.323 -1.0703  1.6663  0.5310
11831SOL     OW36062   7.355   1.672   5.790  0.2093 -0.1403  0.5818
11831SOL    HW136063   7.421   1.730   5.828 -0.2822 -0.4060  1.8785
11831SOL    HW236064   7.277   1.726   5.781 -0.1008 -0.4577  1.3209
11832SOL     OW36065   0.448   3.621   0.558  0.5804 -0.7768 -0.0618
11832SOL    HW136066   0.534   3.611   0.517 -0.5992  0.3005 -3.0959
11832SOL    HW236067   0.431   3.536   0.599  0.8573 -3.1034 -4.1999
11833SOL     OW36068   3.665   2.793   7.316  0.2599  0.0634  0.2344
11833SOL    HW136069   3.752   2.803   7.355 -0.4682  2.2377  1.4561
11833SOL    HW236070   3.637   2.882   7.295 -0.6247 -0.7606 -2.6804
11834SOL     OW36071   1.074   6.771   4.305  0.9290 -0.2887  0.1434
11834SOL    HW136072   1.023   6.798   4.229 -0.1719 -1.3863  0.4612
11834SOL    HW236073   1.133   6.703   4.272  0.7174 -0.4943  0.1848
11835SOL     OW36074   4.961   0.090   0.527 -0.3092 -0.2458  0.0571
11835SOL    HW136075   4.881   0.125   0.487 -0.1501 -0.7373 -0.7252
11835SOL    HW236076   5.031   0.119   0.470  0.3761  2.0654  1.9278
11836SOL     OW36077   6.777   0.584   0.796 -0.2684  0.1500  0.0842
11836SOL    HW136078   6.814   0.498   0.778 -0.7623 -0.0678  0.1224
11836SOL    HW236079   6.735   0.611   0.715 -1.4821 -0.3294  0.5344
11837SOL     OW36080   1.586   1.276   3.680 -0.6261 -0.0463  0.0377
11837SOL    HW136081   1.551   1.195   3.716 -0.8753 -0.7200 -1.6438
11837SOL    HW236082   1.631   1.318   3.754  2.1042 -3.1218  0.3125
11838SOL     OW36083   0.761   7.139   6.820  0.4522 -0.5743 -0.2384
11838SOL    HW136084   0.785   7.225   6.853 -1.3248  0.0903 -0.6234
11838SOL    HW236085   0.739   7.088   6.898 -3.5297  0.9253 -0.2032
11839SOL     OW36086   0.773   7.251   1.283  0.3045 -0.1399  0.2222
11839SOL    HW136087   0.819   7.252   1.199  1.6325  1.0652  0.9079
11839SOL    HW236088   0.828   7.305   1.340 -2.0724  1.5153  1.0756
11840SOL     OW36089   5.440   5.036   0.196 -0.3615 -0.0361 -0.0515
11840SOL    HW136090   5.467   5.119   0.236  1.6171 -0.6338 -0.0393
11840SOL    HW236091   5.435   4.975   0.270 -0.6244 -0.2099 -0.2136
11841SOL     OW36092   4.724   3.017   2.632  0.3056  0.2544  0.1483
11841SOL    HW136093   4.688   2.962   2.702  0.0453  0.9204  0.5500
11841SOL    HW236094   4.780   3.080   2.678  1.5835 -0.4271 -0.4190
11842SOL     OW36095   6.791   6.904   4.704  0.2478  0.1306  0.1542
11842SOL    HW136096   6.815   6.997   4.698  2.4629 -0.2351  1.8594
11842SOL    HW236097   6.790   6.874   4.613  0.7633  1.5394 -0.3501
11843SOL     OW36098   3.742   6.948   6.737 -0.0777  0.0329  0.1009
11843SOL    HW136099   3.707   7.030   6.702  0.7004 -0.6002 -2.3510
11843SOL    HW236100   3.830   6.970   6.768 -0.4655  0.4356  0.9323
11844SOL     OW36101   4.709   7.409   0.326  0.0250 -0.3578  0.0816
11844SOL    HW136102   4.658   7.395   0.406 -2.0087  0.3435 -1.0240
11844SOL    HW236103   4.732   7.502   0.328  0.8770 -0.5612  0.3238
11845SOL     OW36104   1.285   5.739   6.973 -0.0342  0.0768  0.6045
11845SOL    HW136105   1.351   5.717   6.907 -1.4886  0.5422 -1.0794
11845SOL    HW236106   1.296   5.672   7.041  1.9784 -0.0036  0.2753
11846SOL     OW36107   6.363   0.272   6.718  0.1491  0.5449 -0.2278
11846SOL    HW136108   6.352   0.182   6.687  0.7425 -0.3004  1.8280
11846SOL    HW236109   6.442   0.268   6.773  0.4479  2.4396 -0.4710
11847SOL     OW36110   1.163   4.708   2.582  0.4355  0.1506 -0.6456
11847SOL    HW136111   1.186   4.743   2.668  0.8121  0.5440 -0.8998
11847SOL    HW236112   1.082   4.658   2.597 -0.1306  1.1454 -0.2733
11848SOL     OW36113   0.924   6.278   0.152  0.1768  0.5775  0.2093
11848SOL    HW136114   0.895   6.221   0.080  1.9573 -0.2428  0.0966
11848SOL    HW236115   0.946   6.361   0.109  1.2223  0.0939 -0.2071
11849SOL     OW36116   5.575   6.283   5.344  0.0491  0.2551  0.4645
11849SOL    HW136117   5.617   6.198   5.328  0.3526  0.3774  0.5940
11849SOL    HW236118   5.637   6.330   5.400  1.2086  1.6070 -1.7618
11850SOL     OW36119   6.428   5.025   1.984 -0.3511 -0.2844  0.0016
11850SOL    HW136120   6.348   4.973   1.983  0.5771 -1.7743  0.1166
11850SOL    HW236121   6.439   5.053   1.893 -0.0400 -1.6377 -0.3965
11851SOL     OW36122   4.069   1.162   1.656 -0.1697 -0.2250 -0.1938
11851SOL    HW136123   4.161   1.136   1.653  0.4248  1.7871 -1.8255
11851SOL    HW236124   4.067   1.249   1.617 -2.4444  0.8664  2.0527
11852SOL     OW36125   2.547   4.198   3.439 -0.1110  0.0188  0.2740
11852SOL    HW136126   2.631   4.154   3.430 -0.2073 -0.5891  2.0197
11852SOL    HW236127   2.560   4.283   3.396  2.6157  1.4726  3.5348
11853SOL     OW36128   5.957   1.835   6.022  0.0660  0.5309  0.7464
11853SOL    HW136129   5.873   1.791   6.013 -0.0614  1.1569 -1.8238
11853SOL    HW236130   6.007   1.779   6.082 -2.2343  0.3354  2.5963
11854SOL     OW36131   4.342   2.215   1.272 -0.4498  0.2309  0.1708
11854SOL    HW136132   4.337   2.120   1.275  1.6042  0.0282 -0.9786
11854SOL    HW236133   4.375   2.240   1.358  1.4094 -0.3625 -0.3172
11855SOL     OW36134   1.462   1.784   4.556 -0.0063 -0.2065  0.0040
11855SOL    HW136135   1.414   1.851   4.605  2.1058  1.0312  0.4736
11855SOL    HW236136   1.470   1.821   4.468  1.3896  0.3351  0.3319
11856SOL     OW36137   1.377   4.243   2.802 -0.0803 -0.0204 -0.3480
11856SOL    HW136138   1.428   4.168   2.772  0.3817  0.5017 -0.8805
11856SOL    HW236139   1.439   4.298   2.850 -0.9269 -1.1375  2.1833
11857SOL     OW36140   3.411   6.238   0.484 -0.2720  0.3964 -1.0121
11857SOL    HW136141   3.439   6.167   0.426  0.7510 -0.0700  0.0252
11857SOL    HW236142   3.323   6.214   0.511  0.3801 -0.9744  0.0254
11858SOL     OW36143   7.264   6.047   6.331 -0.2017 -0.1323  0.3152
11858SOL    HW136144   7.205   6.004   6.394  0.3142  1.9134  2.3287
11858SOL    HW236145   7.350   6.045   6.374  0.1241  1.5030 -0.2040
11859SOL     OW36146   4.053   1.115   7.046 -0.2646  0.4140 -0.1971
11859SOL    HW136147   3.988   1.046   7.057  0.5084 -0.1520  1.1379
11859SOL    HW236148   4.135   1.068   7.031  0.4124  0.9898  1.5178
11860SOL     OW36149   1.034   3.036   3.333  0.5795 -0.7553 -0.9893
11860SOL    HW136150   1.048   3.131   3.332 -0.8458 -0.2491  3.9494
11860SOL    HW236151   1.114   3.001   3.371  0.5278 -1.3988 -1.4640
11861SOL     OW36152   6.095   0.287   1.031 -0.8551 -0.3731  0.2807
11861SOL    HW136153   6.091   0.372   1.076  1.1453 -0.6198  1.0704
11861SOL    HW236154   6.117   0.309   0.940 -0.7368 -0.0256  0.3917
11862SOL     OW36155   5.964   0.523   1.472  0.2010  0.2102 -0.0550
11862SOL    HW136156   6.048   0.567   1.458  0.4237  0.0589  0.7490
11862SOL    HW236157   5.903   0.570   1.416  0.3286  1.8716  1.1127
11863SOL     OW36158   7.004   2.979   5.976 -0.0568  0.8140 -0.4274
11863SOL    HW136159   7.018   2.893   5.936  0.1831  0.6174  0.0795
11863SOL    HW236160   6.909   2.991   5.974 -0.3525 -0.6134  1.8523
11864SOL     OW36161   7.346   5.426   5.604  0.1095 -0.8171  0.5802
11864SOL    HW136162   7.394   5.343   5.598  0.6632 -0.4947  0.5083
11864SOL    HW236163   7.283   5.412   5.674  2.3366 -0.2305  2.8157
11865SOL     OW36164   5.901   4.413   3.694  0.1375 -0.0538  0.1394
11865SOL    HW136165   5.975   4.355   3.711 -0.1113 -0.1278  0.9765
11865SOL    HW236166   5.837   4.391   3.761 -0.3205  0.5776 -0.0844
11866SOL     OW36167   5.059   5.548   0.831  0.2771  0.6273  0.3430
11866SOL    HW136168   5.107   5.485   0.884 -0.6562  0.3136  0.8326
11866SOL    HW236169   5.016   5.606   0.894 -0.0070  0.8916 -0.0810
11867SOL     OW36170   4.992   1.272   1.845 -0.1049  0.1421 -0.4427
11867SOL    HW136171   4.975   1.179   1.859 -2.5747  0.4874 -0.5356
11867SOL    HW236172   4.948   1.292   1.763  2.6674  0.9113 -1.8483
11868SOL     OW36173   0.430   4.688   4.228 -0.2420 -0.3256  0.2300
11868SOL    HW136174   0.384   4.754   4.176  0.8740 -0.3311 -0.8086
11868SOL    HW236175   0.465   4.626   4.163  1.0027 -0.4540  0.9961
11869SOL     OW36176   3.800   7.262   4.059  0.1517 -0.1856 -0.0280
11869SOL    HW136177   3.765   7.347   4.031 -1.6632 -0.2481  1.8765
11869SOL    HW236178   3.892   7.281   4.080  0.9723  0.3600 -3.4377
11870SOL     OW36179   5.262   6.026   0.388 -0.0800  0.0952  0.0163
11870SOL    HW136180   5.265   5.930   0.387  1.0276  0.1182 -0.4666
11870SOL    HW236181   5.322   6.052   0.319 -0.7440  1.1459 -0.1761
11871SOL     OW36182   6.288   5.947   0.997 -0.1822  0.5647 -0.2007
11871SOL    HW136183   6.259   5.971   0.909 -0.6077 -2.9878 -1.1798
11871SOL    HW236184   6.208   5.947   1.050  0.0600  2.6034  0.2610
11872SOL     OW36185   5.100   3.494   5.437  0.1762  0.1376 -0.2399
11872SOL    HW136186   5.045   3.526   5.365 -1.3199  1.3005  1.3240
11872SOL    HW236187   5.183   3.540   5.427 -0.8768  2.2375  0.1559
11873SOL     OW36188   2.607   2.995   6.434  0.2707 -0.4205 -0.3021
11873SOL    HW136189   2.618   3.006   6.528  1.0285  0.2528 -0.4556
11873SOL    HW236190   2.570   3.078   6.404  0.3966 -0.4883 -0.6525
11874SOL     OW36191   6.948   5.824   2.694  0.4254 -0.0687  0.9277
11874SOL    HW136192   6.909   5.864   2.616  0.9775 -0.3745  0.4925
11874SOL    HW236193   6.881   5.763   2.725  0.9112 -1.3181 -0.3860
11875SOL     OW36194   3.229   3.571   2.726 -0.5387  0.2266 -0.0178
11875SOL    HW136195   3.242   3.518   2.804  0.3608  0.3743 -0.0468
11875SOL    HW236196   3.242   3.661   2.755  0.5630  0.2360 -0.4578
11876SOL     OW36197   5.882   7.352   5.230  0.2796  0.2451  0.2235
11876SOL    HW136198   5.813   7.408   5.263  0.3270  0.0864  0.5992
11876SOL    HW236199   5.933   7.408   5.172 -0.0583  0.4090  0.0809
11877SOL     OW36200   5.277   0.558   2.478  0.7461  0.0617 -0.0147
11877SOL    HW136201   5.270   0.642   2.523  0.8660 -0.1002  0.3083
11877SOL    HW236202   5.264   0.579   2.385  1.0107  0.4697  0.0396
11878SOL     OW36203   5.789   6.514   3.830 -0.0133  0.4406 -0.2414
11878SOL    HW136204   5.714   6.563   3.796 -0.2490  1.1404  1.2291
11878SOL    HW236205   5.828   6.474   3.752 -0.9002  1.4543 -1.2484
11879SOL     OW36206   2.701   4.813   6.153 -0.4633 -0.2321  0.4346
11879SOL    HW136207   2.670   4.772   6.072 -0.3871  0.2372  0.1672
11879SOL    HW236208   2.677   4.905   6.144 -0.6648 -0.2235  1.0504
11880SOL     OW36209   2.940   2.727   4.391  0.3878 -0.3202 -0.2604
11880SOL    HW136210   2.914   2.711   4.301  1.4592  0.5595 -0.7484
11880SOL    HW236211   3.035   2.740   4.387  0.5026 -0.6082  1.0376
11881SOL     OW36212   7.400   4.501   5.607 -0.4177 -0.1558 -0.2856
11881SOL    HW136213   7.395   4.577   5.664 -2.4257 -0.1418 -0.3887
11881SOL    HW236214   7.478   4.515   5.554  0.4650  0.7237  1.1904
11882SOL     OW36215   6.432   5.397   0.394  0.1636  0.4985  0.0118
11882SOL    HW136216   6.449   5.368   0.304  0.7957 -1.3253  0.6851
11882SOL    HW236217   6.344   5.367   0.413  0.0961  0.7310  0.0688
11883SOL     OW36218   6.994   2.032   0.439 -0.2422  0.0512  0.0608
11883SOL    HW136219   7.031   1.955   0.482  1.2345  1.0577  0.6648
11883SOL    HW236220   6.923   2.060   0.497 -0.4242 -0.5280  0.1233
11884SOL     OW36221   0.216   1.129   5.907 -0.0367  0.2641 -0.4421
11884SOL    HW136222   0.160   1.179   5.847 -1.1415  0.3564  0.6352
11884SOL    HW236223   0.259   1.196   5.960 -0.9503  0.1361  0.4988
11885SOL     OW36224   1.355   4.639   1.001 -0.0753  0.0242 -1.1075
11885SOL    HW136225   1.431   4.681   0.961 -0.9511 -0.1358 -3.0772
11885SOL    HW236226   1.344   4.557   0.952 -1.6851  0.2009 -1.1048
11886SOL     OW36227   3.146   2.371   5.207 -0.2426 -0.0605 -0.0697
11886SOL    HW136228   3.073   2.347   5.149  0.1877  0.7208 -0.9666
11886SOL    HW236229   3.193   2.439   5.159 -0.3401  1.2125  1.5710
11887SOL     OW36230   2.071   3.283   7.079 -0.8630 -0.2065 -0.5364
11887SOL    HW136231   2.107   3.358   7.127 -1.6552 -1.1123  1.5785
11887SOL    HW236232   2.140   3.260   7.016  0.6647  0.4313  0.8358
11888SOL     OW36233   6.338   2.428   0.007 -0.1921 -0.4055 -0.2373
11888SOL    HW136234   6.430   2.402   0.017  0.4032  1.8916  0.8646
11888SOL    HW236235   6.305   2.373  -0.064  2.2045 -0.8457 -1.0865
11889SOL     OW36236   1.106   2.282   5.270  0.7298  0.6326 -0.0729
11889SOL    HW136237   1.052   2.351   5.232  1.0757  0.3438 -1.1115
11889SOL    HW236238   1.180   2.273   5.209  0.1039 -1.4350 -0.5914
11890SOL     OW36239   0.596   6.269   7.232  0.0437  0.6637 -0.0566
11890SOL    HW136240   0.524   6.325   7.260  0.4153  0.3487  1.6060
11890SOL    HW236241   0.565   6.180   7.249  0.4939  0.4902 -0.1408
11891SOL     OW36242   4.903   6.986   0.728  0.7236  0.4635  0.0232
11891SOL    HW136243   4.858   6.931   0.792  0.6924  1.1426  0.6053
11891SOL    HW236244   4.918   6.929   0.653 -0.7296  0.0972 -0.0286
11892SOL     OW36245   1.250   5.059   2.177 -0.3525  0.0245 -0.1939
11892SOL    HW136246   1.241   4.984   2.235 -1.7105 -0.3937 -0.8972
11892SOL    HW236247   1.164   5.067   2.134 -0.0993  1.6860 -0.4811
11893SOL     OW36248   5.492   0.925   1.441  0.0594 -0.3413 -0.2052
11893SOL    HW136249   5.483   0.881   1.356 -1.4922 -0.1378 -0.1681
11893SOL    HW236250   5.404   0.923   1.478 -0.0556  2.6055 -0.1022
11894SOL     OW36251   1.402   5.135   3.278 -0.0602 -0.2100 -0.2111
11894SOL    HW136252   1.330   5.185   3.316 -0.2225 -1.2207  0.8649
11894SOL    HW236253   1.479   5.166   3.325  0.1579  0.5009 -1.0046
11895SOL     OW36254   0.646   5.733   5.292 -0.1675  0.1122 -0.0246
11895SOL    HW136255   0.727   5.723   5.342 -0.1260  1.0855  0.1338
11895SOL    HW236256   0.592   5.791   5.346 -1.2413 -1.0330  0.1705
11896SOL     OW36257   5.673   4.974   5.593  0.4700 -0.1264 -0.2262
11896SOL    HW136258   5.706   4.903   5.537  1.3663 -0.4414  0.6815
11896SOL    HW236259   5.646   4.930   5.674 -1.9201  0.1637 -0.7857
11897SOL     OW36260   1.200   2.994   5.798 -0.3448 -0.0066  0.1376
11897SOL    HW136261   1.282   2.947   5.817  0.2467  0.7839 -0.3743
11897SOL    HW236262   1.175   3.033   5.881  0.6628  1.0511 -0.0334
11898SOL     OW36263   6.543   4.765   2.045  0.2464  0.0369 -0.3875
11898SOL    HW136264   6.534   4.849   2.000 -0.7613  0.3528  0.3719
11898SOL    HW236265   6.533   4.700   1.975  0.3846  0.5364 -0.8810
11899SOL     OW36266   6.687   5.287   4.759  0.0465 -0.2717  0.5331
11899SOL    HW136267   6.598   5.253   4.769 -2.0916  2.9533 -3.9330
11899SOL    HW236268   6.690   5.365   4.815 -0.9508  0.9177 -0.9713
11900SOL     OW36269   3.176   5.192   3.274  0.0685 -0.1158  0.7035
11900SOL    HW136270   3.213   5.178   3.187 -0.3523 -0.9050  0.6403
11900SOL    HW236271   3.237   5.252   3.317 -0.3657  1.3302 -0.5660
11901SOL     OW36272   1.394   0.285   0.107 -0.0678  0.5722  0.4593
11901SOL    HW136273   1.318   0.254   0.058  0.2885 -0.3756  0.4838
11901SOL    HW236274   1.468   0.241   0.065  0.2381 -0.3035  1.8794
11902SOL     OW36275   1.701   3.638   3.477 -0.3830 -0.1420  0.5715
11902SOL    HW136276   1.742   3.636   3.564 -0.0290 -1.4891  0.3922
11902SOL    HW236277   1.747   3.571   3.427 -0.5980  0.6084 -0.6687
11903SOL     OW36278   5.437   4.474   2.631 -0.0884 -0.0374  0.3191
11903SOL    HW136279   5.465   4.386   2.656 -0.9536 -0.2143  0.7258
11903SOL    HW236280   5.388   4.505   2.707  0.0322  0.7136  0.0904
11904SOL     OW36281   6.817   1.945   1.422 -0.6184  0.1691 -0.3566
11904SOL    HW136282   6.833   2.032   1.458 -2.4523  0.9910 -1.4321
11904SOL    HW236283   6.849   1.885   1.490 -1.6456  1.6465  1.5257
11905SOL     OW36284   1.837   4.301   2.331  0.3518  0.2809 -0.1038
11905SOL    HW136285   1.750   4.310   2.370  0.1807  2.7769 -0.9111
11905SOL    HW236286   1.822   4.252   2.250 -0.3365  0.8008 -0.3023
11906SOL     OW36287   1.375   5.013   5.537 -0.0387  0.0310 -0.1061
11906SOL    HW136288   1.289   5.032   5.499  0.7283  0.0896 -1.9054
11906SOL    HW236289   1.427   5.091   5.521  1.5662 -1.4468 -2.8610
11907SOL     OW36290   6.689   5.653   0.195 -0.1821  0.0722 -0.4941
11907SOL    HW136291   6.613   5.661   0.138 -0.1817 -1.3781 -0.7165
11907SOL    HW236292   6.744   5.729   0.172 -2.2364  2.0776  0.7860
11908SOL     OW36293   3.516   6.691   1.853  0.0842  0.4958 -0.2949
11908SOL    HW136294   3.556   6.608   1.875  0.4405  0.6124 -0.4874
11908SOL    HW236295   3.571   6.726   1.783 -0.8858  0.2257 -1.2233
11909SOL     OW36296   5.641   0.786   5.465 -0.3233  0.4894 -0.2222
11909SOL    HW136297   5.734   0.797   5.448 -0.4536 -0.8208 -2.1022
11909SOL    HW236298   5.599   0.798   5.380 -1.7263 -0.2840  0.3224
11910SOL     OW36299   3.698   5.576   7.300 -0.2069  0.0418 -0.4546
11910SOL    HW136300   3.690   5.532   7.385 -1.3332  0.4382 -0.3428
11910SOL    HW236301   3.687   5.669   7.319 -0.0435  0.1739 -0.9826
11911SOL     OW36302   2.560   5.265   5.720 -0.3603 -0.0348 -0.2225
11911SOL    HW136303   2.644   5.296   5.684 -0.4529  1.3658  0.6803
11911SOL    HW236304   2.584   5.192   5.777  0.2526  0.3565  0.0327
11912SOL     OW36305   1.874   3.643   2.537  0.2310  0.4012 -0.6228
11912SOL    HW136306   1.807   3.619   2.474 -2.1907 -1.0984  2.2332
11912SOL    HW236307   1.912   3.559   2.565 -0.3480  0.7629  1.4287
11913SOL     OW36308   5.801   6.274   4.325 -0.1985  0.2560 -0.2212
11913SOL    HW136309   5.844   6.192   4.348  0.6396 -0.1113 -2.7773
11913SOL    HW236310   5.836   6.297   4.239 -1.4365  2.5938 -0.2041
11914SOL     OW36311   1.054   4.821   4.508 -0.4052  0.3359 -0.4152
11914SOL    HW136312   0.960   4.823   4.526 -0.6099  1.3564 -1.4750
11914SOL    HW236313   1.061   4.812   4.413  0.5189  1.6052 -0.5021
11915SOL     OW36314   5.500   5.588   5.205  0.2997  0.5033  0.2517
11915SOL    HW136315   5.526   5.508   5.159  1.1687  1.6120 -1.2403
11915SOL    HW236316   5.405   5.592   5.194  0.2746 -0.1832  0.1442
11916SOL     OW36317   4.650   0.074   0.865  0.9778 -0.1714 -0.3094
11916SOL    HW136318   4.708   0.048   0.937  0.1237 -0.3272  0.3376
11916SOL    HW236319   4.564   0.039   0.889  0.6103  0.0347 -1.2655
11917SOL     OW36320   5.727   5.984   4.296 -0.3106 -0.2194 -0.4846
11917SOL    HW136321   5.799   5.921   4.299  0.6012  0.8259  1.2777
11917SOL    HW236322   5.677   5.968   4.376 -0.2596  1.0256 -0.1801
11918SOL     OW36323   1.603   7.376   6.755 -0.1337 -0.7736 -0.1292
11918SOL    HW136324   1.524   7.395   6.807  0.7741  0.5284  0.8596
11918SOL    HW236325   1.576   7.390   6.665 -0.1465  3.7801  0.3222
11919SOL     OW36326   2.922   4.829   5.785 -0.1252 -0.2120 -0.0188
11919SOL    HW136327   2.944   4.796   5.698 -0.3214  1.0068 -0.5497
11919SOL    HW236328   2.901   4.751   5.836  4.1704 -1.4710  0.2242
11920SOL     OW36329   6.704   6.152   5.295  0.3820  0.0404 -0.4504
11920SOL    HW136330   6.752   6.214   5.349  0.4460  1.3638 -1.9345
11920SOL    HW236331   6.620   6.194   5.279 -0.1521 -0.9345 -0.2683
11921SOL     OW36332   2.835   4.298   4.251  0.2793  0.1188  0.0767
11921SOL    HW136333   2.875   4.385   4.252  2.0894 -0.6522  1.2394
11921SOL    HW236334   2.838   4.269   4.342 -0.2289 -1.1758 -0.2887
11922SOL     OW36335   4.842   3.773   0.858  0.4611  0.3371  0.5444
11922SOL    HW136336   4.890   3.785   0.940  0.0521 -0.4809  0.9181
11922SOL    HW236337   4.835   3.861   0.821  1.6539  0.5547  0.8134
11923SOL     OW36338   1.316   0.328   1.455  0.2046  0.0512  0.3244
11923SOL    HW136339   1.229   0.305   1.424  0.8155 -0.3488 -1.1693
11923SOL    HW236340   1.302   0.358   1.545 -1.4372 -0.1628  0.1718
11924SOL     OW36341   3.012   0.121   2.173  0.1325  0.0895 -0.2972
11924SOL    HW136342   2.948   0.054   2.150  0.5997 -0.9774  1.2904
11924SOL    HW236343   3.088   0.071   2.206  1.3007  1.3531 -0.9605
11925SOL     OW36344   4.837   3.782   4.920  0.3483 -0.2852  0.3003
11925SOL    HW136345   4.851   3.875   4.938  0.7825 -0.4757  0.9795
11925SOL    HW236346   4.756   3.761   4.967 -0.0241 -0.1360 -0.2687
11926SOL     OW36347   0.799   0.966   4.163  0.1891 -0.2225 -0.0926
11926SOL    HW136348   0.773   1.041   4.110  0.5775 -0.6115 -0.8560
11926SOL    HW236349   0.733   0.899   4.144  0.1661 -0.2686  0.1454
11927SOL     OW36350   2.661   7.419   1.487 -0.0586  0.2198 -0.4375
11927SOL    HW136351   2.705   7.389   1.407 -0.0282  1.0351 -0.7423
11927SOL    HW236352   2.602   7.488   1.457  0.2747  0.8400  0.3028
11928SOL     OW36353   1.119   2.869   6.125 -0.2115  0.5410 -0.3702
11928SOL    HW136354   1.080   2.926   6.059 -1.5250 -1.6852 -1.6684
11928SOL    HW236355   1.187   2.820   6.078  1.8479  1.8756  1.0378
11929SOL     OW36356   4.518   1.636   5.588  0.2420  0.0594 -0.2267
11929SOL    HW136357   4.600   1.637   5.638 -0.5693 -0.5536  1.1647
11929SOL    HW236358   4.459   1.692   5.637 -0.4584 -0.2286 -0.7178
11930SOL     OW36359   4.746   4.526   1.109  0.4333 -0.4580 -0.2294
11930SOL    HW136360   4.827   4.577   1.113 -0.4164  0.8644  1.3415
11930SOL    HW236361   4.756   4.460   1.177 -0.1990  0.3648  0.6848
11931SOL     OW36362   2.137   3.752   7.225 -0.1002  0.2417 -0.2344
11931SOL    HW136363   2.176   3.761   7.312  1.1450 -0.5645 -0.6775
11931SOL    HW236364   2.162   3.832   7.178  1.1477 -0.3189 -0.5489
11932SOL     OW36365   5.225   1.368   2.443 -0.1531 -0.2176  0.1040
11932SOL    HW136366   5.316   1.394   2.427 -0.6950  2.1862  0.6171
11932SOL    HW236367   5.207   1.302   2.376  2.3743 -1.8307  0.8687
11933SOL     OW36368   6.168   7.050   2.684  0.3145  0.1398 -0.1919
11933SOL    HW136369   6.158   7.026   2.592  0.9267 -3.1653  0.4732
11933SOL    HW236370   6.107   6.993   2.730 -0.3471  2.0831  1.4709
11934SOL     OW36371   4.634   3.538   3.069 -0.5202 -0.3452  0.3981
11934SOL    HW136372   4.705   3.522   3.132 -1.0686 -2.6950  0.5043
11934SOL    HW236373   4.634   3.461   3.012 -3.3060 -0.7234  0.7545
11935SOL     OW36374   6.220   0.465   0.456  0.3005  0.0577 -0.0831
11935SOL    HW136375   6.247   0.556   0.443 -0.2946  0.2541  0.0254
11935SOL    HW236376   6.141   0.457   0.403 -0.0959 -0.1733  0.5379
11936SOL     OW36377   6.034   2.366   1.108 -0.0571 -0.1719 -0.0527
11936SOL    HW136378   5.956   2.340   1.060 -0.3660 -1.0270  0.8874
11936SOL    HW236379   6.078   2.284   1.129 -0.1066  0.1459  1.3925
11937SOL     OW36380   4.430   3.845   4.293  0.3845 -0.6868  0.0696
11937SOL    HW136381   4.447   3.763   4.338  0.1059 -1.6375 -1.4591
11937SOL    HW236382   4.494   3.847   4.221  0.4298  0.4655  0.1215
11938SOL     OW36383   6.720   5.967   7.280 -0.6248 -0.0140  0.3893
11938SOL    HW136384   6.709   6.037   7.215 -0.9613  2.0897  2.5760
11938SOL    HW236385   6.813   5.944   7.274 -0.5401  0.4972 -0.4831
11939SOL     OW36386   6.212   6.251   6.475  0.2145 -0.6505 -0.1097
11939SOL    HW136387   6.158   6.173   6.470 -0.8016  0.0415 -0.2456
11939SOL    HW236388   6.189   6.291   6.558 -0.1334  0.0985 -0.5537
11940SOL     OW36389   0.538   6.269   4.182  0.4916 -0.0409 -0.3916
11940SOL    HW136390   0.547   6.208   4.255 -1.3295  0.4945  0.3291
11940SOL    HW236391   0.515   6.352   4.222 -1.1576  0.1233 -1.5755
11941SOL     OW36392   2.585   4.434   2.697  0.5934 -0.9975 -0.4157
11941SOL    HW136393   2.654   4.369   2.692  2.2174  0.6282 -0.1191
11941SOL    HW236394   2.624   4.514   2.663 -1.0997  0.0250 -0.1016
11942SOL     OW36395   2.890   2.446   4.861 -0.6684  0.3005 -0.2029
11942SOL    HW136396   2.898   2.468   4.953 -0.0455  3.4640 -0.8904
11942SOL    HW236397   2.979   2.427   4.832 -0.7534  0.0647 -0.3112
11943SOL     OW36398   3.160   3.255   0.266 -0.3862 -0.4847 -0.1422
11943SOL    HW136399   3.188   3.342   0.236 -2.1556  0.3126  0.4143
11943SOL    HW236400   3.065   3.260   0.267 -0.5551 -2.7068 -0.8154
11944SOL     OW36401   0.772   6.018   1.060 -0.7521  0.2238  0.0931
11944SOL    HW136402   0.781   6.035   0.967 -1.1937 -1.2745 -0.2527
11944SOL    HW236403   0.738   5.928   1.065 -0.0386  0.0074  1.7064
11945SOL     OW36404   3.327   5.726   5.730  0.2635  0.5761  0.2119
11945SOL    HW136405   3.243   5.679   5.730  1.8075 -2.4757 -1.1290
11945SOL    HW236406   3.360   5.717   5.819  0.7089 -1.3972 -0.1101
11946SOL     OW36407   6.516   2.623   7.012 -0.2362  0.4706 -0.3032
11946SOL    HW136408   6.427   2.637   7.044 -0.1451  0.7202 -0.1568
11946SOL    HW236409   6.559   2.708   7.024 -0.0825  0.4510 -0.7013
11947SOL     OW36410   3.061   4.980   3.434  0.2728 -0.1509  0.0318
11947SOL    HW136411   3.087   5.063   3.394  0.2224  0.5483  1.3614
11947SOL    HW236412   3.043   5.003   3.526  1.7007 -1.8976  0.8076
11948SOL     OW36413   6.279   0.817   0.131  0.1013  0.1793  0.4028
11948SOL    HW136414   6.230   0.869   0.195  0.7098  1.1025  0.1472
11948SOL    HW236415   6.224   0.817   0.053 -0.3930 -0.4842  0.7480
11949SOL     OW36416   2.694   5.537   1.050  0.3470  0.1351 -0.4711
11949SOL    HW136417   2.748   5.470   1.091  0.0742  0.9857  1.4024
11949SOL    HW236418   2.622   5.551   1.112 -0.8816  0.5029 -1.9229
11950SOL     OW36419   1.607   6.008   4.395  0.1978 -0.6536  0.0694
11950SOL    HW136420   1.539   5.992   4.329 -1.7519  1.3789  1.4585
11950SOL    HW236421   1.614   5.924   4.442 -1.6954 -0.7930  0.1700
11951SOL     OW36422   1.742   0.395   1.234 -0.3716  0.1403  0.1045
11951SOL    HW136423   1.775   0.308   1.210 -1.0486 -0.0776 -0.0483
11951SOL    HW236424   1.647   0.387   1.229 -0.4266  1.1031 -0.6469
11952SOL     OW36425   6.725   4.058   3.646  0.0899 -0.0926  0.2617
11952SOL    HW136426   6.707   3.973   3.607 -1.6373 -0.2277  1.2879
11952SOL    HW236427   6.718   4.044   3.741  0.7908  0.9841  0.5046
11953SOL     OW36428   4.258   2.662   6.823 -0.5419 -0.0121  0.4013
11953SOL    HW136429   4.249   2.567   6.830  0.2361 -0.0677  0.7499
11953SOL    HW236430   4.334   2.682   6.876 -1.3220  0.9360  1.1960
11954SOL     OW36431   0.189   3.683   0.497 -0.3270 -0.3232  0.1780
11954SOL    HW136432   0.283   3.670   0.511 -0.4055 -0.8478  0.2525
11954SOL    HW236433   0.158   3.722   0.579 -0.1752 -0.1538  0.1558
11955SOL     OW36434   7.340   4.446   2.046  0.1840 -0.4047 -0.2555
11955SOL    HW136435   7.384   4.448   1.962  1.1669  1.1631  0.2622
11955SOL    HW236436   7.270   4.382   2.035  1.6151 -1.8356 -1.5821
11956SOL     OW36437   3.752   5.380   2.107  0.0786  0.2030  0.1469
11956SOL    HW136438   3.804   5.435   2.166 -0.5351 -0.6703  1.5535
11956SOL    HW236439   3.787   5.399   2.020  1.9006  0.5640  0.9082
11957SOL     OW36440   1.961   3.390   2.637 -0.0403  0.2847  0.3325
11957SOL    HW136441   1.927   3.379   2.726 -2.0093 -2.2517 -0.5783
11957SOL    HW236442   2.021   3.316   2.625  0.2607  0.6421 -0.4180
11958SOL     OW36443   2.727   5.844   5.158 -0.0065  0.0652  0.2248
11958SOL    HW136444   2.804   5.821   5.210  0.8656  1.9543 -0.1603
11958SOL    HW236445   2.731   5.786   5.082 -1.2314 -2.6577  2.0576
11959SOL     OW36446   5.738   4.843   2.302  0.3367  0.5735  0.0616
11959SOL    HW136447   5.833   4.846   2.310  0.9294 -3.4102 -2.5838
11959SOL    HW236448   5.710   4.781   2.369 -0.2512  0.8109  0.0471
11960SOL     OW36449   1.916   2.484   7.003 -0.3625  0.3833  0.1587
11960SOL    HW136450   2.001   2.456   6.969  0.1002  0.0899  1.4728
11960SOL    HW236451   1.852   2.428   6.959  0.1081  0.6255 -0.8596
11961SOL     OW36452   2.561   3.177   3.619 -0.1086 -0.6377  0.0466
11961SOL    HW136453   2.510   3.162   3.699  0.1284  0.0895  0.3442
11961SOL    HW236454   2.641   3.126   3.633  1.8843  2.6664  2.2245
11962SOL     OW36455   5.663   3.617   2.315  0.0906 -0.1268  0.1636
11962SOL    HW136456   5.636   3.533   2.352 -0.8684  0.7298  1.4865
11962SOL    HW236457   5.735   3.646   2.371  0.0400  0.2003  0.0631
11963SOL     OW36458   1.768   2.580   2.116 -0.5307 -0.0697  0.1163
11963SOL    HW136459   1.757   2.581   2.021 -0.3269 -1.1605  0.0605
11963SOL    HW236460   1.705   2.643   2.149 -0.2796  0.6539 -0.7728
11964SOL     OW36461   5.342   1.959   6.299 -0.4189  0.0988 -0.6366
11964SOL    HW136462   5.324   1.899   6.227 -1.0371 -0.3453 -0.1244
11964SOL    HW236463   5.257   1.996   6.322 -0.0796  0.9902 -0.7775
11965SOL     OW36464   6.984   4.231   6.079 -0.2279 -0.2164  0.0308
11965SOL    HW136465   7.064   4.263   6.121  0.9683 -0.5766 -1.8384
11965SOL    HW236466   7.012   4.204   5.992 -2.6941  1.1054 -1.2758
11966SOL     OW36467   6.954   3.053   2.744 -0.4804 -0.3382  0.0789
11966SOL    HW136468   6.866   3.091   2.749 -0.0398  0.8816 -0.8723
11966SOL    HW236469   6.959   3.014   2.657 -0.9520 -2.7848  1.0608
11967SOL     OW36470   0.869   4.699   4.037  0.2986 -0.6297 -0.0514
11967SOL    HW136471   0.918   4.692   4.119 -1.3817 -0.0051  1.0626
11967SOL    HW236472   0.817   4.779   4.047  0.8003  0.0370 -2.1757
11968SOL     OW36473   2.331   1.774   3.685  0.1328  0.3202  0.1007
11968SOL    HW136474   2.242   1.807   3.695  0.3676  1.2755 -0.8492
11968SOL    HW236475   2.326   1.683   3.715 -1.1778  0.3264 -0.0390
11969SOL     OW36476   5.067   5.671   5.964 -0.1376 -0.3264  0.5709
11969SOL    HW136477   5.067   5.742   5.899 -2.3484 -2.1021 -1.5265
11969SOL    HW236478   5.060   5.591   5.912 -1.6829 -1.8756  2.9992
11970SOL     OW36479   0.254   4.786   0.070 -0.3377  0.1534  0.2551
11970SOL    HW136480   0.263   4.695   0.099  0.7249  0.5242  1.1484
11970SOL    HW236481   0.237   4.836   0.150  0.8477  0.9578  0.0239
11971SOL     OW36482   4.478   0.772   5.208 -0.2737  0.3956  0.4081
11971SOL    HW136483   4.450   0.817   5.287  0.6702 -0.1769  1.0893
11971SOL    HW236484   4.404   0.779   5.148 -1.7879 -0.8549  2.0398
11972SOL     OW36485   5.974   3.705   3.473  0.1627  0.0709  0.2831
11972SOL    HW136486   5.941   3.616   3.481 -1.5537  0.5477 -0.8191
11972SOL    HW236487   6.011   3.726   3.559 -0.6003 -1.2459  0.9503
11973SOL     OW36488   1.585   1.989   5.227 -0.1196  0.0550 -0.1787
11973SOL    HW136489   1.579   1.935   5.148 -0.3987 -0.2400  0.0447
11973SOL    HW236490   1.495   2.010   5.250  0.0150  1.4389 -0.8189
11974SOL     OW36491   2.781   7.395   0.514  0.4907 -0.1308  0.0775
11974SOL    HW136492   2.840   7.470   0.506  0.2560 -0.0316 -0.8108
11974SOL    HW236493   2.723   7.417   0.587 -0.5584  1.2549 -1.1103
11975SOL     OW36494   3.161   2.707   7.047 -0.3418  0.4144 -0.1379
11975SOL    HW136495   3.133   2.773   6.984  0.3685  0.7756 -0.0810
11975SOL    HW236496   3.114   2.627   7.020  1.6469 -0.0815 -2.5700
11976SOL     OW36497   6.313   3.123   6.718  0.4076 -0.0912 -0.8692
11976SOL    HW136498   6.230   3.133   6.672  0.3328  2.3558 -0.3216
11976SOL    HW236499   6.378   3.118   6.648 -0.1181 -1.4169 -1.2894
11977SOL     OW36500   7.083   6.523   4.092 -0.2809 -0.3718 -0.7815
11977SOL    HW136501   7.101   6.463   4.019 -0.0932  0.4418 -1.4215
11977SOL    HW236502   7.160   6.579   4.097 -1.2083  1.0419 -1.4407
11978SOL     OW36503   4.428   1.987   2.124  0.3009 -0.0980  0.0897
11978SOL    HW136504   4.518   2.018   2.117  0.1935  0.1480 -0.1886
11978SOL    HW236505   4.430   1.924   2.197  0.9573 -0.9988 -0.6768
11979SOL     OW36506   6.456   1.108   0.806 -0.6556  0.4973  0.2473
11979SOL    HW136507   6.375   1.114   0.757 -0.6692 -2.2774 -0.2655
11979SOL    HW236508   6.437   1.045   0.876  1.0881 -0.4546 -0.0672
11980SOL     OW36509   0.612   3.866   3.711  0.2040 -0.2079  0.2500
11980SOL    HW136510   0.657   3.947   3.686 -0.5680  0.5123  1.1258
11980SOL    HW236511   0.617   3.864   3.806 -0.0563 -1.0467  0.2563
11981SOL     OW36512   6.944   4.289   4.845 -0.1825  0.4372 -0.1260
11981SOL    HW136513   6.923   4.323   4.758 -2.0594  0.5559  0.3273
11981SOL    HW236514   6.927   4.362   4.904  1.5034  0.4973  0.3334
11982SOL     OW36515   4.120   1.210   7.321 -0.3774  0.0091  0.3278
11982SOL    HW136516   4.105   1.175   7.233  1.5063  1.2032 -0.5237
11982SOL    HW236517   4.036   1.199   7.366 -1.3641 -0.6925 -1.5902
11983SOL     OW36518   6.022   5.568   3.675  0.1664  0.1984 -0.1373
11983SOL    HW136519   6.075   5.621   3.616  2.5945  0.1834  1.8943
11983SOL    HW236520   5.950   5.626   3.700  1.3094  1.6405 -0.0268
11984SOL     OW36521   2.515   3.187   6.961  0.0438 -0.1101 -0.1416
11984SOL    HW136522   2.554   3.112   7.005 -1.0978 -1.1561 -0.8475
11984SOL    HW236523   2.540   3.176   6.869 -1.8787 -0.8596 -0.6308
11985SOL     OW36524   6.256   4.692   5.385  0.0355 -0.3735 -0.2708
11985SOL    HW136525   6.270   4.775   5.431 -0.1700 -1.8440  2.7553
11985SOL    HW236526   6.277   4.625   5.451 -2.5067 -2.7015 -1.6036
11986SOL     OW36527   0.471   5.476   4.948  0.1464 -0.1303  0.1955
11986SOL    HW136528   0.431   5.536   5.011  0.0882  0.5062 -0.4306
11986SOL    HW236529   0.563   5.504   4.943 -0.2898  1.2012 -1.5205
11987SOL     OW36530   6.545   4.370   5.947  0.1600  0.6087 -0.1169
11987SOL    HW136531   6.550   4.288   5.996 -1.8547 -0.2312 -1.1745
11987SOL    HW236532   6.604   4.357   5.872 -0.4573 -0.0659 -0.5006
11988SOL     OW36533   0.756   1.912   4.803 -0.5185  0.7521  0.0366
11988SOL    HW136534   0.754   1.945   4.713 -1.4309  0.2315 -0.1475
11988SOL    HW236535   0.710   1.978   4.855  1.3739  1.8309  0.4178
11989SOL     OW36536   1.310   7.299   5.198 -0.3637  0.1099 -0.2457
11989SOL    HW136537   1.244   7.236   5.227  1.5457 -1.9518 -0.1254
11989SOL    HW236538   1.314   7.286   5.103 -0.4365  0.5732 -0.3156
11990SOL     OW36539   6.908   5.214   0.106 -0.7812 -0.0812  0.6881
11990SOL    HW136540   6.996   5.253   0.112 -1.6778  2.1125  0.3779
11990SOL    HW236541   6.863   5.246   0.184 -1.9663  0.6455 -0.2654
11991SOL     OW36542   0.234   4.566   2.511  0.2313  0.1893 -0.6684
11991SOL    HW136543   0.286   4.645   2.527  0.6483  0.1395 -1.6881
11991SOL    HW236544   0.144   4.596   2.510  0.4642  0.9623 -2.6163
11992SOL     OW36545   4.766   5.055   2.893  0.2985  0.0270  0.0416
11992SOL    HW136546   4.695   4.994   2.914  1.0435 -0.0783  2.5581
11992SOL    HW236547   4.730   5.110   2.823 -1.1734 -1.8901 -0.7996
11993SOL     OW36548   4.278   2.299   1.023 -0.3492  0.0664 -1.0300
11993SOL    HW136549   4.353   2.358   1.010 -0.4978  1.0586  1.9067
11993SOL    HW236550   4.282   2.275   1.116 -1.8915 -2.4190 -1.5231
11994SOL     OW36551   2.305   4.953   0.027  0.3107  0.4085 -0.4410
11994SOL    HW136552   2.237   4.886   0.021  0.5504 -0.2973  2.8209
11994SOL    HW236553   2.387   4.907   0.010  0.4948 -0.2841  1.9946
11995SOL     OW36554   6.183   3.642   0.667 -0.3594 -0.1263 -0.1687
11995SOL    HW136555   6.205   3.712   0.605 -0.9458 -1.0596 -1.4626
11995SOL    HW236556   6.250   3.575   0.654 -0.7040 -0.4960 -0.0557
11996SOL     OW36557   2.556   6.942   5.810 -0.5105  0.0216 -0.0948
11996SOL    HW136558   2.591   7.007   5.871  0.2754  2.2492 -2.7200
11996SOL    HW236559   2.632   6.911   5.761 -1.2314 -0.9217 -0.6435
11997SOL     OW36560   0.024   4.823   0.911  0.1747 -0.4361 -0.0586
11997SOL    HW136561   0.102   4.819   0.857 -1.1079 -1.5241 -1.9456
11997SOL    HW236562  -0.022   4.902   0.882  1.2586  1.1204  2.1669
11998SOL     OW36563   3.010   2.681   0.556  0.2454 -0.7856 -0.0835
11998SOL    HW136564   3.045   2.710   0.641 -1.1417 -0.5669  0.4429
11998SOL    HW236565   3.039   2.748   0.494  1.4345 -1.0436  0.1614
11999SOL     OW36566   5.115   4.997   6.369  0.4583  0.2660 -0.6782
11999SOL    HW136567   5.196   5.020   6.414  0.0979  0.7279 -0.2514
11999SOL    HW236568   5.059   4.961   6.438 -0.9458  3.0613 -0.2153
12000SOL     OW36569   6.776   4.320   6.958 -0.2554  0.0699 -0.1679
12000SOL    HW136570   6.762   4.395   7.016 -0.8942  0.4083 -0.7394
12000SOL    HW236571   6.759   4.244   7.014 -0.1518  0.3648  0.2743
12001SOL     OW36572   1.745   3.715   3.222  0.0017 -0.1236  0.0392
12001SOL    HW136573   1.726   3.697   3.314 -0.8314 -0.2974 -0.1633
12001SOL    HW236574   1.725   3.808   3.211 -0.6133 -0.2765 -0.1436
12002SOL     OW36575   5.019   3.744   0.641 -0.6523 -0.1337 -0.8500
12002SOL    HW136576   5.109   3.760   0.669 -0.5740 -3.0319  0.9326
12002SOL    HW236577   4.967   3.746   0.722 -1.4576 -2.5703 -1.2055
12003SOL     OW36578   0.183   2.668   1.932  0.0252  0.6457  0.7101
12003SOL    HW136579   0.260   2.706   1.890  0.1767 -0.8587 -0.4603
12003SOL    HW236580   0.219   2.604   1.995 -0.2559  1.0339  1.2774
12004SOL     OW36581   2.914   0.732   7.220 -0.1086  0.6879  0.0231
12004SOL    HW136582   2.844   0.797   7.219 -1.5747 -0.8327  0.0355
12004SOL    HW236583   2.870   0.649   7.238  1.7440 -0.2842  0.3534
12005SOL     OW36584   6.315   4.765   6.969  0.6675 -0.6244 -0.2075
12005SOL    HW136585   6.333   4.849   6.928  0.4159 -0.1871  0.5526
12005SOL    HW236586   6.333   4.700   6.901  0.5019  0.0629 -0.9159
12006SOL     OW36587   2.759   3.047   4.668 -0.3329  0.2857 -0.0130
12006SOL    HW136588   2.739   3.042   4.575 -0.3964  0.4536 -0.0073
12006SOL    HW236589   2.838   2.993   4.679 -0.1603  0.5012 -0.2079
12007SOL     OW36590   6.846   2.838   4.751 -0.1589  0.1909  0.2124
12007SOL    HW136591   6.895   2.769   4.706  0.9992  0.7602  0.5497
12007SOL    HW236592   6.761   2.839   4.708 -0.2611 -1.5385  0.2880
12008SOL     OW36593   6.949   7.239   4.389 -0.4189 -0.2972  0.2287
12008SOL    HW136594   7.001   7.220   4.311  1.2647 -0.6564  1.3904
12008SOL    HW236595   6.865   7.270   4.354  0.4638  0.0785 -1.7185
12009SOL     OW36596   5.191   5.849   5.457 -0.0139  0.3604 -0.3685
12009SOL    HW136597   5.132   5.797   5.512 -0.5846 -0.2827 -1.5412
12009SOL    HW236598   5.136   5.876   5.383  0.1747  2.9243  0.3293
12010SOL     OW36599   7.162   7.265   0.184 -0.0965 -0.2174  0.5462
12010SOL    HW136600   7.176   7.211   0.106 -1.2132  0.6484 -0.2995
12010SOL    HW236601   7.097   7.217   0.235 -1.1817  0.3381 -0.2662
12011SOL     OW36602   0.965   2.419   5.074 -0.1108 -0.1756  0.2746
12011SOL    HW136603   0.965   2.509   5.040 -1.9342  0.0556  0.7576
12011SOL    HW236604   0.873   2.396   5.080  0.2093 -1.2083  2.4117
12012SOL     OW36605   1.342   2.384   4.660  0.1201  0.0141 -0.1647
12012SOL    HW136606   1.276   2.338   4.608  2.2443 -1.0610 -2.0698
12012SOL    HW236607   1.423   2.375   4.610  1.7069  1.4681  1.9570
12013SOL     OW36608   0.762   4.959   4.052  0.0165 -0.2593  0.2492
12013SOL    HW136609   0.724   5.041   4.020 -0.1366  0.1712  1.4811
12013SOL    HW236610   0.754   4.965   4.147  1.9314 -0.7797  0.4693
12014SOL     OW36611   5.837   1.895   6.618  0.0634 -0.6153 -0.2635
12014SOL    HW136612   5.900   1.947   6.568 -1.4238  0.6620 -0.8708
12014SOL    HW236613   5.872   1.806   6.614  1.4333 -0.0756 -1.2155
12015SOL     OW36614   6.365   5.759   1.736 -0.0947  0.4812  0.3330
12015SOL    HW136615   6.375   5.822   1.808  0.0391  0.9151 -0.0606
12015SOL    HW236616   6.275   5.772   1.706  0.3537  1.4839 -0.6574
12016SOL     OW36617   4.362   5.970   4.852  0.5863  0.2280  0.1818
12016SOL    HW136618   4.406   5.913   4.915  1.1759 -1.4505 -1.6565
12016SOL    HW236619   4.433   6.012   4.803  0.1870 -0.5290 -1.0986
12017SOL     OW36620   0.094   6.057   2.669  0.7159  0.4703  0.0188
12017SOL    HW136621   0.135   5.982   2.712  1.7136  0.0379 -1.5672
12017SOL    HW236622   0.001   6.037   2.671  1.0019 -1.2410 -1.0048
12018SOL     OW36623   7.291   4.098   4.861  0.1243 -0.1284 -0.5094
12018SOL    HW136624   7.324   4.154   4.931 -1.5004  0.2915 -0.0522
12018SOL    HW236625   7.364   4.039   4.842  1.9153  2.1046 -1.0406
12019SOL     OW36626   2.311   4.417   0.093  0.2256 -0.0571 -0.3565
12019SOL    HW136627   2.282   4.331   0.061  0.4618 -0.0374 -0.6267
12019SOL    HW236628   2.233   4.472   0.088 -1.1351 -1.2581  3.6966
12020SOL     OW36629   5.393   6.575   1.480 -0.3377  0.1782 -0.3122
12020SOL    HW136630   5.480   6.614   1.492 -0.0772 -0.6397  0.5714
12020SOL    HW236631   5.374   6.533   1.564 -0.3137 -2.1661 -1.4090
12021SOL     OW36632   1.110   6.003   0.678  0.0939 -0.0882  0.3610
12021SOL    HW136633   1.062   6.086   0.674 -0.3010 -0.3504 -1.0957
12021SOL    HW236634   1.202   6.029   0.672 -0.0195  0.2656  0.0973
12022SOL     OW36635   1.316   4.902   0.279  0.3622 -0.4685  0.3592
12022SOL    HW136636   1.340   4.830   0.337  1.3281 -0.4433  0.0046
12022SOL    HW236637   1.278   4.859   0.203  0.4786 -0.5797  0.3633
12023SOL     OW36638   1.955   0.576   1.697 -0.1674 -0.1220 -0.0775
12023SOL    HW136639   1.913   0.541   1.619  2.3708 -0.5812 -1.3609
12023SOL    HW236640   1.937   0.512   1.765 -1.2390 -0.4426 -0.6404
12024SOL     OW36641   0.079   0.615   6.432 -0.1207  0.4425  0.9248
12024SOL    HW136642   0.167   0.653   6.424  0.0389 -0.1693 -0.4549
12024SOL    HW236643   0.090   0.545   6.497  0.1724  1.0310  1.5197
12025SOL     OW36644   6.914   6.222   6.794 -0.1893  0.4575 -0.3327
12025SOL    HW136645   6.968   6.151   6.762 -1.0130 -0.2222 -0.2722
12025SOL    HW236646   6.824   6.193   6.776 -0.6603  0.3212  1.9474
12026SOL     OW36647   4.161   2.954   0.798 -0.0208 -0.1033 -0.2970
12026SOL    HW136648   4.241   2.937   0.747 -0.2820 -3.2199  0.1634
12026SOL    HW236649   4.192   2.965   0.888 -0.0781 -2.0201  0.0013
12027SOL     OW36650   4.478   2.668   3.408  0.1055 -0.1131  0.3660
12027SOL    HW136651   4.551   2.664   3.470 -1.1842 -1.3070  1.8648
12027SOL    HW236652   4.498   2.744   3.353  2.1685 -0.0624  1.1106
12028SOL     OW36653   2.182   2.089   0.134 -0.0014 -0.3750  0.5598
12028SOL    HW136654   2.112   2.078   0.198  0.8124 -0.8530  1.4072
12028SOL    HW236655   2.185   2.183   0.117 -2.1782 -0.5253 -1.0829
12029SOL     OW36656   5.940   2.189   5.215  0.2126 -0.6551 -0.0901
12029SOL    HW136657   5.942   2.094   5.222  3.7144 -0.7736 -1.0261
12029SOL    HW236658   5.869   2.207   5.153 -0.4470 -2.6429  0.0214
12030SOL     OW36659   1.452   2.339   6.239  0.2904 -0.5116  0.0932
12030SOL    HW136660   1.371   2.389   6.250  0.8309  0.3520  0.2362
12030SOL    HW236661   1.436   2.256   6.284 -0.5903 -0.4330 -0.0697
12031SOL     OW36662   2.309   0.576   5.089 -0.3446 -0.5782 -0.1972
12031SOL    HW136663   2.225   0.537   5.064 -1.1521  0.3641  0.9437
12031SOL    HW236664   2.289   0.668   5.106  0.6494 -0.6183  1.3669
12032SOL     OW36665   4.191   3.864   1.318  0.5059  0.1982  0.5221
12032SOL    HW136666   4.255   3.799   1.345  3.2713  1.7235 -1.7902
12032SOL    HW236667   4.212   3.942   1.370  0.5605  0.6971 -0.2231
12033SOL     OW36668   5.554   6.944   2.013  0.3954  0.0337 -0.0915
12033SOL    HW136669   5.511   6.860   1.998  0.6642 -0.1249  0.0137
12033SOL    HW236670   5.489   6.995   2.061  0.2922 -0.1754 -0.0042
12034SOL     OW36671   5.291   1.167   1.249  0.4404 -0.4656 -0.6086
12034SOL    HW136672   5.254   1.083   1.221  0.2135 -1.0400  1.2461
12034SOL    HW236673   5.249   1.184   1.334  1.8832  0.5750 -0.0621
12035SOL     OW36674   3.540   3.736   2.794  0.3113 -0.0643  0.1523
12035SOL    HW136675   3.474   3.753   2.727 -0.1812  0.0303  0.6531
12035SOL    HW236676   3.565   3.644   2.780 -0.3996 -0.2946  0.3665
12036SOL     OW36677   0.786   3.325   7.083 -0.2973 -0.5905  0.0635
12036SOL    HW136678   0.719   3.309   7.016 -1.7951  0.4188  1.2541
12036SOL    HW236679   0.819   3.238   7.104 -0.2811 -0.9915 -1.4857
12037SOL     OW36680   1.637   0.826   7.264  0.0539 -0.1305  0.7209
12037SOL    HW136681   1.689   0.831   7.344  0.4338 -3.6546  0.8784
12037SOL    HW236682   1.546   0.833   7.294  0.2451 -0.0958  1.3057
12038SOL     OW36683   4.787   2.886   1.940 -0.1387 -0.5680  0.5786
12038SOL    HW136684   4.698   2.889   1.976 -0.5564 -1.6177 -0.2992
12038SOL    HW236685   4.844   2.905   2.014 -1.1355  2.0931  0.8021
12039SOL     OW36686   0.755   1.264   0.970  0.3844  0.5260  0.1902
12039SOL    HW136687   0.696   1.230   0.903  0.0535  1.1367  0.1626
12039SOL    HW236688   0.699   1.317   1.026  0.7171  0.2535  0.7832
12040SOL     OW36689   4.214   5.477   6.431  0.5075 -0.1394  0.8265
12040SOL    HW136690   4.135   5.463   6.379  1.9614 -2.2720 -1.0333
12040SOL    HW236691   4.209   5.411   6.500 -0.0608  0.8133  1.7283
12041SOL     OW36692   0.558   5.865   2.214 -0.5073  0.6965 -0.0768
12041SOL    HW136693   0.515   5.811   2.148  0.0493 -0.8964  0.8345
12041SOL    HW236694   0.583   5.945   2.166 -1.3802  0.1938 -1.4322
12042SOL     OW36695   2.277   3.333   3.033 -0.1946 -0.2426 -0.3202
12042SOL    HW136696   2.197   3.370   2.996  0.1595  0.0856 -0.7623
12042SOL    HW236697   2.246   3.270   3.098 -0.9610 -3.0573 -3.1664
12043SOL     OW36698   5.224   3.523   1.163 -0.0482 -0.2763  0.1237
12043SOL    HW136699   5.307   3.479   1.181 -0.2665 -0.2215  1.3568
12043SOL    HW236700   5.225   3.539   1.069  2.0662  1.2072  0.3252
12044SOL     OW36701   5.564   5.303   4.707  0.6769  0.5148 -0.4550
12044SOL    HW136702   5.570   5.387   4.751 -1.5814  0.7988 -0.5519
12044SOL    HW236703   5.488   5.312   4.649 -0.7379 -2.1107  0.7996
12045SOL     OW36704   7.037   3.687   1.639 -0.0608 -0.1282 -0.1548
12045SOL    HW136705   7.112   3.632   1.616 -0.2564  0.1822 -1.6034
12045SOL    HW236706   7.031   3.750   1.568 -1.6517 -0.1031 -0.0287
12046SOL     OW36707   7.306   1.225   0.615 -0.1345  0.3671  0.3002
12046SOL    HW136708   7.232   1.186   0.661  1.6191 -1.0555  2.1026
12046SOL    HW236709   7.364   1.152   0.596  1.6144  1.6270  0.5409
12047SOL     OW36710   4.532   1.363   6.417  0.8632 -0.1947  0.0809
12047SOL    HW136711   4.595   1.294   6.393  0.8393 -0.4744  0.7965
12047SOL    HW236712   4.521   1.414   6.337  0.9159 -0.9989 -0.4571
12048SOL     OW36713   0.051   0.131   5.670 -0.0936  0.2537  0.2999
12048SOL    HW136714   0.000   0.108   5.748  0.0391 -2.3851 -0.2884
12048SOL    HW236715   0.090   0.216   5.691 -2.8074  1.2721  1.6909
12049SOL     OW36716   4.738   0.969   1.647 -0.3084  0.0093 -0.0753
12049SOL    HW136717   4.681   1.026   1.698 -1.1478 -0.9980  0.1412
12049SOL    HW236718   4.678   0.914   1.596  0.4211 -1.4653  0.5738
12050SOL     OW36719   0.379   3.437   3.585 -0.6034  1.1206 -0.5015
12050SOL    HW136720   0.377   3.518   3.635  4.0786  1.1602  0.0775
12050SOL    HW236721   0.403   3.370   3.648 -1.5700 -0.2133 -1.4901
12051SOL     OW36722   1.210   1.076   1.384  0.0336 -0.6719  0.0193
12051SOL    HW136723   1.229   1.064   1.291 -0.5462  0.3972 -0.2491
12051SOL    HW236724   1.295   1.064   1.427  0.9905  2.0043 -0.9490
12052SOL     OW36725   4.308   6.704   5.928 -0.2930  0.2674  0.1045
12052SOL    HW136726   4.230   6.721   5.876 -0.7947  0.1241  0.7937
12052SOL    HW236727   4.337   6.790   5.957  0.0503  0.3582 -0.4818
12053SOL     OW36728   1.297   1.261   3.028  0.4057  0.2568 -0.0803
12053SOL    HW136729   1.345   1.339   3.056  0.2499  0.0829  0.6892
12053SOL    HW236730   1.314   1.196   3.097 -1.2542  0.3188  0.4365
12054SOL     OW36731   2.765   5.610   6.181 -0.1074 -0.1607 -0.3991
12054SOL    HW136732   2.807   5.560   6.111  1.0829 -2.4848  1.7816
12054SOL    HW236733   2.697   5.552   6.214  0.1732  0.3253  1.1322
12055SOL     OW36734   6.514   1.022   6.280 -0.3110  0.3020 -0.0663
12055SOL    HW136735   6.453   1.082   6.324 -0.8790 -0.2650 -0.0704
12055SOL    HW236736   6.580   1.002   6.347 -0.5875  0.2719  0.2016
12056SOL     OW36737   3.688   1.754   0.831  0.0848 -0.3788 -0.6594
12056SOL    HW136738   3.768   1.805   0.843 -0.1614  0.0410 -0.7863
12056SOL    HW236739   3.687   1.693   0.906 -0.1655  0.5252  0.0930
12057SOL     OW36740   3.533   5.648   6.496  0.2008 -0.0997 -0.0039
12057SOL    HW136741   3.590   5.698   6.438 -0.4404  0.6049 -0.0453
12057SOL    HW236742   3.460   5.621   6.441  0.5179 -1.0527  0.0307
12058SOL     OW36743   5.309   0.675   4.979  0.0729 -0.0366  1.0613
12058SOL    HW136744   5.259   0.751   5.010 -0.3032  0.2858 -0.2875
12058SOL    HW236745   5.263   0.600   5.017 -0.7516  0.3141  0.7901
12059SOL     OW36746   7.404   3.802   0.110  0.1688 -0.3501  0.0749
12059SOL    HW136747   7.491   3.835   0.089 -0.5347  0.8841 -1.0307
12059SOL    HW236748   7.420   3.717   0.151  1.8350 -0.8474 -1.4721
12060SOL     OW36749   2.121   2.687   5.380  0.1663  0.4425  0.3098
12060SOL    HW136750   2.209   2.694   5.343  0.5282  3.0889  1.4239
12060SOL    HW236751   2.136   2.654   5.469  0.0144  0.4523  0.3380
12061SOL     OW36752   4.575   5.566   6.759  0.1188 -0.0030 -0.2093
12061SOL    HW136753   4.607   5.491   6.808  0.7747  0.4263  0.0312
12061SOL    HW236754   4.514   5.529   6.695  0.0336 -0.6780  0.2524
12062SOL     OW36755   5.565   1.068   6.978  0.2387  0.0396 -0.1318
12062SOL    HW136756   5.605   0.998   6.926 -0.3715 -0.9100  0.6326
12062SOL    HW236757   5.532   1.024   7.056 -0.9226  1.0428 -0.0263
12063SOL     OW36758   6.187   3.539   4.006  0.3541  0.4787 -0.7201
12063SOL    HW136759   6.093   3.555   4.008  0.0755 -1.0371  0.7293
12063SOL    HW236760   6.225   3.610   4.057 -0.3016 -0.2682  0.8933
12064SOL     OW36761   5.023   2.969   2.914 -0.2126  0.5083  0.0446
12064SOL    HW136762   5.116   2.972   2.890  0.0546  0.7418  1.0527
12064SOL    HW236763   4.986   2.900   2.859  0.7064 -0.0563  0.1093
12065SOL     OW36764   0.702   4.689   5.773 -0.2132 -1.1903  0.0868
12065SOL    HW136765   0.790   4.725   5.770 -0.2741 -0.8445  1.6613
12065SOL    HW236766   0.644   4.764   5.761 -0.3083 -1.3432 -0.4423
12066SOL     OW36767   5.797   5.273   5.097 -0.1786  0.6899  0.1165
12066SOL    HW136768   5.858   5.252   5.168  0.3872  1.2180 -0.2088
12066SOL    HW236769   5.811   5.203   5.033  0.2039  0.8937 -0.0270
12067SOL     OW36770   7.123   4.188   6.437  0.0866 -0.4670  0.0832
12067SOL    HW136771   7.207   4.223   6.465 -0.4527 -0.9159  2.4731
12067SOL    HW236772   7.060   4.224   6.499 -1.1922 -1.6960 -0.4415
12068SOL     OW36773   5.681   1.981   4.467  0.6051  0.0018 -0.0817
12068SOL    HW136774   5.632   2.020   4.395  0.0165 -0.4535  0.0697
12068SOL    HW236775   5.672   2.044   4.539  0.0632 -0.1851  0.0132
12069SOL     OW36776   3.572   6.957   0.085  0.4912  0.0859 -0.6828
12069SOL    HW136777   3.652   6.930   0.131  0.2476  0.0246 -0.2871
12069SOL    HW236778   3.540   6.876   0.045  0.3810  0.0175 -0.4580
12070SOL     OW36779   4.692   3.815   1.308 -0.6640  0.6561  0.6282
12070SOL    HW136780   4.656   3.865   1.235 -2.6124  0.0407  1.1137
12070SOL    HW236781   4.656   3.727   1.299  0.6579  0.0063  1.2362
12071SOL     OW36782   6.532   3.867   6.910  0.7082  0.1124 -0.3164
12071SOL    HW136783   6.443   3.832   6.899  0.5985  0.5675 -0.9302
12071SOL    HW236784   6.576   3.802   6.964 -0.1603  0.1550  0.4723
12072SOL     OW36785   3.068   5.819   1.107  0.0674 -0.0327  0.3622
12072SOL    HW136786   3.141   5.826   1.168 -2.1664  1.4153  3.0735
12072SOL    HW236787   2.995   5.786   1.159 -1.3684 -1.1480 -2.1551
12073SOL     OW36788   2.237   5.019   2.805 -0.8183 -0.1833  0.1911
12073SOL    HW136789   2.257   5.040   2.896 -0.2822 -2.9194  0.8113
12073SOL    HW236790   2.242   5.102   2.759 -2.6787  1.5649  2.8833
12074SOL     OW36791   3.111   5.060   4.551  0.4428 -0.6031 -0.0730
12074SOL    HW136792   3.074   4.978   4.519 -0.6879  0.0657 -0.5562
12074SOL    HW236793   3.044   5.126   4.530  0.4748  0.1631  1.9742
12075SOL     OW36794   5.470   0.538   1.573 -0.2000 -0.1018 -0.0004
12075SOL    HW136795   5.510   0.523   1.487 -0.7127 -2.1430  0.0700
12075SOL    HW236796   5.520   0.611   1.611 -0.0386  0.9093 -2.0421
12076SOL     OW36797   0.550   1.284   2.884 -0.4136 -0.5553  0.6861
12076SOL    HW136798   0.539   1.221   2.955 -0.5748 -1.5120 -0.1669
12076SOL    HW236799   0.591   1.360   2.926 -0.1383 -1.2501  1.7232
12077SOL     OW36800   6.438   2.498   4.632  0.0863 -0.3314  0.4789
12077SOL    HW136801   6.498   2.534   4.566 -1.3852  3.2054  0.8340
12077SOL    HW236802   6.366   2.461   4.581 -1.4519  3.1258 -0.1133
12078SOL     OW36803   1.082   3.824   1.232  0.5261 -0.7718  0.5591
12078SOL    HW136804   1.034   3.759   1.179  1.5822 -0.8251 -0.3690
12078SOL    HW236805   1.016   3.858   1.292  0.2947 -3.9340  2.3186
12079SOL     OW36806   1.864   4.559   1.842  0.3840  0.3123  0.2425
12079SOL    HW136807   1.787   4.532   1.891 -0.6348  2.4624 -0.0650
12079SOL    HW236808   1.912   4.616   1.902 -0.0417  1.6577 -0.6373
12080SOL     OW36809   2.867   0.299   4.587 -0.3511  0.1223 -0.1365
12080SOL    HW136810   2.932   0.292   4.657  1.4273  0.3299 -1.6753
12080SOL    HW236811   2.783   0.289   4.631  0.6674  0.6511  2.0731
12081SOL     OW36812   6.483   0.787   6.891 -0.1620  0.1295  0.2353
12081SOL    HW136813   6.508   0.696   6.910  0.2134 -0.2434 -1.8431
12081SOL    HW236814   6.391   0.782   6.866  0.0485  0.2080 -0.5670
12082SOL     OW36815   3.024   5.063   3.691 -0.3213  0.2062 -0.2331
12082SOL    HW136816   2.973   5.127   3.740 -1.8852 -0.6565 -0.6734
12082SOL    HW236817   3.089   5.031   3.754 -1.1578  0.3859  0.7489
12083SOL     OW36818   4.552   3.664   4.478 -0.7083  0.3619  0.1980
12083SOL    HW136819   4.478   3.665   4.540 -0.1318  0.6330  0.8898
12083SOL    HW236820   4.580   3.755   4.473 -1.2530  0.4866 -1.1014
12084SOL     OW36821   0.930   2.828   5.220  1.1562  0.0691  0.1018
12084SOL    HW136822   0.982   2.908   5.233 -1.0594  1.2639  2.5176
12084SOL    HW236823   0.914   2.796   5.309  1.5393 -2.8479 -0.7953
12085SOL     OW36824   5.558   6.893   2.516 -0.7261  0.1462  0.1344
12085SOL    HW136825   5.470   6.895   2.478 -1.0896 -2.7366  0.5638
12085SOL    HW236826   5.542   6.886   2.610  0.0300  1.2672  0.3591
12086SOL     OW36827   0.839   4.197   0.321  0.0282  0.2002 -0.4840
12086SOL    HW136828   0.858   4.137   0.248 -3.5642 -0.0685 -1.3810
12086SOL    HW236829   0.773   4.151   0.373  0.6702  1.4762  1.5594
12087SOL     OW36830   3.475   6.858   0.539  1.0411 -0.2683  0.5713
12087SOL    HW136831   3.516   6.776   0.510 -0.1100 -0.1642 -1.5555
12087SOL    HW236832   3.547   6.921   0.545  1.4518 -0.4241 -1.7690
12088SOL     OW36833   4.516   0.606   0.609  0.1138 -0.3392  0.0211
12088SOL    HW136834   4.486   0.656   0.685 -0.6373  1.2707 -1.2809
12088SOL    HW236835   4.579   0.663   0.565 -0.6610 -0.5497 -1.4290
12089SOL     OW36836   6.885   5.927   1.460 -0.4740  0.2674  0.0000
12089SOL    HW136837   6.800   5.897   1.426 -0.3899  0.0233  0.0115
12089SOL    HW236838   6.912   5.995   1.398 -1.0306  0.8731  0.4086
12090SOL     OW36839   6.995   2.650   1.874  0.3240  0.1501 -0.4149
12090SOL    HW136840   7.005   2.611   1.787 -1.8632  2.7226 -2.0064
12090SOL    HW236841   6.934   2.592   1.919 -0.6837  0.2133 -1.6486
12091SOL     OW36842   0.325   2.764   2.918  0.2655 -0.1699 -0.2584
12091SOL    HW136843   0.360   2.840   2.872  3.3027 -1.0759  0.3144
12091SOL    HW236844   0.273   2.801   2.990  0.8738  1.3471 -0.5602
12092SOL     OW36845   1.568   6.538   6.284 -0.0815 -0.2911 -0.3680
12092SOL    HW136846   1.623   6.616   6.276  0.2650 -0.3987  0.7856
12092SOL    HW236847   1.595   6.498   6.366 -0.9193 -1.1154 -0.4775
12093SOL     OW36848   7.024   5.539   1.054 -0.1198 -0.3667  0.4086
12093SOL    HW136849   6.935   5.562   1.028 -0.6430 -1.0261  1.5335
12093SOL    HW236850   7.021   5.445   1.070  0.6845 -0.3314  0.8390
12094SOL     OW36851   2.983   0.165   2.589 -0.2367  0.1068 -0.2478
12094SOL    HW136852   3.077   0.180   2.604 -0.2173 -0.2198 -0.0287
12094SOL    HW236853   2.978   0.074   2.560 -0.4898  0.1169 -0.2348
12095SOL     OW36854   3.686   6.669   5.916 -0.1299  0.2662 -0.4600
12095SOL    HW136855   3.753   6.678   5.984 -0.8333 -1.7258  0.5968
12095SOL    HW236856   3.728   6.616   5.849 -0.3877 -0.4017 -0.1105
12096SOL     OW36857   3.875   3.078   4.540  0.0865 -0.3564  0.5732
12096SOL    HW136858   3.808   3.059   4.475 -0.4157 -0.1371  1.0213
12096SOL    HW236859   3.826   3.100   4.619  0.6324  1.4170  0.4670
12097SOL     OW36860   1.164   6.349   5.301  0.2234 -0.4484 -0.0607
12097SOL    HW136861   1.082   6.396   5.283  2.1300  3.0124 -0.4657
12097SOL    HW236862   1.151   6.262   5.261 -2.2308  0.9150 -2.6003
12098SOL     OW36863   1.975   4.161   4.963 -0.4313 -0.4173  0.5020
12098SOL    HW136864   2.063   4.198   4.964  0.3918 -1.7683 -3.4820
12098SOL    HW236865   1.918   4.235   4.943  0.1126  0.0570  0.6803
12099SOL     OW36866   2.445   2.477   4.644  0.1830  0.4091  0.1125
12099SOL    HW136867   2.521   2.423   4.667  0.0402 -0.1817 -0.7898
12099SOL    HW236868   2.402   2.494   4.728  0.1752 -0.9689  0.4195
12100SOL     OW36869   5.153   3.690   6.129  0.0854  0.2794  0.5821
12100SOL    HW136870   5.214   3.708   6.058 -0.1119 -0.8439  0.1130
12100SOL    HW236871   5.208   3.666   6.203  0.2313 -2.0422 -0.2074
12101SOL     OW36872   2.715   1.687   0.097 -0.0182  0.0387 -0.3590
12101SOL    HW136873   2.641   1.689   0.036  0.6565 -0.2783 -1.2240
12101SOL    HW236874   2.763   1.607   0.073  1.0907  0.6983 -0.4316
12102SOL     OW36875   2.935   6.553   4.140 -0.4555  0.3307 -0.3415
12102SOL    HW136876   2.933   6.622   4.074  0.4596  1.0720  0.3622
12102SOL    HW236877   2.924   6.600   4.223  0.0898 -0.3771  0.1435
12103SOL     OW36878   3.883   2.606   2.977 -0.2363  0.5844  0.3094
12103SOL    HW136879   3.925   2.533   2.931 -0.4104  0.7045 -0.0405
12103SOL    HW236880   3.793   2.577   2.992 -0.4219  0.8897 -0.1966
12104SOL     OW36881   2.191   1.915   1.583 -0.3274 -0.1710 -0.4862
12104SOL    HW136882   2.188   1.879   1.495 -0.8942 -0.3724 -0.3858
12104SOL    HW236883   2.207   2.009   1.571 -1.7396  0.0380 -0.8563
12105SOL     OW36884   5.199   1.867   4.674 -0.3175 -0.2780  1.2503
12105SOL    HW136885   5.207   1.791   4.616 -0.7354 -0.0185  0.8422
12105SOL    HW236886   5.126   1.844   4.733 -1.2412  0.2896  0.3531
12106SOL     OW36887   2.065   3.753   6.672  0.3092 -0.5507 -0.1177
12106SOL    HW136888   2.017   3.760   6.589  1.5429 -0.6219 -0.8674
12106SOL    HW236889   2.156   3.741   6.646  0.6483 -1.1813  1.2617
12107SOL     OW36890   5.883   4.362   3.432  0.2537 -0.8151  0.3737
12107SOL    HW136891   5.959   4.305   3.446 -0.0899 -0.8438  2.3887
12107SOL    HW236892   5.853   4.384   3.520 -1.6200 -0.1697 -0.3846
12108SOL     OW36893   6.135   4.706   5.146  0.0201 -0.4526  0.3610
12108SOL    HW136894   6.206   4.741   5.092 -0.0019  0.4637  0.9031
12108SOL    HW236895   6.179   4.673   5.225 -0.0776 -0.6394  0.3382
12109SOL     OW36896   6.649   0.401   1.998  0.0420 -0.1672 -0.0754
12109SOL    HW136897   6.607   0.422   1.915  0.6376 -0.7948 -0.5600
12109SOL    HW236898   6.600   0.327   2.032 -0.0209 -0.0992 -0.0189
12110SOL     OW36899   6.866   0.104   7.256 -0.0648 -0.5770 -0.2739
12110SOL    HW136900   6.961   0.103   7.254  0.0630  1.2604  1.4081
12110SOL    HW236901   6.843   0.042   7.324 -0.1066 -1.2954 -0.9334
12111SOL     OW36902   1.668   3.306   2.493 -0.2958  0.0888 -0.0898
12111SOL    HW136903   1.664   3.268   2.405 -0.7715 -0.6366  0.2342
12111SOL    HW236904   1.699   3.396   2.479 -2.2144  0.6342 -1.2072
12112SOL     OW36905   2.705   6.708   3.311  0.4051  0.3861  0.4803
12112SOL    HW136906   2.792   6.736   3.284  0.2245  0.4304 -0.0583
12112SOL    HW236907   2.669   6.661   3.236  0.0783  0.1070  0.8030
12113SOL     OW36908   5.757   2.667   0.607  0.2845 -0.5491  0.5172
12113SOL    HW136909   5.833   2.676   0.549 -0.1202 -0.4889 -0.0043
12113SOL    HW236910   5.723   2.756   0.617  0.2615 -0.5805  0.7293
12114SOL     OW36911   1.982   3.917   2.970  0.3710 -0.1266  0.4242
12114SOL    HW136912   2.067   3.881   2.996  0.3683 -0.0151  0.5935
12114SOL    HW236913   2.004   3.991   2.913  0.3611 -0.9880 -0.7414
12115SOL     OW36914   5.287   2.627   1.443  1.0912 -0.0994  0.1495
12115SOL    HW136915   5.198   2.619   1.408  0.8228  0.3013  0.7093
12115SOL    HW236916   5.311   2.538   1.467  1.1706 -0.3360 -0.7693
12116SOL     OW36917   6.323   4.183   4.706  0.5575  0.4429 -0.1914
12116SOL    HW136918   6.300   4.275   4.711 -0.0783  0.2886 -0.2523
12116SOL    HW236919   6.296   4.147   4.791  0.1886  0.1761 -0.4210
12117SOL     OW36920   6.403   2.361   2.912  0.4181  0.1416 -0.3525
12117SOL    HW136921   6.406   2.356   3.007 -0.1749 -0.4381 -0.3584
12117SOL    HW236922   6.424   2.452   2.892 -2.0206  0.9808  0.4798
12118SOL     OW36923   6.746   6.357   1.167  0.0996  0.4862 -0.4204
12118SOL    HW136924   6.803   6.335   1.092  0.9684 -2.1831  0.9013
12118SOL    HW236925   6.660   6.323   1.143  0.0208  0.9125 -0.7607
12119SOL     OW36926   4.541   4.344   6.235 -0.3065  0.1816  0.5936
12119SOL    HW136927   4.577   4.432   6.229 -0.2921  0.3020  2.1028
12119SOL    HW236928   4.462   4.347   6.180  0.5011  0.6696 -0.5939
12120SOL     OW36929   1.089   2.363   0.898  0.4283  0.2709 -0.4923
12120SOL    HW136930   1.160   2.303   0.873 -0.0975 -0.2479 -0.7538
12120SOL    HW236931   1.131   2.449   0.899  1.3940 -0.1774  0.7031
12121SOL     OW36932   7.414   6.496   2.368  0.5500 -0.3349  0.3019
12121SOL    HW136933   7.336   6.490   2.423 -0.8428  2.0795 -1.2420
12121SOL    HW236934   7.411   6.417   2.314 -0.8054 -0.3289  0.3411
12122SOL     OW36935   3.212   4.570   4.715 -0.4050  0.2221  0.3392
12122SOL    HW136936   3.254   4.602   4.636 -1.6583  0.1306 -0.3916
12122SOL    HW236937   3.119   4.590   4.703 -0.7721 -0.8006  1.2815
12123SOL     OW36938   3.065   1.186   1.478  0.6421 -0.5218  0.7822
12123SOL    HW136939   3.096   1.228   1.558 -0.2477 -1.3188  1.5697
12123SOL    HW236940   3.046   1.096   1.504 -0.9907 -0.4395  0.0297
12124SOL     OW36941   6.012   6.667   3.864 -0.1914  0.7491  0.0477
12124SOL    HW136942   5.944   6.616   3.821  0.2650  0.3508 -0.2105
12124SOL    HW236943   6.009   6.638   3.956 -1.2550  1.6989  0.3375
12125SOL     OW36944   3.487   3.116   6.024  0.2184 -0.6370 -0.3882
12125SOL    HW136945   3.480   3.061   6.103 -1.9467  0.0357 -0.0286
12125SOL    HW236946   3.489   3.053   5.952 -1.2053 -1.2499  0.0679
12126SOL     OW36947   5.314   3.007   0.942 -0.5423 -0.4894  0.1866
12126SOL    HW136948   5.329   3.096   0.909  2.5080 -0.1679  2.0334
12126SOL    HW236949   5.331   2.950   0.867  1.1840  0.3991 -0.1426
12127SOL     OW36950   6.844   6.621   0.574 -0.0673 -0.2364 -0.0180
12127SOL    HW136951   6.805   6.658   0.653  0.6988 -1.4005  0.9414
12127SOL    HW236952   6.773   6.622   0.510 -1.6159 -1.9101  1.5338
12128SOL     OW36953   4.706   6.447   3.652 -0.2485 -0.2790 -0.1752
12128SOL    HW136954   4.709   6.363   3.605  0.9269 -0.0607 -0.5298
12128SOL    HW236955   4.718   6.424   3.744 -0.0826 -0.5129 -0.2545
12129SOL     OW36956   2.201   3.232   3.662 -0.0366 -0.1227 -0.8394
12129SOL    HW136957   2.187   3.164   3.728 -1.9976  1.1817  0.1920
12129SOL    HW236958   2.275   3.283   3.695  1.5287 -1.7466 -1.6828
12130SOL     OW36959   2.961   7.177   0.851 -0.0875  0.2092  0.4973
12130SOL    HW136960   2.882   7.226   0.831  0.2804  0.6226  0.0125
12130SOL    HW236961   2.931   7.089   0.872 -0.5414 -0.1624 -1.5175
12131SOL     OW36962   0.458   3.618   0.216  0.9406 -0.6676  0.0438
12131SOL    HW136963   0.480   3.656   0.301 -0.4284 -0.1400  0.1894
12131SOL    HW236964   0.489   3.682   0.153 -0.7709  0.4643  0.2718
12132SOL     OW36965   7.401   3.836   2.497 -0.1959  0.0363 -0.0575
12132SOL    HW136966   7.492   3.822   2.524 -0.7441  0.5856  2.2600
12132SOL    HW236967   7.351   3.771   2.546 -1.1689  0.4382 -0.4862
12133SOL     OW36968   1.039   3.181   1.973  0.0154 -0.3000  0.0202
12133SOL    HW136969   1.028   3.275   1.955  1.3167  0.3718  2.2615
12133SOL    HW236970   0.958   3.141   1.941 -0.4573  1.5325 -1.2482
12134SOL     OW36971   1.841   5.746   2.893 -0.2364  0.1829  0.1503
12134SOL    HW136972   1.813   5.784   2.810  0.7887  0.8008  0.0696
12134SOL    HW236973   1.936   5.753   2.892 -0.2404  0.9411  1.7181
12135SOL     OW36974   1.281   2.372   4.022  0.1822 -0.2261 -0.2671
12135SOL    HW136975   1.219   2.299   4.018  1.6553 -1.5440 -0.0923
12135SOL    HW236976   1.238   2.442   3.973 -0.7731 -1.5891 -1.4853
12136SOL     OW36977   5.170   2.457   3.775 -0.5282  0.1607 -0.1898
12136SOL    HW136978   5.203   2.457   3.865 -2.0535  2.9488  0.4840
12136SOL    HW236979   5.244   2.484   3.721 -0.1372  0.4923  0.5092
12137SOL     OW36980   1.419   0.091   4.962  0.3511 -0.4045 -0.0373
12137SOL    HW136981   1.502   0.070   4.919  0.4002  0.7950 -0.5703
12137SOL    HW236982   1.442   0.099   5.055  0.9347  0.3995 -0.2416
12138SOL     OW36983   0.415   6.794   0.215 -0.0557 -0.2344  0.2627
12138SOL    HW136984   0.412   6.730   0.286 -1.3129 -0.9936 -0.4284
12138SOL    HW236985   0.410   6.741   0.135  0.4665  0.6452 -0.3755
12139SOL     OW36986   0.364   1.554   5.586  0.2124 -0.2027 -0.1612
12139SOL    HW136987   0.333   1.526   5.500 -0.3511 -0.6478  0.1769
12139SOL    HW236988   0.459   1.561   5.577  0.0527  0.9312 -1.1467
12140SOL     OW36989   6.191   7.064   0.992 -0.2852 -0.0029  0.0499
12140SOL    HW136990   6.232   7.032   0.912 -1.6808  1.7455 -1.4752
12140SOL    HW236991   6.150   6.987   1.031 -1.4387 -0.5969 -2.1588
12141SOL     OW36992   0.500   4.550   5.118  0.4703 -0.2003 -0.0174
12141SOL    HW136993   0.410   4.580   5.125 -0.0159 -1.8489  1.3712
12141SOL    HW236994   0.553   4.625   5.148 -0.4168  0.6458 -0.5086
12142SOL     OW36995   5.112   7.149   0.687 -0.1647 -0.2564  0.8428
12142SOL    HW136996   5.190   7.106   0.722  0.6172 -2.2085 -2.8134
12142SOL    HW236997   5.041   7.087   0.704 -0.9901  1.2630  3.6413
12143SOL     OW36998   0.784   1.362   6.306 -0.0121  0.0488  0.1533
12143SOL    HW136999   0.710   1.315   6.344 -0.8123  0.0343 -1.3466
12143SOL    HW237000   0.773   1.452   6.336 -0.6843  0.0635 -0.1224
12144SOL     OW37001   6.028   0.876   5.876 -0.9043  0.2826  0.1824
12144SOL    HW137002   6.024   0.830   5.792 -0.0489  2.1182 -0.9163
12144SOL    HW237003   5.949   0.847   5.922 -1.1471 -1.1321 -1.0404
12145SOL     OW37004   2.328   2.906   6.366  0.1712 -0.4690 -0.3595
12145SOL    HW137005   2.285   2.909   6.452 -0.2986 -0.7729 -0.5774
12145SOL    HW237006   2.418   2.932   6.383  0.0991 -0.5995  0.2408
12146SOL     OW37007   1.282   5.602   5.264 -0.7197  0.2395  0.3536
12146SOL    HW137008   1.242   5.575   5.182 -0.0107 -0.5443  0.2570
12146SOL    HW237009   1.244   5.688   5.282  1.8547  2.2410 -2.7146
12147SOL     OW37010   1.099   3.246   1.235 -0.0933  0.3635 -0.4888
12147SOL    HW137011   1.181   3.197   1.238  0.2507  0.8632 -1.3613
12147SOL    HW237012   1.059   3.232   1.321  0.9629  0.2233 -0.0079
12148SOL     OW37013   7.040   3.915   5.044  0.2945  0.7774 -0.0608
12148SOL    HW137014   7.022   3.823   5.062  0.8232  0.3750 -1.4536
12148SOL    HW237015   7.027   3.924   4.949  1.3166  1.8833 -0.1185
12149SOL     OW37016   7.138   6.742   5.351 -0.1115 -0.1124  0.2759
12149SOL    HW137017   7.060   6.764   5.300 -0.2947  1.9283  1.3275
12149SOL    HW237018   7.180   6.673   5.302 -2.1128 -0.6447 -0.7971
12150SOL     OW37019   0.909   0.843   1.038  0.3816  0.1249 -0.4437
12150SOL    HW137020   0.938   0.761   0.999 -2.1203 -0.7126 -0.6810
12150SOL    HW237021   0.934   0.836   1.130 -2.5250 -2.4104  0.3029
12151SOL     OW37022   1.530   5.554   3.682 -0.0573 -0.0780  0.0686
12151SOL    HW137023   1.580   5.480   3.646  1.1721  1.5408 -1.7616
12151SOL    HW237024   1.527   5.618   3.610  0.1006  2.2052  1.9809
12152SOL     OW37025   4.970   3.739   6.343  0.3131  0.4925 -0.2588
12152SOL    HW137026   4.949   3.651   6.375  1.7831  0.3411  0.3784
12152SOL    HW237027   5.032   3.724   6.271  0.3029  0.9964 -0.3758
12153SOL     OW37028   4.976   5.169   4.747  0.0028 -0.4631  0.7076
12153SOL    HW137029   5.060   5.208   4.773  0.1342 -1.1234  1.3227
12153SOL    HW237030   4.948   5.120   4.824 -0.0763 -1.7058 -0.0868
12154SOL     OW37031   1.592   5.067   7.225 -0.7406 -0.0221  0.7488
12154SOL    HW137032   1.634   5.147   7.258 -0.5470  0.0792  0.2670
12154SOL    HW237033   1.580   5.012   7.302 -0.8536  0.4638  1.0821
12155SOL     OW37034   4.498   1.246   6.895  0.0363 -0.3139  0.1840
12155SOL    HW137035   4.434   1.255   6.965  1.8847  1.3209  1.7949
12155SOL    HW237036   4.470   1.309   6.828  0.9983  1.9954  1.8188
12156SOL     OW37037   3.614   2.438   3.522 -0.4362  0.7099 -0.1534
12156SOL    HW137038   3.664   2.452   3.602  0.0420 -0.9058 -0.1350
12156SOL    HW237039   3.557   2.364   3.542  0.2337 -0.2276 -1.5024
12157SOL     OW37040   1.850   0.793   1.836  0.1774 -0.0050  0.1891
12157SOL    HW137041   1.887   0.726   1.778 -1.2188 -0.9960  0.3745
12157SOL    HW237042   1.907   0.793   1.913  1.6885  0.8808 -0.8732
12158SOL     OW37043   4.669   6.159   5.067  0.1873 -0.2706 -0.7398
12158SOL    HW137044   4.597   6.161   5.004 -0.5259  0.6774  0.0632
12158SOL    HW237045   4.649   6.231   5.127 -0.2383 -2.3644  1.7605
12159SOL     OW37046   2.935   0.275   5.307 -0.1884  0.2225  0.1373
12159SOL    HW137047   2.958   0.208   5.371 -0.5738  0.0046  0.0559
12159SOL    HW237048   2.839   0.273   5.304 -0.1904  0.5463 -0.1120
12160SOL     OW37049   2.680   7.070   6.020  0.1053  0.1972 -0.3291
12160SOL    HW137050   2.665   7.164   6.016 -0.5317  0.1730  0.8706
12160SOL    HW237051   2.756   7.060   6.078 -0.1779 -0.0468  0.0038
12161SOL     OW37052   5.482   2.768   2.867  0.2253 -0.2195  0.0975
12161SOL    HW137053   5.554   2.790   2.927  0.7309  2.2074 -1.2903
12161SOL    HW237054   5.522   2.714   2.800 -0.1121 -2.0117  1.2633
12162SOL     OW37055   2.821   6.897   5.612 -0.1225 -0.2542  0.0217
12162SOL    HW137056   2.834   6.838   5.686  2.2149 -0.9719 -0.8471
12162SOL    HW237057   2.772   6.845   5.548  0.0815 -0.5182  0.0794
12163SOL     OW37058   6.377   0.720   6.324 -0.1321  0.4263  0.6521
12163SOL    HW137059   6.382   0.647   6.262 -0.4656  0.0125  1.1013
12163SOL    HW237060   6.454   0.773   6.305 -0.2325  0.3080 -0.1179
12164SOL     OW37061   0.075   1.614   4.077 -0.4472 -0.2845  0.0234
12164SOL    HW137062   0.016   1.646   4.146 -0.3406  1.0799 -0.4956
12164SOL    HW237063   0.110   1.693   4.036  1.5400 -1.0480  0.1247
12165SOL     OW37064   5.169   1.379   3.140 -0.2152 -0.3969  0.2488
12165SOL    HW137065   5.137   1.453   3.192  0.0572 -0.5644  0.6617
12165SOL    HW237066   5.091   1.325   3.125 -0.3812 -0.1194  0.0964
12166SOL     OW37067   1.826   1.088   0.349 -0.5301  0.3263 -0.1099
12166SOL    HW137068   1.867   1.162   0.304  1.3052  0.3619  1.5143
12166SOL    HW237069   1.898   1.045   0.395 -2.0223 -0.7971  1.2699
12167SOL     OW37070   7.038   1.955   1.220  0.4547 -0.2467  0.5822
12167SOL    HW137071   7.012   1.954   1.312  0.0225 -0.8427  0.4553
12167SOL    HW237072   7.127   1.990   1.221  0.5939 -0.6089  1.2566
12168SOL     OW37073   4.245   0.465   3.046 -0.2755  0.0581 -0.1160
12168SOL    HW137074   4.157   0.435   3.068  0.2066 -0.7035  0.8685
12168SOL    HW237075   4.303   0.394   3.075  0.8799  1.6887  1.8338
12169SOL     OW37076   3.764   2.250   5.709 -0.0962  0.5207 -0.2662
12169SOL    HW137077   3.728   2.330   5.671 -0.8199  0.5331  0.4385
12169SOL    HW237078   3.804   2.204   5.635 -0.4760  1.0933 -0.8309
12170SOL     OW37079   4.957   0.950   0.702 -0.3806  0.1573 -0.1026
12170SOL    HW137080   4.961   0.889   0.628 -0.0413  0.0604 -0.0065
12170SOL    HW237081   4.872   0.934   0.742 -1.2708  1.3401 -1.4286
12171SOL     OW37082   1.530   4.375   1.559  0.2759  0.2106  0.3868
12171SOL    HW137083   1.586   4.299   1.543  0.5489  0.2862  0.9389
12171SOL    HW237084   1.460   4.369   1.494 -0.9976 -1.7746  1.8309
12172SOL     OW37085   0.542   6.796   0.578 -0.8353 -0.5533  0.4350
12172SOL    HW137086   0.460   6.836   0.550 -1.4497 -0.5003  2.1743
12172SOL    HW237087   0.515   6.732   0.645  0.5493 -0.3127  1.2621
12173SOL     OW37088   5.043   4.730   1.574  0.0333 -0.4544 -0.1784
12173SOL    HW137089   5.041   4.825   1.565  0.5124 -0.3431  0.7703
12173SOL    HW237090   5.079   4.715   1.661 -1.0739 -1.4907  0.1277
12174SOL     OW37091   0.607   0.037   6.123 -0.7123 -0.3960  0.7312
12174SOL    HW137092   0.637  -0.052   6.142 -1.3797 -0.8592 -0.3408
12174SOL    HW237093   0.688   0.089   6.116 -0.2813 -1.1179  0.3264
12175SOL     OW37094   6.826   6.177   5.717 -0.5967 -0.0009  0.2798
12175SOL    HW137095   6.763   6.244   5.690  0.2490 -0.1587 -2.3584
12175SOL    HW237096   6.781   6.094   5.701 -0.3100 -0.0884 -0.1024
12176SOL     OW37097   5.546   3.495   4.771 -0.2036  0.4852 -0.5117
12176SOL    HW137098   5.639   3.501   4.797 -0.2314 -2.0106  0.3891
12176SOL    HW237099   5.501   3.552   4.834  0.2560 -1.9566  2.2381
12177SOL     OW37100   3.404   4.578   3.322 -0.0941 -0.2561  0.0221
12177SOL    HW137101   3.322   4.627   3.315  0.7575  1.3421  0.5988
12177SOL    HW237102   3.387   4.512   3.389 -0.3977  1.2368  1.4867
12178SOL     OW37103   6.762   0.865   2.907  0.2990 -0.5779 -0.0832
12178SOL    HW137104   6.674   0.866   2.870  0.1780 -0.1470  0.2086
12178SOL    HW237105   6.764   0.789   2.965 -0.0765 -0.2454  0.3714
12179SOL     OW37106   5.037   3.941   3.506  0.0118  0.3560 -0.2275
12179SOL    HW137107   4.950   3.963   3.474 -0.2097 -0.4791 -0.2047
12179SOL    HW237108   5.023   3.876   3.574  0.6251  0.5521  0.0948
12180SOL     OW37109   7.035   6.888   6.737 -0.1853  0.3412 -0.9069
12180SOL    HW137110   7.109   6.905   6.679  0.1062  0.0999 -0.6073
12180SOL    HW237111   6.978   6.828   6.688 -1.1321  1.9780 -1.9086
12181SOL     OW37112   4.833   2.921   5.346 -0.3349 -0.8749 -0.7509
12181SOL    HW137113   4.799   2.840   5.384 -0.8579  0.3443  1.5556
12181SOL    HW237114   4.928   2.914   5.357 -0.4331 -0.8590  0.1640
12182SOL     OW37115   5.187   1.449   6.324 -0.1244 -0.4302 -0.2215
12182SOL    HW137116   5.249   1.481   6.259  1.0022 -1.1599  0.4510
12182SOL    HW237117   5.158   1.365   6.290 -0.0368 -0.5112 -0.0968
12183SOL     OW37118   2.421   6.347   3.026  0.4009  0.1405  0.0017
12183SOL    HW137119   2.467   6.270   3.058 -0.8051 -1.1497 -1.2269
12183SOL    HW237120   2.344   6.355   3.082 -0.7588 -1.0589 -1.3106
12184SOL     OW37121   5.581   0.884   2.521 -0.1368 -0.9126  0.3799
12184SOL    HW137122   5.631   0.916   2.446 -0.6989  1.8642  1.0710
12184SOL    HW237123   5.624   0.922   2.597 -0.5661 -2.3117  1.3680
12185SOL     OW37124   0.443   6.539   2.383 -0.0977 -0.3317  0.1119
12185SOL    HW137125   0.368   6.504   2.336 -0.0510 -0.8363  0.4055
12185SOL    HW237126   0.413   6.548   2.473  0.3351 -1.0182  0.3389
12186SOL     OW37127   3.364   6.816   5.445 -0.0599 -0.1822  0.0120
12186SOL    HW137128   3.358   6.721   5.440 -1.4605 -0.1399  0.5950
12186SOL    HW237129   3.411   6.833   5.527 -0.5522 -0.3547  0.3295
12187SOL     OW37130   4.953   7.236   4.424 -0.0895  0.2684 -0.0564
12187SOL    HW137131   4.942   7.306   4.488 -0.6333 -0.8824  1.1535
12187SOL    HW237132   4.991   7.163   4.474  0.8333 -0.1914 -1.3665
12188SOL     OW37133   0.521   2.226   7.422 -0.5937 -0.1698  0.2239
12188SOL    HW137134   0.591   2.171   7.385 -1.0155  0.0911 -1.0298
12188SOL    HW237135   0.454   2.228   7.354 -1.5953  0.0256  1.1948
12189SOL     OW37136   1.724   7.364   2.317 -0.1248 -0.1971  0.6824
12189SOL    HW137137   1.700   7.423   2.387 -0.2376 -1.1673  1.4846
12189SOL    HW237138   1.771   7.292   2.360  0.5627 -0.3926 -0.3360
12190SOL     OW37139   0.247   3.259   2.890  0.7136 -0.1974  0.4580
12190SOL    HW137140   0.156   3.264   2.863  0.7985  2.5033  0.4216
12190SOL    HW237141   0.251   3.307   2.973  2.0396 -0.5667  0.6353
12191SOL     OW37142   4.570   2.407   4.709 -0.1022  0.6892 -0.3152
12191SOL    HW137143   4.475   2.403   4.706 -0.0354 -0.6148 -2.2348
12191SOL    HW237144   4.599   2.317   4.699  1.3478  1.0895 -0.0050
12192SOL     OW37145   3.393   7.278   2.056 -0.5866  0.2416 -0.0733
12192SOL    HW137146   3.473   7.304   2.101 -0.4945  0.4551 -0.3541
12192SOL    HW237147   3.423   7.229   1.980 -0.6979  0.6930 -0.4197
12193SOL     OW37148   4.145   4.557   4.598  0.5631  0.1169  0.0634
12193SOL    HW137149   4.163   4.648   4.575  3.2972 -0.5086 -0.5291
12193SOL    HW237150   4.132   4.513   4.514 -2.9538  0.2368  0.3780
12194SOL     OW37151   5.949   1.868   5.639 -0.1279 -0.5793 -0.2796
12194SOL    HW137152   5.942   1.951   5.592  2.3558 -1.5531 -2.6412
12194SOL    HW237153   6.009   1.886   5.711 -2.5320  0.4786  1.5975
12195SOL     OW37154   2.644   4.921   2.655  0.1188  0.9582 -0.2958
12195SOL    HW137155   2.646   5.015   2.668  0.8579  0.6003  2.9248
12195SOL    HW237156   2.558   4.894   2.689  0.4527  0.3370  0.0701
12196SOL     OW37157   3.817   5.917   6.873 -0.7296  0.0765  0.3858
12196SOL    HW137158   3.897   5.954   6.836 -0.6766 -0.1038  0.3186
12196SOL    HW237159   3.836   5.907   6.966 -1.0837  1.1187  0.5803
12197SOL     OW37160   5.625   5.973   0.044  0.7754  0.0057  0.9292
12197SOL    HW137161   5.656   5.961  -0.046 -2.3511 -0.8805 -0.1298
12197SOL    HW237162   5.669   5.904   0.094 -0.9933 -2.6369 -0.9396
12198SOL     OW37163   4.739   0.500   4.417  0.0858  0.1881 -0.4198
12198SOL    HW137164   4.829   0.494   4.386 -0.6187 -0.9844 -2.4172
12198SOL    HW237165   4.691   0.435   4.365 -1.5490 -0.7049  1.9972
12199SOL     OW37166   3.361   2.217   5.279  0.2162  0.2460 -0.4008
12199SOL    HW137167   3.441   2.207   5.228  0.9911 -1.1994  1.0054
12199SOL    HW237168   3.298   2.257   5.218  1.5938  0.1760 -1.9279
12200SOL     OW37169   6.373   2.123   0.193  0.1289  0.2922 -0.1021
12200SOL    HW137170   6.389   2.068   0.270  0.0324 -0.4010 -0.5693
12200SOL    HW237171   6.395   2.067   0.119 -2.1967  0.0688 -0.6928
12201SOL     OW37172   7.125   5.165   3.873  0.0824  0.1867 -0.5519
12201SOL    HW137173   7.156   5.255   3.867  0.5090  0.1623  0.9766
12201SOL    HW237174   7.030   5.172   3.871  0.0710  0.8224  0.9327
12202SOL     OW37175   7.106   7.303   2.195 -0.5619 -0.5537 -0.6501
12202SOL    HW137176   7.157   7.238   2.146  0.9060 -0.5727  0.8374
12202SOL    HW237177   7.123   7.282   2.287  0.9594  2.6948 -0.0896
12203SOL     OW37178   0.999   4.974   2.026 -0.0117  0.1946 -0.0202
12203SOL    HW137179   0.952   5.032   1.965  2.2511  2.2754  0.0588
12203SOL    HW237180   1.061   4.927   1.970  1.0279  0.9901  0.4318
12204SOL     OW37181   7.196   7.005   5.688  0.2848 -0.5463 -0.0721
12204SOL    HW137182   7.224   6.934   5.746 -0.5170 -0.9051 -0.1167
12204SOL    HW237183   7.270   7.066   5.688  0.9791 -1.3653 -0.0164
12205SOL     OW37184   2.300   0.015   4.331  0.6054  0.0639  0.6544
12205SOL    HW137185   2.305   0.007   4.426  2.0394  1.5291  0.7390
12205SOL    HW237186   2.273   0.106   4.315  1.7632  0.2691 -0.3292
12206SOL     OW37187   5.596   3.889   1.226 -0.0934  0.3857  0.0411
12206SOL    HW137188   5.654   3.825   1.184  0.4425 -1.7323  3.5450
12206SOL    HW237189   5.510   3.848   1.222  0.0619 -0.1329  1.3277
12207SOL     OW37190   4.145   3.131   3.084 -0.2378  0.5781  0.2634
12207SOL    HW137191   4.181   3.043   3.088  0.5812  0.8866  0.0732
12207SOL    HW237192   4.124   3.154   3.174  1.6830  1.0162  0.6511
12208SOL     OW37193   5.312   3.727   5.895  0.2152  0.2228 -0.0884
12208SOL    HW137194   5.383   3.791   5.899 -0.4186  1.0239 -1.0301
12208SOL    HW237195   5.355   3.643   5.879  0.9070  0.8349 -1.6096
12209SOL     OW37196   7.131   3.577   2.792  0.1402 -0.8287 -0.3150
12209SOL    HW137197   7.214   3.601   2.751  0.5191  0.3116  1.0400
12209SOL    HW237198   7.156   3.541   2.877 -0.6978 -1.8596 -0.4856
12210SOL     OW37199   7.102   4.947   0.796 -0.3549 -0.2217  0.1221
12210SOL    HW137200   7.187   4.991   0.803 -1.2455  1.6119 -0.1576
12210SOL    HW237201   7.041   5.015   0.768 -1.9386 -1.4981  0.2971
12211SOL     OW37202   6.029   1.474   2.446  0.4096  0.7376 -0.0316
12211SOL    HW137203   6.013   1.560   2.406 -1.3896  1.5703  2.2764
12211SOL    HW237204   6.091   1.490   2.516  1.5370 -0.2357 -0.7679
12212SOL     OW37205   4.979   1.496   6.944 -0.6909  0.1671 -0.5042
12212SOL    HW137206   4.964   1.474   7.036  0.2408 -1.7365 -0.7482
12212SOL    HW237207   4.958   1.415   6.896 -1.7260  1.2836 -2.0434
12213SOL     OW37208   5.508   0.479   0.495  0.0860 -0.6171  0.5060
12213SOL    HW137209   5.576   0.436   0.443 -1.0473 -0.5327 -1.1460
12213SOL    HW237210   5.555   0.525   0.564  1.6993 -0.4568 -0.6488
12214SOL     OW37211   1.801   1.429   1.764  0.1203 -0.8668  0.2618
12214SOL    HW137212   1.756   1.497   1.814 -0.8096 -1.6197  0.4571
12214SOL    HW237213   1.894   1.451   1.773 -0.1171 -0.1633  1.1039
12215SOL     OW37214   1.432   0.308   3.936 -0.0793  0.0913 -0.7527
12215SOL    HW137215   1.424   0.403   3.925 -0.7209  0.1183 -0.1079
12215SOL    HW237216   1.403   0.291   4.026  1.9774 -0.4942 -0.1424
12216SOL     OW37217   2.811   0.131   1.885 -0.4010 -0.2289  0.0452
12216SOL    HW137218   2.844   0.048   1.850 -1.3104 -1.3421  1.6970
12216SOL    HW237219   2.842   0.197   1.822  1.8343 -1.5857 -0.4186
12217SOL     OW37220   2.989   3.146   1.476  0.3771  0.6450 -0.3348
12217SOL    HW137221   2.900   3.163   1.445  0.0354 -0.4685 -0.0018
12217SOL    HW237222   3.002   3.209   1.547  0.2947  1.5899 -1.1325
12218SOL     OW37223   3.858   2.286   3.461 -0.7380 -0.1908  0.3282
12218SOL    HW137224   3.779   2.340   3.464 -1.3652 -1.1007  0.9586
12218SOL    HW237225   3.825   2.196   3.467  0.3201 -0.6103  0.0551
12219SOL     OW37226   0.280   6.668   5.327 -0.1408 -0.6581  0.8029
12219SOL    HW137227   0.288   6.611   5.251 -1.6763 -0.5986  0.5592
12219SOL    HW237228   0.322   6.619   5.398  1.0619 -0.8326  0.0026
12220SOL     OW37229   6.894   3.904   3.474 -0.1807 -0.0766  0.3239
12220SOL    HW137230   6.907   3.974   3.537  0.6435 -0.6076  0.7686
12220SOL    HW237231   6.892   3.824   3.527  2.0685 -0.7047 -0.3814
12221SOL     OW37232   1.801   0.835   5.284  0.3140  0.0221 -0.1382
12221SOL    HW137233   1.832   0.925   5.273  0.7464  0.0329  1.0619
12221SOL    HW237234   1.839   0.806   5.367  0.1984 -1.2821 -0.5216
12222SOL     OW37235   6.170   5.696   5.484 -0.4624 -0.1361 -0.1459
12222SOL    HW137236   6.084   5.724   5.515 -1.0622 -0.8522 -1.0849
12222SOL    HW237237   6.218   5.673   5.563 -0.5622  1.7655  0.5198
12223SOL     OW37238   2.767   5.604   5.732 -0.3079  0.0787  0.4361
12223SOL    HW137239   2.768   5.661   5.809  2.8122 -0.1486  0.7072
12223SOL    HW237240   2.765   5.665   5.658  1.6256  0.6030  0.7403
12224SOL     OW37241   0.792   7.299   2.302  0.0192  0.2953 -0.2717
12224SOL    HW137242   0.878   7.304   2.344  1.0256 -0.0805 -2.1791
12224SOL    HW237243   0.754   7.217   2.334  1.6989 -1.1072 -1.6801
12225SOL     OW37244   6.997   3.878   1.412  0.5673  0.2277  0.2240
12225SOL    HW137245   7.044   3.910   1.335 -0.6803  0.5711 -0.4137
12225SOL    HW237246   6.937   3.811   1.379  0.5732 -0.1902  1.0182
12226SOL     OW37247   1.026   3.346   0.716 -0.0660 -0.2388 -0.0180
12226SOL    HW137248   1.093   3.286   0.683 -0.4257  1.0829 -3.6495
12226SOL    HW237249   1.072   3.429   0.728 -0.3717 -0.2084  0.9905
12227SOL     OW37250   6.275   1.271   6.477 -0.3380 -0.6451  0.7323
12227SOL    HW137251   6.330   1.277   6.399 -0.1841  0.4939  0.9105
12227SOL    HW237252   6.222   1.193   6.463 -0.0802 -0.6394 -0.3590
12228SOL     OW37253   5.167   1.004   6.119  0.1060  0.3663  0.8684
12228SOL    HW137254   5.223   0.927   6.129  1.8098  1.6755  2.0935
12228SOL    HW237255   5.161   1.018   6.025  1.6812  0.0393  0.6970
12229SOL     OW37256   2.715   1.390   6.856 -0.0700  0.0018 -0.0949
12229SOL    HW137257   2.631   1.385   6.811 -0.1946  1.1226  0.0018
12229SOL    HW237258   2.747   1.478   6.839  0.5629 -0.0350  0.7970
12230SOL     OW37259   3.194   5.250   0.604 -0.3283  0.1613 -0.5635
12230SOL    HW137260   3.247   5.291   0.672  0.9116 -0.7158 -0.9627
12230SOL    HW237261   3.202   5.156   0.621 -0.3997 -0.0488 -1.6072
12231SOL     OW37262   1.095   2.919   4.740 -0.1678 -0.0346  0.0490
12231SOL    HW137263   1.181   2.930   4.780  0.6886  0.0711 -1.7516
12231SOL    HW237264   1.098   2.971   4.660 -1.2190 -1.5938 -1.0678
12232SOL     OW37265   2.658   4.029   2.916  0.0295 -0.0302 -0.3142
12232SOL    HW137266   2.629   4.073   2.996 -0.6683 -0.7924 -0.1417
12232SOL    HW237267   2.724   4.088   2.879  1.1008 -0.1134  1.3364
12233SOL     OW37268   2.692   2.558   1.728  0.1871  0.0684  0.0191
12233SOL    HW137269   2.641   2.567   1.648  1.0508 -1.0161 -0.6716
12233SOL    HW237270   2.671   2.637   1.778 -0.9401  0.4002 -0.9344
12234SOL     OW37271   3.535   5.904   5.311  0.0151 -0.4307  0.5115
12234SOL    HW137272   3.450   5.924   5.351 -0.0502 -0.6464  0.4869
12234SOL    HW237273   3.523   5.817   5.273 -0.5540  0.5558 -1.7213
12235SOL     OW37274   7.303   0.292   1.262 -0.3212 -0.1398 -0.2395
12235SOL    HW137275   7.346   0.375   1.283  0.1588 -0.5496  0.4074
12235SOL    HW237276   7.365   0.246   1.206 -0.4703 -0.1887 -0.3660
12236SOL     OW37277   3.587   3.882   3.017  0.3959 -0.4163  0.0735
12236SOL    HW137278   3.555   3.823   2.949 -0.0563 -0.2533  0.1461
12236SOL    HW237279   3.609   3.963   2.970 -0.0012 -0.2728  0.1341
12237SOL     OW37280   6.812   5.910   0.138 -0.6318  0.7488 -0.0478
12237SOL    HW137281   6.725   5.948   0.151  0.0068  1.8697  1.1899
12237SOL    HW237282   6.865   5.983   0.107  0.2183  0.4487  0.6790
12238SOL     OW37283   1.299   3.858   6.001 -0.1593 -0.0306 -0.2261
12238SOL    HW137284   1.223   3.817   6.040 -0.2990  0.0372 -0.4243
12238SOL    HW237285   1.280   3.860   5.907  0.7948 -1.5430 -0.4954
12239SOL     OW37286   4.617   5.970   3.776  0.2401  0.4473  0.4652
12239SOL    HW137287   4.657   5.900   3.724 -1.0241  0.7719 -1.0094
12239SOL    HW237288   4.564   5.923   3.841 -0.6899 -0.0142 -0.5811
12240SOL     OW37289   2.855   4.157   6.794  0.6953  0.6484 -0.3541
12240SOL    HW137290   2.814   4.227   6.844  0.3614 -0.6457  1.2960
12240SOL    HW237291   2.935   4.196   6.759  0.6086  1.8098  0.6639
12241SOL     OW37292   0.817   4.909   1.738 -0.3253 -0.3636  0.3862
12241SOL    HW137293   0.838   4.996   1.774 -1.2888  0.9849 -2.0544
12241SOL    HW237294   0.784   4.860   1.813 -1.1601  1.8804  1.6100
12242SOL     OW37295   5.891   1.764   4.414 -0.7678  0.1053  0.0645
12242SOL    HW137296   5.972   1.792   4.456 -0.8775 -0.7751  0.9090
12242SOL    HW237297   5.838   1.843   4.408  0.1517  0.6936 -0.5096
12243SOL     OW37298   3.964   3.116   2.393 -0.6578  0.2118  0.4096
12243SOL    HW137299   4.033   3.127   2.327  0.8748  0.0049  1.9221
12243SOL    HW237300   3.898   3.062   2.349  0.7536 -0.7174 -0.6843
12244SOL     OW37301   4.953   5.298   1.254  0.1258  0.1304 -0.0916
12244SOL    HW137302   4.882   5.354   1.285 -0.5594 -0.5755 -0.3488
12244SOL    HW237303   4.910   5.235   1.197  0.6696 -1.4151  1.1278
12245SOL     OW37304   5.040   4.635   1.304 -0.0317 -0.3831  0.5036
12245SOL    HW137305   5.022   4.653   1.396  0.8192 -0.4257  0.6879
12245SOL    HW237306   5.053   4.540   1.300 -1.7852 -0.6561  0.0145
12246SOL     OW37307   4.655   7.332   5.504 -0.5070 -0.4591  0.2262
12246SOL    HW137308   4.639   7.238   5.496 -3.2638 -0.1334  0.8934
12246SOL    HW237309   4.607   7.358   5.583  0.1788  1.5342  0.0480
12247SOL     OW37310   7.394   1.699   7.192  0.2380  0.3673  0.1362
12247SOL    HW137311   7.373   1.751   7.270  2.6137  0.7253  0.6409
12247SOL    HW237312   7.381   1.759   7.119 -1.0106  0.3510  0.3273
12248SOL     OW37313   3.987   7.124   0.962  0.1093  0.1283  0.7595
12248SOL    HW137314   3.983   7.161   1.050 -1.0238  0.2347  0.6719
12248SOL    HW237315   3.928   7.049   0.964  1.3593 -0.9071  0.5518
12249SOL     OW37316   0.764   4.193   0.849  0.0838 -0.2187 -0.1520
12249SOL    HW137317   0.857   4.177   0.867  0.8764  1.5403 -2.2535
12249SOL    HW237318   0.736   4.251   0.920  0.4975 -0.9995  0.6649
12250SOL     OW37319   5.562   6.344   0.201  0.2894 -0.0673 -0.2081
12250SOL    HW137320   5.570   6.439   0.196  2.4956 -0.2704 -1.9692
12250SOL    HW237321   5.618   6.318   0.275 -0.0803 -0.0462  0.0855
12251SOL     OW37322   2.305   0.617   4.543  0.0293  0.0842 -0.2471
12251SOL    HW137323   2.221   0.642   4.503  0.6412  2.2056 -0.3392
12251SOL    HW237324   2.354   0.699   4.547  1.9351 -1.0347  0.2330
12252SOL     OW37325   4.562   6.670   3.844 -0.9783 -0.1690  0.0129
12252SOL    HW137326   4.492   6.734   3.836 -0.4498  0.3794 -0.2978
12252SOL    HW237327   4.520   6.586   3.824 -1.5637  0.1402 -0.0753
12253SOL     OW37328   1.956   6.536   0.243 -0.2917  0.0644 -0.0423
12253SOL    HW137329   1.866   6.544   0.209 -0.0163  2.0771 -0.3828
12253SOL    HW237330   1.996   6.621   0.227  0.6608  0.3486  3.1091
12254SOL     OW37331   5.517   2.630   1.059 -0.6900  0.5507 -0.2942
12254SOL    HW137332   5.545   2.550   1.103  0.8829  1.2912  0.1518
12254SOL    HW237333   5.462   2.675   1.124 -0.5452  0.4009 -0.0646
12255SOL     OW37334   1.084   3.353   3.986  0.0378 -0.9406 -0.0724
12255SOL    HW137335   1.141   3.305   4.047  0.6843  0.3511  0.3662
12255SOL    HW237336   1.102   3.445   4.003 -0.7546 -0.5284 -1.3051
12256SOL     OW37337   7.441   1.806   1.469 -0.4093  0.3556  0.0121
12256SOL    HW137338   7.356   1.844   1.490 -0.5654 -0.3559  0.7360
12256SOL    HW237339   7.434   1.779   1.378 -0.0626  2.6078 -0.7407
12257SOL     OW37340   2.265   5.362   0.364 -0.0107  0.2798 -0.5280
12257SOL    HW137341   2.336   5.394   0.308  0.1646  0.4759 -0.1930
12257SOL    HW237342   2.190   5.355   0.305 -0.2894  2.1117 -0.4552
12258SOL     OW37343   3.560   4.599   1.656 -0.2430 -0.3904  0.4573
12258SOL    HW137344   3.504   4.610   1.579  0.7478 -0.2927 -0.2719
12258SOL    HW237345   3.557   4.505   1.674 -2.5080 -0.1016  1.9006
12259SOL     OW37346   3.426   1.093   7.034 -0.4236  0.2044  0.2087
12259SOL    HW137347   3.462   1.055   6.954  1.3274  1.7237  0.2165
12259SOL    HW237348   3.481   1.169   7.052 -2.5358  1.5814  1.2916
12260SOL     OW37349   6.003   3.182   2.225  0.3231 -0.1530  0.1414
12260SOL    HW137350   5.969   3.272   2.229 -0.5728 -0.4877  0.2235
12260SOL    HW237351   6.096   3.193   2.205  0.0928  0.7800 -0.5109
12261SOL     OW37352   6.809   6.330   5.450  0.5118 -0.1591 -0.6597
12261SOL    HW137353   6.881   6.303   5.507  0.3330 -0.1273 -0.4147
12261SOL    HW237354   6.766   6.401   5.498 -0.9257 -1.5169  0.1591
12262SOL     OW37355   1.694   1.910   4.102  0.0889 -0.4037 -0.0029
12262SOL    HW137356   1.624   1.937   4.044 -0.0742 -0.7961  0.0140
12262SOL    HW237357   1.747   1.989   4.113 -1.0836  0.2849  1.0471
12263SOL     OW37358   1.265   2.628   3.037  0.4505 -0.3742 -0.1502
12263SOL    HW137359   1.224   2.652   3.120 -0.0919 -1.6362 -0.0356
12263SOL    HW237360   1.350   2.672   3.040 -0.3133  1.1752  0.2023
12264SOL     OW37361   4.144   1.360   5.732 -0.0214 -0.1711 -0.4717
12264SOL    HW137362   4.143   1.427   5.663 -1.5189 -0.6567 -0.9612
12264SOL    HW237363   4.052   1.334   5.742  0.0826  0.1802  2.0274
12265SOL     OW37364   4.870   3.035   1.441  0.0391 -0.0141  0.2015
12265SOL    HW137365   4.853   2.992   1.525 -2.6205 -0.0359 -0.2699
12265SOL    HW237366   4.824   3.119   1.447  0.8117  0.5117 -0.8161
12266SOL     OW37367   4.901   2.515   3.812  0.2942 -0.1499 -0.0914
12266SOL    HW137368   4.992   2.486   3.804 -0.1653 -1.6936 -0.0556
12266SOL    HW237369   4.881   2.503   3.904 -0.3479 -1.1051 -0.3493
12267SOL     OW37370   1.008   6.980   0.826 -0.0668 -0.2097  0.4352
12267SOL    HW137371   1.085   6.924   0.812 -1.4326 -2.3631  1.0623
12267SOL    HW237372   0.963   6.981   0.742 -0.3864 -0.6299  0.5963
12268SOL     OW37373   6.097   2.829   5.054  0.6789 -0.1450  0.1801
12268SOL    HW137374   6.008   2.826   5.090  0.5725  0.0744 -0.0658
12268SOL    HW237375   6.118   2.923   5.050  1.0202 -0.2065  0.4805
12269SOL     OW37376   6.644   7.405   0.615  0.2928  0.6769  0.3610
12269SOL    HW137377   6.724   7.415   0.665  0.8841 -1.8015  0.0648
12269SOL    HW237378   6.674   7.381   0.527 -0.5533 -4.2496  1.1298
12270SOL     OW37379   4.945   3.143   2.388 -0.4803 -0.3546 -0.2231
12270SOL    HW137380   4.909   3.074   2.442 -0.2887 -0.7062 -0.5351
12270SOL    HW237381   5.040   3.139   2.404  0.0472 -2.6659 -2.9882
12271SOL     OW37382   2.337   3.387   2.481 -0.0617  0.2797  0.2044
12271SOL    HW137383   2.425   3.392   2.443  0.1936  1.0170  0.8645
12271SOL    HW237384   2.318   3.476   2.510 -1.1697  0.1941 -0.2338
12272SOL     OW37385   0.667   0.094   6.824 -0.2582 -0.2955 -0.6188
12272SOL    HW137386   0.624   0.156   6.765  0.2248  0.6019 -0.0556
12272SOL    HW237387   0.752   0.077   6.783 -0.5927 -1.0106 -1.0385
12273SOL     OW37388   5.668   2.897   4.196 -0.8749 -0.4595  0.4922
12273SOL    HW137389   5.719   2.914   4.117  0.7781  2.0432  1.9636
12273SOL    HW237390   5.596   2.959   4.193 -1.5214 -1.1949  0.4036
12274SOL     OW37391   6.266   2.792   5.571 -0.2427  0.2850  0.3449
12274SOL    HW137392   6.173   2.797   5.594 -0.4178 -1.5095  0.2300
12274SOL    HW237393   6.274   2.707   5.527  1.5711  0.1243  0.9359
12275SOL     OW37394   2.884   5.636   1.761  0.8311 -1.0634 -0.1041
12275SOL    HW137395   2.806   5.664   1.808  1.0976  0.1402 -0.3344
12275SOL    HW237396   2.949   5.619   1.829  0.7362 -0.8619  0.0360
12276SOL     OW37397   3.763   3.854   3.511  0.1559 -0.0962 -0.0284
12276SOL    HW137398   3.821   3.810   3.574 -0.6949  1.3342  1.8459
12276SOL    HW237399   3.809   3.845   3.427  1.6376 -1.5449  0.8574
12277SOL     OW37400   0.714   6.622   2.327 -0.2167  0.4593 -0.2169
12277SOL    HW137401   0.725   6.620   2.232  1.1132  0.8445 -0.0858
12277SOL    HW237402   0.627   6.584   2.342 -1.5452  2.6187 -1.7520
12278SOL     OW37403   6.988   5.943   5.848 -0.3360 -0.5370  0.4734
12278SOL    HW137404   7.039   5.875   5.892 -0.5262 -1.0780 -0.1204
12278SOL    HW237405   6.931   5.979   5.916 -0.2981 -1.0395  0.7742
12279SOL     OW37406   0.344   6.452   5.166 -0.4074 -0.1506  0.3514
12279SOL    HW137407   0.349   6.380   5.229  0.7648  0.4365  0.9593
12279SOL    HW237408   0.430   6.453   5.124 -0.1884  1.2787  0.7882
12280SOL     OW37409   5.503   7.044   0.997  0.0003 -0.0537 -0.5615
12280SOL    HW137410   5.435   7.015   0.935 -2.2950 -0.4063  1.9149
12280SOL    HW237411   5.465   7.122   1.038  2.3491  1.3916 -0.9602
12281SOL     OW37412   5.931   1.460   3.390  0.1580  0.3456 -0.4810
12281SOL    HW137413   5.892   1.413   3.463 -0.9890 -0.9141 -1.8465
12281SOL    HW237414   5.860   1.469   3.326  1.5233 -0.1555 -2.1613
12282SOL     OW37415   1.476   3.005   1.987 -0.2027  0.4221 -0.1550
12282SOL    HW137416   1.518   2.973   2.067 -0.2041  0.1505 -0.2612
12282SOL    HW237417   1.485   3.100   1.992  0.1859  0.3841 -0.0410
12283SOL     OW37418   5.200   1.028   3.964  0.4152  0.0356  0.4384
12283SOL    HW137419   5.149   1.006   4.041  0.7090 -0.7690  0.4061
12283SOL    HW237420   5.212   1.123   3.970 -1.0450  0.2346  0.4552
12284SOL     OW37421   7.144   0.308   6.449 -0.4194  0.2654  0.3636
12284SOL    HW137422   7.227   0.331   6.492 -0.5123  0.0838  0.6362
12284SOL    HW237423   7.168   0.240   6.386 -0.2101  0.8157 -0.1760
12285SOL     OW37424   6.714   0.606   4.888  0.2125  0.1413  0.0235
12285SOL    HW137425   6.644   0.654   4.932 -0.3598 -0.6403 -0.0150
12285SOL    HW237426   6.783   0.671   4.875 -0.4868  0.9135  0.0981
12286SOL     OW37427   2.500   6.054   3.527  0.1084 -0.0546 -0.0767
12286SOL    HW137428   2.479   6.034   3.436  0.8927  1.3025 -0.5778
12286SOL    HW237429   2.593   6.077   3.526  0.2244 -0.4063  1.1393
12287SOL     OW37430   2.801   3.289   4.745 -0.1576 -0.2435 -0.2247
12287SOL    HW137431   2.771   3.199   4.729 -1.0431  0.3973 -2.5094
12287SOL    HW237432   2.822   3.323   4.659 -2.1783  2.5386  0.2599
12288SOL     OW37433   3.799   6.393   3.949 -0.4057  0.7000  0.1807
12288SOL    HW137434   3.765   6.479   3.927 -0.9554  0.7918  1.2781
12288SOL    HW237435   3.721   6.337   3.956 -0.1176  0.2893  0.1627
12289SOL     OW37436   1.451   5.655   5.690  0.1536  0.3917 -0.1995
12289SOL    HW137437   1.473   5.748   5.686  0.7500  0.2293 -0.7867
12289SOL    HW237438   1.486   5.618   5.609 -3.1663  0.2998 -1.7316
12290SOL     OW37439   1.152   4.243   6.858 -0.3558 -0.1905  0.0696
12290SOL    HW137440   1.199   4.224   6.777 -0.5186 -1.0463  0.1616
12290SOL    HW237441   1.064   4.266   6.829 -0.4233 -0.5282  0.0085
12291SOL     OW37442   4.061   3.873   6.310  0.2720  0.0757  0.3102
12291SOL    HW137443   4.138   3.851   6.258  0.8110  1.1776  0.6180
12291SOL    HW237444   4.032   3.789   6.346 -1.4831 -1.1786 -3.4856
12292SOL     OW37445   3.884   0.885   1.329 -0.3959 -0.0472  0.0670
12292SOL    HW137446   3.856   0.866   1.239  1.6929  1.1660 -0.8982
12292SOL    HW237447   3.813   0.850   1.383 -1.7898 -0.6975 -2.0331
12293SOL     OW37448   2.718   2.634   4.765  0.1856 -0.1398 -0.7972
12293SOL    HW137449   2.774   2.564   4.799  1.7634  1.3609 -0.1472
12293SOL    HW237450   2.649   2.645   4.830  0.9779  0.1056  0.0235
12294SOL     OW37451   3.178   2.123   3.357 -0.0154 -0.1548 -0.1970
12294SOL    HW137452   3.104   2.183   3.355 -0.2108 -0.3754  0.3964
12294SOL    HW237453   3.223   2.142   3.439  0.6137  0.0095 -0.5755
12295SOL     OW37454   6.515   1.166   3.281 -0.2459  0.0155  0.0015
12295SOL    HW137455   6.537   1.259   3.290 -0.7082  0.1334 -0.0631
12295SOL    HW237456   6.428   1.166   3.242 -0.1434 -0.4502 -0.2295
12296SOL     OW37457   0.545   0.228   6.615 -0.0214  0.1536 -0.5666
12296SOL    HW137458   0.614   0.285   6.581 -0.5897  0.8049 -0.6206
12296SOL    HW237459   0.494   0.203   6.538 -0.0702 -0.0361 -0.4741
12297SOL     OW37460   6.579   6.717   5.636  0.0507 -0.0330 -0.2666
12297SOL    HW137461   6.548   6.770   5.709 -0.3372 -2.6774  1.6658
12297SOL    HW237462   6.499   6.690   5.591  0.1776  0.2400 -0.6583
12298SOL     OW37463   2.827   6.789   2.743 -0.0128  0.2293 -0.6406
12298SOL    HW137464   2.795   6.849   2.675 -1.8808  0.8872  0.7376
12298SOL    HW237465   2.767   6.715   2.739  0.9088 -0.5156 -0.8219
12299SOL     OW37466   2.415   5.662   0.905  0.0930 -0.6101  0.2414
12299SOL    HW137467   2.493   5.681   0.853 -0.8018 -0.6813 -1.1736
12299SOL    HW237468   2.396   5.570   0.886 -1.2549 -0.1550 -0.7183
12300SOL     OW37469   1.675   1.578   3.575 -0.4324 -0.3086  0.1785
12300SOL    HW137470   1.686   1.493   3.533 -0.2076 -0.1713 -0.0365
12300SOL    HW237471   1.673   1.641   3.503 -0.2377 -0.0938  0.3620
12301SOL     OW37472   6.747   0.022   1.161  0.7150 -0.2864 -0.6228
12301SOL    HW137473   6.755   0.003   1.067 -1.3037  2.1118 -1.4222
12301SOL    HW237474   6.712  -0.058   1.199  0.1838 -0.8542 -2.2211
12302SOL     OW37475   7.140   5.875   6.533 -0.5588 -0.2564  0.6017
12302SOL    HW137476   7.098   5.821   6.466  0.3075 -0.8593  0.5304
12302SOL    HW237477   7.161   5.813   6.604 -0.7472  0.2318  1.0921
12303SOL     OW37478   1.908   4.571   4.928  0.1066  0.6931 -0.7390
12303SOL    HW137479   1.838   4.615   4.974  0.7390  1.2361 -0.2749
12303SOL    HW237480   1.877   4.481   4.916 -0.8617  1.0547 -1.0002
12304SOL     OW37481   2.378   4.820   1.738 -0.2363  0.0038 -0.7637
12304SOL    HW137482   2.383   4.909   1.773 -0.3165 -0.3935  0.3080
12304SOL    HW237483   2.307   4.779   1.787 -1.5530 -0.0786 -2.6471
12305SOL     OW37484   2.234   3.401   1.605  0.0450 -0.5002  0.3746
12305SOL    HW137485   2.266   3.312   1.592 -0.2921 -0.5433 -0.1729
12305SOL    HW237486   2.280   3.432   1.683  0.1039 -1.1801  0.6120
12306SOL     OW37487   5.145   2.867   7.292 -0.4820 -0.5904 -0.0061
12306SOL    HW137488   5.227   2.883   7.339  0.3674  1.9010 -2.0871
12306SOL    HW237489   5.080   2.919   7.340 -0.1433 -0.0330 -0.1351
12307SOL     OW37490   3.242   5.201   2.772 -0.2612  0.0587  0.4464
12307SOL    HW137491   3.306   5.204   2.701  0.1484  1.1544  0.8357
12307SOL    HW237492   3.162   5.239   2.734  0.4132  2.1464  0.9705
12308SOL     OW37493   3.988   0.428   4.042 -0.8101 -0.2673  0.0211
12308SOL    HW137494   3.899   0.394   4.032 -0.6885 -0.7132  0.4133
12308SOL    HW237495   3.985   0.478   4.123 -0.3248 -1.5859  0.8902
12309SOL     OW37496   4.593   6.758   6.006 -0.0808  0.4088 -0.6843
12309SOL    HW137497   4.529   6.812   6.053 -0.5964 -0.0044 -0.9034
12309SOL    HW237498   4.551   6.673   5.996  1.3277 -0.5432  0.9947
12310SOL     OW37499   3.759   6.093   3.007 -0.2941  0.0284 -0.2651
12310SOL    HW137500   3.850   6.109   3.034  0.1486  1.2895 -2.2367
12310SOL    HW237501   3.745   6.000   3.024  0.7457  0.1790  1.7135
12311SOL     OW37502   3.865   2.684   2.203 -0.3057  0.0502  0.0832
12311SOL    HW137503   3.789   2.631   2.228 -1.0250  1.2900  0.6183
12311SOL    HW237504   3.940   2.626   2.215 -1.2576 -1.7147 -1.9031
12312SOL     OW37505   2.532   3.447   3.529  0.3239  0.2589 -0.8688
12312SOL    HW137506   2.553   3.358   3.557 -2.6212 -0.4669 -0.6944
12312SOL    HW237507   2.551   3.448   3.436  2.7108  0.2728 -0.4436
12313SOL     OW37508   3.102   5.609   5.718  0.2181  0.2922 -0.3606
12313SOL    HW137509   3.013   5.636   5.697  0.0630 -0.6052 -0.8833
12313SOL    HW237510   3.093   5.523   5.758  0.7234  0.9416  1.2134
12314SOL     OW37511   1.068   2.704   3.502  0.4665 -0.5617  0.0509
12314SOL    HW137512   1.153   2.686   3.544  0.5304 -0.5799 -0.0843
12314SOL    HW237513   1.080   2.675   3.412  1.0725  1.5371 -0.5964
12315SOL     OW37514   4.313   6.860   5.022 -0.0950  0.6755 -0.7991
12315SOL    HW137515   4.217   6.864   5.018 -0.0130  1.6438 -2.3357
12315SOL    HW237516   4.337   6.801   4.950  0.4341 -0.8525  0.5490
12316SOL     OW37517   6.873   2.067   6.015  0.4140 -0.1237 -0.0952
12316SOL    HW137518   6.888   2.097   6.105  0.2344  0.9773 -0.4315
12316SOL    HW237519   6.953   2.019   5.993 -0.6751 -3.0686  1.6764
12317SOL     OW37520   5.564   5.573   5.968 -0.0423 -0.2011 -0.7795
12317SOL    HW137521   5.512   5.493   5.974 -1.1182  0.5033 -0.4348
12317SOL    HW237522   5.510   5.640   6.010  1.4471  0.4194  0.2642
12318SOL     OW37523   7.060   5.181   7.254 -0.2219 -0.5660 -0.3100
12318SOL    HW137524   7.147   5.149   7.229  0.6271 -0.2691  2.0125
12318SOL    HW237525   7.061   5.180   7.350 -2.3126  0.7599 -0.2156
12319SOL     OW37526   1.537   0.673   0.272 -0.0874 -0.4277  0.0522
12319SOL    HW137527   1.570   0.745   0.325 -1.3885 -0.9808  1.7418
12319SOL    HW237528   1.461   0.709   0.227 -0.2478 -0.5036  0.2564
12320SOL     OW37529   1.985   2.050   2.177 -0.1577 -0.2494 -0.2782
12320SOL    HW137530   1.913   2.027   2.236  0.4806 -0.9817  0.2325
12320SOL    HW237531   1.961   2.136   2.143 -1.2049 -0.4139 -0.0150
12321SOL     OW37532   1.109   4.226   5.127 -0.3327 -0.1451 -0.3948
12321SOL    HW137533   1.154   4.244   5.209  0.3158 -0.5545 -0.6535
12321SOL    HW237534   1.114   4.131   5.116 -1.5787 -0.2466 -0.2560
12322SOL     OW37535   4.959   6.432   7.255  0.0757  0.0733 -0.0710
12322SOL    HW137536   4.996   6.382   7.328 -1.6131 -1.3496 -0.1210
12322SOL    HW237537   4.890   6.375   7.220 -0.8651  1.8043 -1.1583
12323SOL     OW37538   1.567   0.736   5.336  0.2367 -0.0385  0.6840
12323SOL    HW137539   1.540   0.815   5.384 -0.2213  0.2391 -0.0144
12323SOL    HW237540   1.652   0.759   5.299 -0.2482  0.4211 -0.1697
12324SOL     OW37541   5.031   1.254   6.494  0.2992  0.4574 -0.2763
12324SOL    HW137542   4.941   1.230   6.518  0.2911  1.4246  0.7344
12324SOL    HW237543   5.062   1.180   6.442 -0.4523 -0.7680  0.9345
12325SOL     OW37544   5.279   5.610   4.502  0.1436 -0.2131  0.0752
12325SOL    HW137545   5.218   5.628   4.573 -0.5287 -1.6497 -0.0974
12325SOL    HW237546   5.316   5.695   4.479 -1.2234  0.5752  0.6928
12326SOL     OW37547   4.351   2.555   4.200  0.0351 -0.6355  0.2413
12326SOL    HW137548   4.391   2.630   4.156  0.2716 -0.4756  0.7179
12326SOL    HW237549   4.332   2.586   4.289 -1.3680 -0.6425 -0.0345
12327SOL     OW37550   1.282   1.520   5.603  0.1323  0.5845 -0.1220
12327SOL    HW137551   1.228   1.510   5.524  0.0889  0.6853 -0.1044
12327SOL    HW237552   1.245   1.595   5.649  0.9234  1.2935 -0.6220
12328SOL     OW37553   1.391   2.372   7.408  0.0692  0.0769 -0.3745
12328SOL    HW137554   1.341   2.454   7.403  0.4617  0.3384  0.0075
12328SOL    HW237555   1.477   2.394   7.373 -0.0017 -0.3159 -0.8005
12329SOL     OW37556   6.262   1.168   1.291 -0.3683 -0.5873  0.3483
12329SOL    HW137557   6.174   1.202   1.274  0.0576 -0.0948 -1.0622
12329SOL    HW237558   6.261   1.080   1.253  0.5631  0.4855 -2.4217
12330SOL     OW37559   2.296   0.793   2.291 -0.6271 -0.2759  0.1603
12330SOL    HW137560   2.241   0.720   2.262 -1.3727  0.1732  0.4199
12330SOL    HW237561   2.372   0.790   2.233 -0.3791 -1.5928  0.5171
12331SOL     OW37562   3.733   5.381   0.054 -0.2636 -0.4055 -0.5903
12331SOL    HW137563   3.703   5.355  -0.034 -3.0530  0.1419  0.0795
12331SOL    HW237564   3.720   5.302   0.107  1.0496 -0.6164 -0.5525
12332SOL     OW37565   5.130   6.164   5.199  0.3421 -0.2614  1.0180
12332SOL    HW137566   5.219   6.155   5.235  0.8497  0.9237  0.1397
12332SOL    HW237567   5.144   6.190   5.108 -0.8913  1.1247  1.1917
12333SOL     OW37568   1.761   0.493   3.296  0.1236 -0.3497  0.0299
12333SOL    HW137569   1.820   0.418   3.302 -0.0984 -0.9717 -3.3379
12333SOL    HW237570   1.819   0.567   3.278  0.0924 -1.0127 -3.6037
12334SOL     OW37571   2.060   3.614   4.813  0.2791 -0.3659 -0.2253
12334SOL    HW137572   2.102   3.658   4.887  0.3361 -2.5416  1.1049
12334SOL    HW237573   2.131   3.599   4.751  0.5587  0.0125 -0.0015
12335SOL     OW37574   1.679   1.362   0.815 -0.4272 -0.1284  0.3657
12335SOL    HW137575   1.599   1.375   0.866  0.0531  1.9837  0.7002
12335SOL    HW237576   1.747   1.404   0.867  0.0534  2.3699 -2.0347
12336SOL     OW37577   0.519   5.299   0.925 -0.2997 -0.6431  0.2192
12336SOL    HW137578   0.552   5.209   0.917  0.9771 -0.2068  0.4023
12336SOL    HW237579   0.496   5.308   1.018  0.5496 -0.4622  0.4181
12337SOL     OW37580   1.481   4.620   1.678  0.5302 -0.1494  0.4004
12337SOL    HW137581   1.504   4.535   1.643  1.3014  0.5872 -0.9628
12337SOL    HW237582   1.409   4.650   1.623  0.4923  0.2330  0.6520
12338SOL     OW37583   2.312   6.130   2.836 -0.1083 -0.0488 -0.3168
12338SOL    HW137584   2.322   6.198   2.903 -0.6702  0.1947 -0.4756
12338SOL    HW237585   2.236   6.079   2.864  0.5680 -0.9008  0.0383
12339SOL     OW37586   5.153   3.067   6.494  0.2255  0.4315 -0.5024
12339SOL    HW137587   5.111   3.152   6.511 -0.8253  0.2497 -1.9884
12339SOL    HW237588   5.235   3.071   6.543 -0.2975  1.8691  0.3390
12340SOL     OW37589   3.471   2.780   6.839  0.5143  0.6007  0.2725
12340SOL    HW137590   3.432   2.780   6.752 -1.3536  0.5053  1.0756
12340SOL    HW237591   3.463   2.690   6.870  0.8183  0.7135  0.6977
12341SOL     OW37592   2.759   5.673   4.936  0.0488 -0.2016 -0.2691
12341SOL    HW137593   2.764   5.591   4.985  0.7145 -0.4525 -0.7356
12341SOL    HW237594   2.705   5.652   4.860  0.1556 -0.1900 -0.3489
12342SOL     OW37595   1.712   0.015   1.856  0.4892 -0.1342 -0.4301
12342SOL    HW137596   1.653  -0.057   1.880 -0.5815  0.4072 -1.3264
12342SOL    HW237597   1.724   0.064   1.937  0.0581 -0.5055 -0.1363
12343SOL     OW37598   4.843   1.900   5.985 -0.2164 -0.1235  0.1444
12343SOL    HW137599   4.907   1.920   5.916 -0.6460  1.2406  0.1073
12343SOL    HW237600   4.809   1.985   6.011 -1.4207 -0.7665  0.7519
12344SOL     OW37601   3.725   0.940   6.118 -0.2967 -0.2979 -0.2487
12344SOL    HW137602   3.662   1.007   6.089 -0.4622 -0.4788 -0.3108
12344SOL    HW237603   3.780   0.925   6.041 -0.2972 -0.2770 -0.2532
12345SOL     OW37604   2.219   1.980   6.425  0.2421 -0.0271  0.5570
12345SOL    HW137605   2.160   1.962   6.499  1.0284  0.1442  1.2302
12345SOL    HW237606   2.182   1.928   6.353 -1.5347  1.1221  0.5564
12346SOL     OW37607   4.485   0.212   4.827 -0.5741  0.5947  0.1487
12346SOL    HW137608   4.395   0.234   4.804 -1.6452 -1.3275  2.1473
12346SOL    HW237609   4.511   0.282   4.888 -1.4870  0.0938  1.1524
12347SOL     OW37610   2.773   5.261   0.577  0.2686 -0.4296  0.1316
12347SOL    HW137611   2.769   5.165   0.582  2.3995 -0.5784 -0.0200
12347SOL    HW237612   2.752   5.290   0.666 -2.6029 -0.8496 -0.3023
12348SOL     OW37613   2.948   7.326   3.548 -0.0143  0.4450  0.4819
12348SOL    HW137614   2.940   7.272   3.470  0.9513  1.6008 -0.4390
12348SOL    HW237615   2.931   7.415   3.518  2.0818  1.1485  1.2003
12349SOL     OW37616   0.433   5.134   3.395  0.3346 -0.1816  0.3783
12349SOL    HW137617   0.397   5.124   3.307  1.7462  1.4936 -0.4524
12349SOL    HW237618   0.361   5.173   3.446  0.4504  1.8359 -0.8856
12350SOL     OW37619   6.145   6.891   5.737 -0.1729 -0.2407 -0.4164
12350SOL    HW137620   6.084   6.820   5.755 -0.2960 -0.0775 -0.1863
12350SOL    HW237621   6.232   6.850   5.740 -0.3212 -0.6799 -1.7489
12351SOL     OW37622   5.945   6.193   6.208  0.1478  0.6706  0.1782
12351SOL    HW137623   6.010   6.249   6.251 -2.6526  1.8993  3.1874
12351SOL    HW237624   5.895   6.155   6.280 -2.3743 -0.3551 -1.9764
12352SOL     OW37625   1.375   5.113   2.868 -0.0423  0.5100 -0.0031
12352SOL    HW137626   1.338   5.189   2.914  0.5579 -0.4649  2.2313
12352SOL    HW237627   1.300   5.058   2.848 -0.3252  0.9952 -0.3015
12353SOL     OW37628   0.672   5.235   3.408 -0.1331 -0.0659 -0.0874
12353SOL    HW137629   0.671   5.282   3.492  0.1933 -0.6072  0.2248
12353SOL    HW237630   0.588   5.189   3.406  0.2550 -0.8180  0.3923
12354SOL     OW37631   0.434   3.935   2.728 -0.3321  0.1280 -0.2681
12354SOL    HW137632   0.360   3.971   2.678 -1.5438 -1.8288  0.0108
12354SOL    HW237633   0.427   3.976   2.814 -0.5952  0.5647 -0.4950
12355SOL     OW37634   6.593   5.639   5.326  0.0765 -0.6815 -0.0863
12355SOL    HW137635   6.660   5.628   5.259  0.5049  1.2156 -0.0055
12355SOL    HW237636   6.558   5.727   5.312 -0.6699 -0.7009  1.4270
12356SOL     OW37637   4.201   5.246   4.611  0.4775  0.2418  0.1682
12356SOL    HW137638   4.182   5.312   4.677 -1.5052  0.0421 -0.1464
12356SOL    HW237639   4.234   5.296   4.536  1.3567  0.6016  0.7787
12357SOL     OW37640   1.299   2.580   4.288 -0.6349 -0.0747  0.5507
12357SOL    HW137641   1.217   2.630   4.279  0.4060  2.2503  2.6917
12357SOL    HW237642   1.305   2.561   4.382  1.8054  0.8629  0.6485
12358SOL     OW37643   0.273   0.748   7.352 -0.1034  0.2571  0.4814
12358SOL    HW137644   0.189   0.706   7.335  1.6401 -2.6140 -1.8983
12358SOL    HW237645   0.262   0.837   7.319 -2.3353  0.1517  0.7824
12359SOL     OW37646   3.408   4.416   3.049 -0.0503 -0.0358 -0.0983
12359SOL    HW137647   3.445   4.376   3.128  1.2652  0.6691 -0.3269
12359SOL    HW237648   3.470   4.486   3.026 -1.4056  1.0313 -0.6653
12360SOL     OW37649   2.423   2.456   6.401 -0.3350  0.1247  0.4019
12360SOL    HW137650   2.439   2.363   6.413 -0.7141  0.0480  0.3310
12360SOL    HW237651   2.458   2.475   6.314 -0.6965 -0.0597  0.2118
12361SOL     OW37652   1.425   4.903   7.050  0.5878 -0.8574  0.2506
12361SOL    HW137653   1.346   4.883   7.100  0.5143  0.1412  0.5504
12361SOL    HW237654   1.481   4.952   7.110 -1.1634  4.0484 -1.6233
12362SOL     OW37655   1.093   0.436   2.871  0.0914  0.4516  0.5170
12362SOL    HW137656   1.050   0.512   2.831  0.2998  1.2146  1.6887
12362SOL    HW237657   1.094   0.456   2.964 -0.5939 -1.3859  0.9585
12363SOL     OW37658   5.072   4.113   2.921  0.1975 -0.0635  0.5902
12363SOL    HW137659   5.036   4.061   2.993 -4.2693  1.8212  0.0117
12363SOL    HW237660   5.056   4.060   2.843  0.7812 -0.1098  0.4928
12364SOL     OW37661   3.662   4.072   5.449 -0.2080 -0.0269  0.0571
12364SOL    HW137662   3.599   4.088   5.519  0.2738 -0.0825  0.5094
12364SOL    HW237663   3.636   3.988   5.412 -1.3018  0.6551 -0.7527
12365SOL     OW37664   1.074   2.538   3.276  0.1212  0.1615  0.3556
12365SOL    HW137665   1.080   2.490   3.193  2.6130 -0.3527  0.7513
12365SOL    HW237666   1.028   2.477   3.335 -1.0363  0.2503 -0.4178
12366SOL     OW37667   4.073   6.043   1.481  0.0695  0.0844 -0.1375
12366SOL    HW137668   4.016   6.119   1.482 -1.8307 -1.1735 -2.2135
12366SOL    HW237669   4.031   5.980   1.540  0.4862 -0.0994 -0.0313
12367SOL     OW37670   3.517   3.593   3.609  0.3844 -0.8339 -0.0855
12367SOL    HW137671   3.551   3.648   3.538 -1.8069 -0.0583 -0.6200
12367SOL    HW237672   3.429   3.628   3.626  0.1650 -2.1688  1.7759
12368SOL     OW37673   2.776   2.755   0.808 -0.2608  0.1175  0.0007
12368SOL    HW137674   2.869   2.731   0.803 -0.2063  0.4677 -0.6805
12368SOL    HW237675   2.755   2.788   0.721 -0.7605  1.0039  0.4519
12369SOL     OW37676   0.826   2.647   1.791  0.2337 -0.4242  0.3363
12369SOL    HW137677   0.846   2.566   1.745  2.1670  0.6780 -0.9191
12369SOL    HW237678   0.863   2.636   1.878  2.3369 -0.1913 -0.4740
12370SOL     OW37679   2.669   5.222   2.666  0.3875  0.7843 -0.0267
12370SOL    HW137680   2.717   5.281   2.723 -0.2126  0.6327  0.6546
12370SOL    HW237681   2.611   5.278   2.615  1.3400  0.9742 -0.9082
12371SOL     OW37682   2.996   1.596   3.560  0.2101  0.7134 -0.0234
12371SOL    HW137683   2.960   1.630   3.641  0.9298  0.0980  0.5681
12371SOL    HW237684   3.076   1.647   3.546  1.1239 -0.4587  0.7007
12372SOL     OW37685   0.766   6.560   5.945 -0.0435 -0.2169  0.0664
12372SOL    HW137686   0.846   6.599   5.910  0.3146 -1.2785 -0.3282
12372SOL    HW237687   0.726   6.515   5.870 -1.3961  0.8981  0.0880
12373SOL     OW37688   6.673   0.324   3.524  0.3354 -0.4107  0.3452
12373SOL    HW137689   6.581   0.346   3.511  0.1089 -1.7630 -0.5405
12373SOL    HW237690   6.710   0.400   3.569 -1.0812  0.3830  0.2145
12374SOL     OW37691   2.390   5.823   7.289  0.0114 -0.0504  0.2524
12374SOL    HW137692   2.452   5.823   7.361 -1.8672  1.4256  1.9786
12374SOL    HW237693   2.314   5.774   7.321 -0.0259 -1.2970 -1.5667
12375SOL     OW37694   5.721   1.676   5.982 -0.6481  0.1665 -0.0844
12375SOL    HW137695   5.684   1.671   6.070 -1.1245  0.7389 -0.2485
12375SOL    HW237696   5.768   1.593   5.971  1.2888  0.9796  1.5273
12376SOL     OW37697   3.933   4.722   2.205  0.1134 -0.3707 -0.2372
12376SOL    HW137698   3.976   4.721   2.120  0.2074 -1.3929 -0.1877
12376SOL    HW237699   3.840   4.722   2.185  0.1226  0.8023 -0.3382
12377SOL     OW37700   6.971   4.122   4.186 -0.0915  0.0948 -0.1917
12377SOL    HW137701   7.023   4.053   4.227 -0.6795 -1.2967 -1.6532
12377SOL    HW237702   6.919   4.159   4.258  0.6131 -0.6363  0.7175
12378SOL     OW37703   1.604   1.871   7.248 -0.5605  0.8381  0.1069
12378SOL    HW137704   1.529   1.829   7.290 -0.3189 -0.8594 -1.0436
12378SOL    HW237705   1.576   1.887   7.158  0.1852  0.8861 -0.1263
12379SOL     OW37706   2.545   4.039   2.011 -0.0729 -0.3279 -0.6707
12379SOL    HW137707   2.612   3.972   2.015 -0.8204 -1.1210 -0.9741
12379SOL    HW237708   2.513   4.035   1.920  0.1639  0.7266 -0.8094
12380SOL     OW37709   4.744   3.474   2.025 -0.0791  0.2837  0.2206
12380SOL    HW137710   4.687   3.434   2.091  0.6659 -0.2845  0.5317
12380SOL    HW237711   4.744   3.567   2.046 -1.3940  0.3960 -0.1703
12381SOL     OW37712   5.426   4.506   5.718 -0.2744 -0.0622  0.3621
12381SOL    HW137713   5.408   4.537   5.807 -0.9076 -1.2037  0.6426
12381SOL    HW237714   5.397   4.415   5.717  0.1171 -0.1978 -0.8978
12382SOL     OW37715   3.256   3.883   5.845 -0.4466  0.2154 -0.1057
12382SOL    HW137716   3.282   3.854   5.932 -0.9437  0.2442  0.0535
12382SOL    HW237717   3.178   3.831   5.825  0.1379 -0.4030 -0.8817
12383SOL     OW37718   5.565   2.577   6.790  0.4024 -0.1881  0.1583
12383SOL    HW137719   5.518   2.620   6.718  1.8258  0.7922 -0.2330
12383SOL    HW237720   5.535   2.486   6.786  0.1480 -0.0777 -1.4519
12384SOL     OW37721   5.004   2.424   6.243 -0.3414  0.0431 -0.6817
12384SOL    HW137722   5.002   2.478   6.164 -0.8346  0.2249 -0.5484
12384SOL    HW237723   5.001   2.334   6.211  2.6575 -0.0307 -1.0172
12385SOL     OW37724   6.032   3.028   1.600  0.0078 -0.5104  0.1258
12385SOL    HW137725   5.997   3.075   1.525  1.1616  1.1345  0.5381
12385SOL    HW237726   6.009   3.083   1.675 -0.6660 -1.8473  0.9308
12386SOL     OW37727   1.274   5.548   3.279 -0.0534 -0.6169 -0.3187
12386SOL    HW137728   1.203   5.576   3.337  1.2112 -1.1574  1.6179
12386SOL    HW237729   1.231   5.499   3.209 -1.5722 -1.4846  1.1428
12387SOL     OW37730   0.816   1.916   2.604  0.1543 -0.4376 -0.2050
12387SOL    HW137731   0.789   1.990   2.657  1.2625 -0.2915  0.1771
12387SOL    HW237732   0.781   1.934   2.517 -0.7412 -0.1453  0.2052
12388SOL     OW37733   5.577   5.813   4.775  0.3897 -0.1296  0.3452
12388SOL    HW137734   5.617   5.729   4.751  1.0958  0.6214 -1.2353
12388SOL    HW237735   5.600   5.824   4.867  1.8159 -0.8402  0.1070
12389SOL     OW37736   0.655   1.100   0.773  0.7411  0.0506 -0.6662
12389SOL    HW137737   0.642   1.016   0.817 -2.0744 -0.2415 -1.8517
12389SOL    HW237738   0.645   1.080   0.680  0.9230  1.5757 -1.0378
12390SOL     OW37739   0.473   3.196   4.804  0.2003  0.3257  0.8044
12390SOL    HW137740   0.517   3.114   4.828  1.0372  0.5068 -0.0740
12390SOL    HW237741   0.509   3.219   4.719 -1.0487  0.8985  0.4117
12391SOL     OW37742   0.880   5.040   3.688 -0.1946 -0.5317  0.2715
12391SOL    HW137743   0.974   5.040   3.703 -0.1356  1.9481  0.1995
12391SOL    HW237744   0.841   5.066   3.772 -0.5338  2.0471 -0.5948
12392SOL     OW37745   7.225   3.306   5.161  0.1640  0.6251 -0.0111
12392SOL    HW137746   7.149   3.363   5.173 -1.2168 -1.2293  0.5809
12392SOL    HW237747   7.243   3.309   5.067  0.5503  2.4751  0.0778
12393SOL     OW37748   1.020   1.854   6.431  0.0903  0.3337  0.7343
12393SOL    HW137749   0.944   1.834   6.377 -0.9314 -0.2184  2.3178
12393SOL    HW237750   0.985   1.862   6.519  1.8787  0.1109  1.4968
12394SOL     OW37751   4.987   5.630   3.032 -0.0449  0.2416 -0.6827
12394SOL    HW137752   5.009   5.689   3.104  1.0874 -1.5854  0.5626
12394SOL    HW237753   4.933   5.561   3.073 -1.2121  0.2905 -2.0546
12395SOL     OW37754   2.593   6.573   3.098  0.6679  0.0470  0.1488
12395SOL    HW137755   2.547   6.651   3.066  0.4699 -0.1074  0.0564
12395SOL    HW237756   2.543   6.500   3.063  1.1272 -0.1223 -0.1471
12396SOL     OW37757   1.710   2.863   2.150 -0.3636  0.2770 -0.4652
12396SOL    HW137758   1.634   2.876   2.206  0.7254  1.0921  0.9107
12396SOL    HW237759   1.744   2.951   2.134  0.4598 -0.0829 -0.8023
12397SOL     OW37760   1.365   4.282   5.807  0.4392  0.9877 -0.0664
12397SOL    HW137761   1.273   4.258   5.794  0.4588  0.9604 -0.1544
12397SOL    HW237762   1.372   4.300   5.900  0.4201  0.6701 -0.0036
12398SOL     OW37763   1.250   6.661   1.021  0.2714  0.0581 -0.3018
12398SOL    HW137764   1.302   6.734   1.055 -1.4422  0.9115  0.6364
12398SOL    HW237765   1.161   6.679   1.051 -0.5060 -1.5744 -1.4602
12399SOL     OW37766   2.916   0.533   4.442  0.5681 -0.2820 -0.3648
12399SOL    HW137767   2.907   0.449   4.488  2.1447 -1.3533 -1.8961
12399SOL    HW237768   2.996   0.572   4.479  0.5329 -0.0403 -0.5450
12400SOL     OW37769   3.295   5.600   4.941 -0.2180  0.1397  0.2947
12400SOL    HW137770   3.346   5.656   4.882 -0.7255  0.0122 -0.2699
12400SOL    HW237771   3.204   5.616   4.917 -0.5306  1.0150  1.8744
12401SOL     OW37772   1.733   3.304   3.254  0.6851 -0.0681  0.5295
12401SOL    HW137773   1.663   3.252   3.295  0.8981 -0.1017  0.8570
12401SOL    HW237774   1.794   3.240   3.219 -0.4547 -0.0852 -1.5979
12402SOL     OW37775   1.643   7.308   0.764 -0.6679 -0.0452  0.5416
12402SOL    HW137776   1.630   7.321   0.858 -0.3652  2.3266  0.3173
12402SOL    HW237777   1.563   7.341   0.724 -1.1005 -1.6977 -0.0549
12403SOL     OW37778   0.532   1.785   2.392 -0.2856  0.3062  0.0853
12403SOL    HW137779   0.569   1.868   2.422 -2.6252  1.3815  0.2300
12403SOL    HW237780   0.607   1.726   2.383  1.4250  2.3805  0.1327
12404SOL     OW37781   2.910   6.524   7.436  0.6016  0.2330 -0.7811
12404SOL    HW137782   2.826   6.491   7.469  0.2646  0.9793 -0.8794
12404SOL    HW237783   2.969   6.448   7.441  0.0113 -0.2107 -0.4074
12405SOL     OW37784   6.769   1.879   5.099  0.0096  0.0234 -0.0844
12405SOL    HW137785   6.823   1.938   5.151  0.5359 -1.3672  1.0301
12405SOL    HW237786   6.680   1.894   5.132  0.1597  0.0931  0.3003
12406SOL     OW37787   3.387   5.276   0.172 -0.6741  0.1567  0.1789
12406SOL    HW137788   3.335   5.301   0.248  0.4915  2.2603  0.3791
12406SOL    HW237789   3.324   5.272   0.100 -1.4472  0.4548  0.8229
12407SOL     OW37790   4.118   4.102   6.462  0.2124 -0.4491 -0.4353
12407SOL    HW137791   4.209   4.113   6.432  0.5041 -0.2842  0.4791
12407SOL    HW237792   4.076   4.051   6.392  0.9671 -0.4110 -0.9356
12408SOL     OW37793   0.439   3.898   2.440 -0.2645 -0.4124  0.2081
12408SOL    HW137794   0.476   3.907   2.528 -1.4247 -1.4611  0.8436
12408SOL    HW237795   0.360   3.845   2.453 -1.6384  1.2075 -1.1826
12409SOL     OW37796   4.096   6.397   1.384 -0.7308  0.1766  0.2204
12409SOL    HW137797   4.078   6.416   1.476 -1.4988 -1.6886  0.5038
12409SOL    HW237798   4.174   6.341   1.386 -0.8671 -0.0340 -0.2529
12410SOL     OW37799   1.936   2.058   3.864 -0.1947  0.2974  0.5088
12410SOL    HW137800   1.882   2.121   3.817 -0.2605 -0.4734 -0.4851
12410SOL    HW237801   1.889   2.043   3.946 -0.6140  0.8994  0.3814
12411SOL     OW37802   3.939   5.249   6.823  0.5199 -0.0970 -0.2537
12411SOL    HW137803   3.949   5.194   6.746 -0.6192 -0.9221  0.1567
12411SOL    HW237804   3.854   5.291   6.812 -1.0446 -2.4140  1.8186
12412SOL     OW37805   4.408   0.617   6.389 -1.0243 -0.5513 -0.3239
12412SOL    HW137806   4.453   0.583   6.311 -0.2185  1.1054 -0.6120
12412SOL    HW237807   4.363   0.540   6.425 -0.5115 -1.5957 -1.7856
12413SOL     OW37808   0.592   0.917   7.193  0.7736 -0.7204 -0.1129
12413SOL    HW137809   0.620   0.852   7.257  0.1695 -1.2654 -0.3987
12413SOL    HW237810   0.562   0.866   7.118 -0.1004 -0.1346 -0.1749
12414SOL     OW37811   7.344   5.484   4.235 -0.2506  0.5702  0.1731
12414SOL    HW137812   7.361   5.542   4.161  0.5648  0.0775 -0.0368
12414SOL    HW237813   7.315   5.402   4.195 -2.3825  1.1000  0.4917
12415SOL     OW37814   3.935   4.027   7.205  0.7002 -0.4083 -0.2359
12415SOL    HW137815   4.009   3.966   7.204 -0.0595 -1.3705 -1.3640
12415SOL    HW237816   3.964   4.102   7.154  0.8577 -0.8625 -0.8315
12416SOL     OW37817   1.413   6.639   3.120  0.1305 -0.2912 -0.3131
12416SOL    HW137818   1.426   6.667   3.029 -0.1640 -0.3945 -0.3869
12416SOL    HW237819   1.498   6.608   3.148  0.1530 -0.5322 -0.6478
12417SOL     OW37820   7.208   0.853   7.231  0.4042  0.6303  0.1850
12417SOL    HW137821   7.136   0.916   7.237  0.7399  0.9637  0.7669
12417SOL    HW237822   7.287   0.905   7.250  0.7714  0.2100 -0.1698
12418SOL     OW37823   3.057   3.487   0.602  0.3383 -0.2863  0.0964
12418SOL    HW137824   2.995   3.437   0.657  0.0132 -0.0258 -0.0300
12418SOL    HW237825   3.060   3.573   0.642  0.5727 -0.2776  0.0609
12419SOL     OW37826   6.344   5.003   2.818 -0.3184  0.6063  0.0022
12419SOL    HW137827   6.323   4.919   2.860  1.1510  1.5984  2.9899
12419SOL    HW237828   6.411   4.981   2.753 -0.8253 -0.6640 -0.1237
12420SOL     OW37829   1.361   0.420   0.711 -0.4471  0.0564 -0.0599
12420SOL    HW137830   1.423   0.453   0.776  0.5477 -2.7848  0.6069
12420SOL    HW237831   1.410   0.353   0.663 -2.2438 -0.4461 -1.3046
12421SOL     OW37832   3.706   3.276   1.257  0.2013 -0.3956  0.5873
12421SOL    HW137833   3.681   3.204   1.199 -0.8110 -0.1143  0.6495
12421SOL    HW237834   3.623   3.311   1.288  0.6052  1.4954 -0.2939
12422SOL     OW37835   1.093   6.623   3.609 -0.0910 -0.6543 -0.4852
12422SOL    HW137836   1.168   6.574   3.641 -0.3953 -1.9530 -1.6975
12422SOL    HW237837   1.130   6.702   3.571  0.3182  0.8086  2.6207
12423SOL     OW37838   4.216   2.745   6.553  0.7043 -0.3540  1.0364
12423SOL    HW137839   4.226   2.710   6.642  0.8570 -0.7041  0.8811
12423SOL    HW237840   4.203   2.668   6.498  1.0866 -0.1706  0.6832
12424SOL     OW37841   6.434   6.992   2.776  0.6160  0.8500  0.3281
12424SOL    HW137842   6.426   6.981   2.871 -1.4925 -2.6303 -0.0862
12424SOL    HW237843   6.349   7.024   2.748  0.8691  0.8381 -0.4843
12425SOL     OW37844   4.766   2.058   1.359 -0.1154 -0.3669 -0.0909
12425SOL    HW137845   4.818   2.018   1.289  0.2880 -0.5059  0.2855
12425SOL    HW237846   4.717   2.128   1.316  1.7203  0.9360 -0.1192
12426SOL     OW37847   1.746   7.278   4.451  0.5279  0.0262 -0.5254
12426SOL    HW137848   1.779   7.266   4.362 -0.9637 -2.0126 -0.8570
12426SOL    HW237849   1.651   7.273   4.442  0.0976  3.1781  0.7643
12427SOL     OW37850   0.388   5.154   4.811  0.2446 -0.1929  0.4059
12427SOL    HW137851   0.424   5.224   4.865 -0.5761 -0.0877  0.8372
12427SOL    HW237852   0.409   5.181   4.721 -2.0305  1.8561  0.3680
12428SOL     OW37853   5.514   4.303   4.753  0.0464  0.0929 -0.5455
12428SOL    HW137854   5.523   4.221   4.704 -1.0369 -1.7838  2.1222
12428SOL    HW237855   5.424   4.332   4.736 -0.1735 -0.3027 -0.0937
12429SOL     OW37856   3.037   6.710   3.414 -0.5786 -0.0521  0.1352
12429SOL    HW137857   3.099   6.782   3.423 -0.7032 -0.1218  2.1508
12429SOL    HW237858   2.997   6.723   3.328 -0.5499  2.2412  0.3996
12430SOL     OW37859   3.192   7.442   6.687 -0.2901  0.0266 -0.3395
12430SOL    HW137860   3.260   7.468   6.624 -0.2281 -0.5053 -0.4959
12430SOL    HW237861   3.132   7.387   6.636 -0.2836 -0.3399  0.0430
12431SOL     OW37862   7.318   2.808   5.709  0.7030  0.5761  0.2362
12431SOL    HW137863   7.266   2.770   5.779  2.5271  0.3445  1.5556
12431SOL    HW237864   7.271   2.887   5.684 -1.5078 -0.8488 -0.3746
12432SOL     OW37865   7.311   2.476   6.167  0.5379 -0.0301  0.0097
12432SOL    HW137866   7.333   2.567   6.184  0.6630 -0.0308 -0.1479
12432SOL    HW237867   7.377   2.426   6.216  0.1130 -0.0451  0.5865
12433SOL     OW37868   4.346   6.757   2.353 -0.0645  0.4898  0.4415
12433SOL    HW137869   4.429   6.801   2.335 -0.2789  0.9429  0.5583
12433SOL    HW237870   4.279   6.813   2.312 -0.2548 -0.2711 -0.3411
12434SOL     OW37871   0.602   5.976   3.978 -0.0385  0.0034 -0.3509
12434SOL    HW137872   0.615   5.970   4.073  0.9586  0.8622 -0.4093
12434SOL    HW237873   0.510   6.001   3.968 -0.6006 -1.6570  0.3050
12435SOL     OW37874   6.359   0.115   5.937  0.5253 -0.2349  0.1685
12435SOL    HW137875   6.448   0.085   5.957  0.2103 -2.1505 -0.9874
12435SOL    HW237876   6.302   0.051   5.980 -0.1909 -1.4409 -2.3636
12436SOL     OW37877   1.380   0.542   2.878 -0.2688 -0.8353 -0.0197
12436SOL    HW137878   1.341   0.523   2.964  0.6978  0.1028  0.6621
12436SOL    HW237879   1.474   0.533   2.893  0.0365  1.0819 -0.4862
12437SOL     OW37880   2.175   5.932   3.378  0.3517  0.2266  0.1301
12437SOL    HW137881   2.270   5.936   3.371  0.3051  0.0862 -0.7109
12437SOL    HW237882   2.153   5.839   3.366  0.2651 -0.2176  2.9230
12438SOL     OW37883   6.210   2.030   2.749 -0.1553 -0.1312 -0.2098
12438SOL    HW137884   6.229   2.036   2.843  1.4024  0.1959 -0.5148
12438SOL    HW237885   6.215   2.120   2.718 -3.7639  0.2335 -0.1231
12439SOL     OW37886   4.691   0.503   2.718  0.1073 -0.1429  0.1277
12439SOL    HW137887   4.701   0.598   2.710 -0.5425 -0.1030 -0.3362
12439SOL    HW237888   4.635   0.492   2.796 -1.7492  0.0039 -1.1074
12440SOL     OW37889   3.857   3.512   1.280  0.5342 -0.0112  0.1863
12440SOL    HW137890   3.898   3.525   1.365 -0.5662  0.0186  0.7262
12440SOL    HW237891   3.807   3.431   1.289  0.2085  0.1195 -0.3521
12441SOL     OW37892   4.867   4.189   4.369  0.3769  0.1296  0.4201
12441SOL    HW137893   4.922   4.234   4.433  2.0327 -1.8222  0.4572
12441SOL    HW237894   4.795   4.154   4.420  1.1206 -0.4966  1.0601
12442SOL     OW37895   4.034   4.434   4.080  0.2234 -0.2611 -0.2661
12442SOL    HW137896   4.090   4.369   4.037  0.0118 -0.3019 -0.4818
12442SOL    HW237897   3.994   4.482   4.008  1.3579  0.9633 -0.1054
12443SOL     OW37898   2.323   3.862   6.533  0.5115 -0.3851  0.3679
12443SOL    HW137899   2.391   3.925   6.556  0.4027  0.3980 -1.2814
12443SOL    HW237900   2.346   3.833   6.444 -1.4623  0.1663 -0.3814
12444SOL     OW37901   4.121   1.614   3.359  0.0780  0.0543 -0.2781
12444SOL    HW137902   4.152   1.654   3.440 -0.1392 -2.1362  0.9597
12444SOL    HW237903   4.032   1.585   3.379 -0.8857  1.5411 -2.0932
12445SOL     OW37904   0.874   0.128   4.912 -0.4348 -0.6989  0.4858
12445SOL    HW137905   0.965   0.132   4.881 -0.4419  0.2215  0.5589
12445SOL    HW237906   0.843   0.218   4.905 -1.3596 -1.0190  0.4273
12446SOL     OW37907   3.645   0.584   3.498  0.7464  0.3473 -0.3538
12446SOL    HW137908   3.711   0.652   3.487  1.7520 -0.7068 -1.1127
12446SOL    HW237909   3.563   0.631   3.511  0.9114  1.7792 -3.5900
12447SOL     OW37910   3.118   4.175   7.018 -0.1933  0.3024  0.0481
12447SOL    HW137911   3.065   4.226   7.079 -1.5601 -1.5893  0.5045
12447SOL    HW237912   3.207   4.211   7.028 -0.9399  1.9786  0.9659
12448SOL     OW37913   6.637   5.704   2.487 -0.9531  0.0369 -0.1559
12448SOL    HW137914   6.665   5.707   2.579 -0.4628  0.0345 -0.3055
12448SOL    HW237915   6.581   5.781   2.478 -1.7779 -0.4789  0.3898
12449SOL     OW37916   0.120   2.186   1.493 -0.1764  0.4165 -0.0051
12449SOL    HW137917   0.203   2.223   1.523  0.0754 -1.2660  1.5732
12449SOL    HW237918   0.065   2.183   1.572 -1.2696  0.3025 -0.7512
12450SOL     OW37919   4.830   4.694   2.107  0.3950 -0.0411 -0.5728
12450SOL    HW137920   4.782   4.695   2.190 -1.3257  0.1913 -1.5248
12450SOL    HW237921   4.917   4.661   2.130  0.1580  0.6120  1.4129
12451SOL     OW37922   3.371   6.788   3.621 -0.1573 -0.3537 -0.5113
12451SOL    HW137923   3.461   6.821   3.628 -0.8554  1.5203  0.4190
12451SOL    HW237924   3.375   6.699   3.657  1.0856  0.2114  0.8757
12452SOL     OW37925   1.448   4.972   6.789  0.6891 -0.2084 -0.0529
12452SOL    HW137926   1.465   4.878   6.783 -0.5549 -0.5220  0.8277
12452SOL    HW237927   1.436   4.988   6.882  0.2432  0.6983 -0.2539
12453SOL     OW37928   6.022   7.316   1.847 -0.0959  0.4139  0.2132
12453SOL    HW137929   5.970   7.236   1.841  1.1917 -0.3696 -1.8677
12453SOL    HW237930   5.958   7.387   1.843 -1.1127 -0.5016 -2.8024
12454SOL     OW37931   4.969   7.357   3.227 -0.4115  0.0826 -0.2592
12454SOL    HW137932   4.968   7.368   3.132 -1.4507  0.0766 -0.2632
12454SOL    HW237933   5.027   7.426   3.259 -0.8782  0.7557 -0.8344
12455SOL     OW37934   1.062   1.094   3.323 -0.4689  0.0622 -0.0098
12455SOL    HW137935   1.054   1.052   3.408 -0.0944  1.0712  0.5394
12455SOL    HW237936   1.152   1.074   3.295 -0.2971  0.4702  0.2428
12456SOL     OW37937   5.459   0.325   4.974 -0.1494 -0.3423 -0.3551
12456SOL    HW137938   5.441   0.412   4.937  0.5178 -0.9551 -2.2549
12456SOL    HW237939   5.497   0.276   4.901 -0.4990 -2.2397  0.6896
12457SOL     OW37940   1.883   3.710   6.492 -0.0752 -0.2880 -0.1280
12457SOL    HW137941   1.849   3.705   6.402  2.0285 -0.0343 -0.9960
12457SOL    HW237942   1.892   3.619   6.519 -1.2257 -0.3598  0.0472
12458SOL     OW37943   0.677   1.344   5.364 -0.5222 -0.0320 -0.0162
12458SOL    HW137944   0.712   1.343   5.453  1.4454  0.2918 -0.7404
12458SOL    HW237945   0.583   1.331   5.376 -0.1924 -1.0502  2.0425
12459SOL     OW37946   5.237   1.413   6.679  0.2616 -0.2012 -0.2924
12459SOL    HW137947   5.279   1.419   6.764  2.0579  1.4081 -1.2107
12459SOL    HW237948   5.280   1.339   6.636 -0.3985 -0.7900  0.0290
12460SOL     OW37949   5.728   0.137   1.501 -0.0621 -0.1097 -0.2946
12460SOL    HW137950   5.769   0.202   1.559  1.0305  0.0150 -1.1785
12460SOL    HW237951   5.662   0.095   1.556  2.3625 -1.5016  1.7565
12461SOL     OW37952   2.861   6.310   6.161  0.0413 -0.3561  0.1330
12461SOL    HW137953   2.867   6.275   6.072 -0.6743 -0.3033  0.0537
12461SOL    HW237954   2.950   6.333   6.185  0.3260 -0.9590 -0.3369
12462SOL     OW37955   6.651   2.199   4.742  0.1567 -0.2029 -0.0651
12462SOL    HW137956   6.629   2.112   4.777  0.5203  0.8556  3.1920
12462SOL    HW237957   6.572   2.251   4.757  0.2758  0.2722 -1.0780
12463SOL     OW37958   6.619   6.765   0.375  0.1058 -0.1344  0.3710
12463SOL    HW137959   6.576   6.684   0.403 -1.9432 -0.2308 -2.5885
12463SOL    HW237960   6.550   6.814   0.330  2.2096  1.5573 -1.1906
12464SOL     OW37961   0.056   0.580   7.278 -0.1222 -0.4076 -0.6207
12464SOL    HW137962   0.020   0.634   7.208  2.4359  0.8575 -1.0849
12464SOL    HW237963  -0.018   0.529   7.310 -2.1905  1.7787 -1.6484
12465SOL     OW37964   4.506   5.626   5.894  0.5037  0.8003 -0.6503
12465SOL    HW137965   4.549   5.621   5.979 -0.3499  0.3964 -0.2353
12465SOL    HW237966   4.446   5.551   5.893  0.6063  0.7212 -1.6602
12466SOL     OW37967   1.977   0.022   0.794 -0.6187 -0.0781 -0.3343
12466SOL    HW137968   2.057  -0.026   0.814 -1.1235 -0.7747  0.0347
12466SOL    HW237969   1.939   0.041   0.880 -1.6698 -1.1531 -0.5478
12467SOL     OW37970   1.330   5.941   7.237  0.4272 -0.0441  0.2514
12467SOL    HW137971   1.301   5.863   7.284 -3.4010  0.0979 -1.4792
12467SOL    HW237972   1.348   6.005   7.305 -0.9418 -1.0375  1.6224
12468SOL     OW37973   5.132   1.235   1.464  0.1926 -0.0472 -0.5478
12468SOL    HW137974   5.038   1.238   1.482 -0.0815 -0.4829 -1.8621
12468SOL    HW237975   5.169   1.188   1.540 -0.6491  0.0372 -0.0704
12469SOL     OW37976   0.774   6.343   4.670 -0.6570  0.0434 -0.1132
12469SOL    HW137977   0.828   6.270   4.641 -0.8381 -0.1530  0.0345
12469SOL    HW237978   0.692   6.334   4.621 -1.1055 -0.5041  0.7092
12470SOL     OW37979   7.332   3.677   1.278 -0.4294  0.0590 -0.2902
12470SOL    HW137980   7.364   3.731   1.206  1.1680  0.6795  0.8397
12470SOL    HW237981   7.274   3.734   1.327 -0.0034  0.2573 -0.0097
12471SOL     OW37982   0.040   0.071   1.527 -0.3209 -0.0750  0.0623
12471SOL    HW137983  -0.032   0.028   1.481 -0.1448  0.0902 -0.3759
12471SOL    HW237984   0.009   0.161   1.540  0.2797  0.3661 -1.2612
12472SOL     OW37985   6.245   5.864   2.707 -0.6039  0.5114  0.1372
12472SOL    HW137986   6.259   5.906   2.791  0.0538 -1.1227  0.8916
12472SOL    HW237987   6.171   5.805   2.721 -0.2398 -0.0617 -0.3035
12473SOL     OW37988   4.831   6.121   0.544 -0.1486 -0.2452  0.4360
12473SOL    HW137989   4.769   6.189   0.517 -1.2458 -0.5981  1.9475
12473SOL    HW237990   4.852   6.143   0.636 -1.4955 -2.5969  1.3824
12474SOL     OW37991   1.977   2.454   7.414  0.7468  0.2150 -0.1030
12474SOL    HW137992   2.050   2.441   7.474  0.3354 -1.6054  0.0704
12474SOL    HW237993   2.008   2.519   7.352  1.9559  0.5860  0.8470
12475SOL     OW37994   5.311   3.695   6.345  0.1825  0.1355 -0.1547
12475SOL    HW137995   5.406   3.693   6.351  0.1136 -0.3348  1.1948
12475SOL    HW237996   5.281   3.701   6.436 -1.0794  0.0849 -0.5392
12476SOL     OW37997   5.026   5.365   6.541  0.3417 -0.5245 -0.2353
12476SOL    HW137998   4.993   5.333   6.457 -1.4384 -1.6016  0.8069
12476SOL    HW237999   4.983   5.450   6.553  0.2254 -0.5899 -0.1928
12477SOL     OW38000   0.082   6.174   6.989 -0.3177 -0.3766  0.1633
12477SOL    HW138001   0.151   6.222   6.942 -0.6616 -0.1101 -0.0727
12477SOL    HW238002   0.004   6.228   6.978 -0.0842  0.5317  2.3501
12478SOL     OW38003   4.175   5.733   0.300  0.1189  0.4832 -0.7287
12478SOL    HW138004   4.086   5.766   0.291 -0.0906  0.4169  0.8594
12478SOL    HW238005   4.214   5.787   0.369  0.5001 -1.0786  0.3275
12479SOL     OW38006   5.755   4.137   6.170 -0.5359 -0.3863  0.8439
12479SOL    HW138007   5.677   4.126   6.225 -0.3521 -0.5245  1.0788
12479SOL    HW238008   5.820   4.175   6.230 -0.9403  1.3608  0.2471
12480SOL     OW38009   3.857   5.725   5.092 -0.4595  0.4563  0.6801
12480SOL    HW138010   3.787   5.664   5.115 -0.4344 -0.2950 -1.1002
12480SOL    HW238011   3.812   5.808   5.075 -0.5340  0.8880  2.6845
12481SOL     OW38012   6.895   2.368   5.328 -0.3934 -0.4257  0.7060
12481SOL    HW138013   6.951   2.326   5.393 -0.5982 -1.0846  0.4660
12481SOL    HW238014   6.895   2.307   5.253  0.1518  0.4977 -0.0665
12482SOL     OW38015   0.934   7.116   2.667 -0.1991  0.0801  0.2999
12482SOL    HW138016   0.896   7.185   2.721 -0.1751  0.7954 -0.5858
12482SOL    HW238017   1.003   7.078   2.723 -0.1899  0.7841  0.7815
12483SOL     OW38018   7.302   3.920   0.797  0.7848 -0.0059  0.3451
12483SOL    HW138019   7.395   3.941   0.803  0.7025  0.7296 -0.6886
12483SOL    HW238020   7.257   4.003   0.812  0.2547 -0.4797  1.4893
12484SOL     OW38021   2.076   6.024   4.515  0.5388  0.2567  0.2680
12484SOL    HW138022   2.158   5.993   4.553  0.8952  0.2630 -0.4922
12484SOL    HW238023   2.100   6.060   4.430 -0.0655  1.3656  0.5397
12485SOL     OW38024   2.977   3.312   1.695 -0.6122 -0.2943 -0.0717
12485SOL    HW138025   2.912   3.277   1.756 -0.6520  0.3298  0.2545
12485SOL    HW238026   3.026   3.376   1.747  0.5486 -1.0584 -0.1940
12486SOL     OW38027   6.785   0.219   5.888 -0.1547 -0.1099 -0.5224
12486SOL    HW138028   6.795   0.299   5.835 -0.1127  0.4152  0.2597
12486SOL    HW238029   6.871   0.177   5.884  0.0845  0.3387 -0.2312
12487SOL     OW38030   1.573   4.414   2.408  0.0785  0.8844  0.0872
12487SOL    HW138031   1.512   4.487   2.420 -0.6866  0.1953  0.4438
12487SOL    HW238032   1.526   4.352   2.352  0.6960  0.6292 -0.1534
12488SOL     OW38033   1.090   1.069   5.572 -0.5886  0.1403  0.5577
12488SOL    HW138034   1.122   1.134   5.635 -2.1632  1.9618 -0.4145
12488SOL    HW238035   1.077   1.118   5.491 -1.1593 -1.5652 -0.4336
12489SOL     OW38036   1.110   3.300   3.291 -0.0362 -0.3619  0.0649
12489SOL    HW138037   1.197   3.316   3.254  0.3367 -0.6520  0.7996
12489SOL    HW238038   1.052   3.300   3.215  0.8608 -2.1743 -0.6688
12490SOL     OW38039   5.409   0.503   4.216  0.1380 -0.7212  0.1609
12490SOL    HW138040   5.354   0.428   4.191  0.2997 -0.6735 -0.3432
12490SOL    HW238041   5.405   0.562   4.141 -0.1278 -0.1385  0.6288
12491SOL     OW38042   5.181   2.402   5.244 -0.0491 -0.1739 -0.1465
12491SOL    HW138043   5.213   2.372   5.329  1.3536 -1.0241 -0.9524
12491SOL    HW238044   5.145   2.324   5.203 -2.0594  0.5021  0.1897
12492SOL     OW38045   6.593   2.182   6.273  0.3235 -0.3047  0.0313
12492SOL    HW138046   6.676   2.224   6.297  0.5279 -0.5022 -0.3222
12492SOL    HW238047   6.555   2.241   6.208 -0.0891  0.0796  0.6114
12493SOL     OW38048   4.920   3.264   6.890 -0.3800 -0.1986 -0.3232
12493SOL    HW138049   4.845   3.208   6.868 -0.3960 -0.0520 -0.6354
12493SOL    HW238050   4.958   3.222   6.967  0.3091 -1.3127 -1.2370
12494SOL     OW38051   0.884   6.125   3.267 -0.0461 -0.1742  0.9947
12494SOL    HW138052   0.887   6.218   3.290  1.1969 -0.0089  0.2410
12494SOL    HW238053   0.814   6.119   3.203  1.4049  0.7057 -0.7690
12495SOL     OW38054   0.009   7.258   5.194  0.1567 -0.2273  0.2828
12495SOL    HW138055  -0.085   7.252   5.177  0.4211  0.9197 -2.0466
12495SOL    HW238056   0.018   7.336   5.249 -0.3218 -0.8782  1.2967
12496SOL     OW38057   7.384   0.603   1.617  0.0385  1.2029 -0.0670
12496SOL    HW138058   7.357   0.652   1.695 -0.1654  0.8227  0.1051
12496SOL    HW238059   7.463   0.647   1.587  1.5009 -0.0410  1.7289
12497SOL     OW38060   2.083   1.286   1.936 -0.5746 -0.2748  0.5330
12497SOL    HW138061   2.102   1.218   1.871  1.5077  1.2308 -0.5605
12497SOL    HW238062   2.051   1.360   1.885  0.1495  0.6030  1.3184
12498SOL     OW38063   1.293   5.712   7.429  0.4370  0.0628  0.2031
12498SOL    HW138064   1.340   5.629   7.441  0.2568 -0.3706 -1.8597
12498SOL    HW238065   1.214   5.689   7.381  0.6489  1.4934 -0.9077
12499SOL     OW38066   0.221   5.885   4.693 -0.1900  0.0288 -0.3383
12499SOL    HW138067   0.125   5.876   4.689 -0.2550  0.9912 -1.4637
12499SOL    HW238068   0.236   5.975   4.723  0.3773 -0.3068  0.4170
12500SOL     OW38069   6.055   6.935   2.468 -0.4135 -0.4449 -0.3573
12500SOL    HW138070   5.962   6.954   2.473 -0.2201  0.3013  0.9657
12500SOL    HW238071   6.091   7.003   2.412 -0.4630  0.1137  0.2833
12501SOL     OW38072   6.245   6.499   2.788 -0.1212 -0.1247  0.3978
12501SOL    HW138073   6.185   6.561   2.747 -0.2704  0.5399  1.5830
12501SOL    HW238074   6.332   6.536   2.774 -0.1706  0.0926  0.6690
12502SOL     OW38075   5.819   5.887   2.119 -0.2315 -0.8514  0.1379
12502SOL    HW138076   5.886   5.950   2.093 -0.5021 -0.3697  0.5868
12502SOL    HW238077   5.742   5.910   2.067 -0.1446 -1.2199 -0.1630
12503SOL     OW38078   0.065   3.738   1.504  0.1149 -0.0377  0.1879
12503SOL    HW138079   0.115   3.817   1.487  1.0827 -1.0503 -2.1982
12503SOL    HW238080  -0.019   3.752   1.460 -0.2287  0.1705  0.9028
12504SOL     OW38081   5.112   2.904   0.648  0.5213  0.2450  0.1724
12504SOL    HW138082   5.197   2.890   0.688  0.3074 -0.9166  0.2703
12504SOL    HW238083   5.053   2.920   0.722  0.7891  1.9312  0.0512
12505SOL     OW38084   3.990   1.555   4.049 -0.2936 -0.0756 -0.2998
12505SOL    HW138085   4.079   1.539   4.081 -0.1051 -1.4674 -1.3784
12505SOL    HW238086   3.935   1.496   4.100 -0.0699 -1.8639 -1.9939
12506SOL     OW38087   1.814   1.370   0.284 -0.1773 -0.4628  0.2456
12506SOL    HW138088   1.752   1.346   0.352 -0.9352 -1.3711 -0.7289
12506SOL    HW238089   1.888   1.408   0.331 -1.2831  0.2706  1.4688
12507SOL     OW38090   5.434   0.390   6.467 -0.0878  0.2680 -0.2142
12507SOL    HW138091   5.504   0.330   6.440 -1.4787 -1.0640 -1.0243
12507SOL    HW238092   5.395   0.348   6.543 -1.9312 -0.6242 -1.5680
12508SOL     OW38093   3.890   1.552   5.059  0.0579  0.5443 -0.2247
12508SOL    HW138094   3.911   1.583   4.971 -1.2839 -0.0136 -0.7776
12508SOL    HW238095   3.795   1.566   5.067  0.0840  0.1639  0.9599
12509SOL     OW38096   3.425   5.272   6.779  0.1976 -0.4192  0.4081
12509SOL    HW138097   3.427   5.367   6.769  0.8534 -0.4297  0.4561
12509SOL    HW238098   3.501   5.240   6.731 -0.1520 -0.9468  0.1801
12510SOL     OW38099   3.302   1.598   2.262  0.5723 -0.1538 -0.5519
12510SOL    HW138100   3.235   1.552   2.312 -0.0391  2.4931  1.2469
12510SOL    HW238101   3.253   1.648   2.196  0.4173  2.8629  1.6160
12511SOL     OW38102   3.366   5.056   1.232 -0.0289  0.3819  0.7387
12511SOL    HW138103   3.328   4.968   1.234 -0.6227  0.5797  3.6493
12511SOL    HW238104   3.314   5.104   1.168  0.0489 -1.2600 -0.5993
12512SOL     OW38105   7.057   2.786   2.260 -0.0758 -0.1100  0.0203
12512SOL    HW138106   7.133   2.831   2.223  0.7100 -0.9885  0.5216
12512SOL    HW238107   6.983   2.843   2.239  0.7289  0.8212 -0.3780
12513SOL     OW38108   4.796   7.119   5.244  0.7597 -0.1757  0.5621
12513SOL    HW138109   4.844   7.199   5.266  1.5360 -0.3786 -0.3623
12513SOL    HW238110   4.821   7.100   5.154 -1.2287 -0.1622 -0.0333
12514SOL     OW38111   3.066   3.718   0.755  0.3620 -0.2969 -0.0069
12514SOL    HW138112   2.980   3.716   0.797  1.1840 -1.0903  1.7278
12514SOL    HW238113   3.078   3.809   0.728 -0.2164  0.2483  1.4988
12515SOL     OW38114   6.297   6.744   0.837 -0.0423 -0.1019 -0.0177
12515SOL    HW138115   6.259   6.674   0.784 -0.6321  0.7778 -0.7801
12515SOL    HW238116   6.231   6.763   0.903 -0.8039  1.1201 -1.0712
12516SOL     OW38117   6.612   5.122   6.578 -0.3608 -0.4285 -0.3221
12516SOL    HW138118   6.530   5.087   6.544 -1.2584 -0.0508  1.3474
12516SOL    HW238119   6.639   5.059   6.645 -2.1619  1.9335  2.9611
12517SOL     OW38120   4.825   2.874   3.978 -0.2488 -0.3312  0.3992
12517SOL    HW138121   4.740   2.833   3.989 -0.6840  0.0271 -1.3933
12517SOL    HW238122   4.816   2.961   4.017 -1.1774  0.2337 -0.9890
12518SOL     OW38123   4.889   6.109   3.073 -0.2837 -0.5111 -0.0546
12518SOL    HW138124   4.944   6.040   3.112  0.1940  1.0034  2.1438
12518SOL    HW238125   4.806   6.066   3.055  0.3343 -1.9042  0.2640
12519SOL     OW38126   2.805   2.467   2.984  0.2444 -0.0283  0.0216
12519SOL    HW138127   2.842   2.553   3.000  0.3674 -0.4466  2.2979
12519SOL    HW238128   2.864   2.426   2.921 -0.6214  2.0155 -2.2774
12520SOL     OW38129   2.749   5.914   3.186  0.1725 -0.3288 -0.3202
12520SOL    HW138130   2.727   6.007   3.178  0.0018 -0.5139 -3.2974
12520SOL    HW238131   2.843   5.910   3.170  0.1732 -0.6454 -0.2358
12521SOL     OW38132   4.920   6.530   0.804 -0.7500  0.1688  0.1926
12521SOL    HW138133   4.851   6.594   0.785 -1.0775 -0.1013  0.4438
12521SOL    HW238134   4.934   6.485   0.721  1.5414  2.4801 -0.7849
12522SOL     OW38135   2.558   0.961   2.584 -0.1343 -0.0388 -0.3841
12522SOL    HW138136   2.587   0.938   2.496 -0.2548 -1.2094 -0.1326
12522SOL    HW238137   2.476   0.913   2.595 -0.1602  0.1634  0.3370
12523SOL     OW38138   0.000   7.301   7.389 -0.1520  0.4232  0.1335
12523SOL    HW138139   0.092   7.300   7.361 -0.8065 -0.7221 -2.2736
12523SOL    HW238140  -0.004   7.236   7.459  0.9375  0.7090  0.4821
12524SOL     OW38141   6.036   6.124   5.333 -0.6421 -0.3812  0.2865
12524SOL    HW138142   6.108   6.076   5.374 -0.5331 -1.9326 -1.5689
12524SOL    HW238143   6.055   6.216   5.351  0.6290 -0.8613  1.6366
12525SOL     OW38144   5.832   6.319   6.486 -0.3230  0.0119 -0.1249
12525SOL    HW138145   5.754   6.373   6.493  0.7409  1.5521  0.2414
12525SOL    HW238146   5.868   6.317   6.575  0.1205 -0.5892 -0.3081
12526SOL     OW38147   3.325   0.106   4.279 -0.2478 -0.4403  0.3681
12526SOL    HW138148   3.389   0.093   4.209  0.0135  0.8559  0.3235
12526SOL    HW238149   3.321   0.202   4.289 -0.2987 -0.5899  2.0959
12527SOL     OW38150   5.447   0.839   1.889  0.3239  0.4371 -0.3414
12527SOL    HW138151   5.501   0.776   1.842 -0.9273 -1.5736  0.7594
12527SOL    HW238152   5.362   0.836   1.845 -0.0188  0.6660  0.2923
12528SOL     OW38153   6.136   4.517   4.116  0.2878 -0.1536  0.3367
12528SOL    HW138154   6.087   4.440   4.145 -1.7276  1.3435  1.0606
12528SOL    HW238155   6.211   4.522   4.176  0.5518 -1.6201  0.1608
12529SOL     OW38156   6.172   2.331   2.751  0.3541  0.1619 -0.1584
12529SOL    HW138157   6.179   2.396   2.681  0.6951  0.8113  0.4690
12529SOL    HW238158   6.224   2.367   2.823 -0.7945 -0.0243  0.7861
12530SOL     OW38159   5.082   6.041   6.862  0.3898 -0.7735 -0.3380
12530SOL    HW138160   5.059   6.124   6.904 -0.1550 -0.8202 -0.5347
12530SOL    HW238161   5.019   5.978   6.899  1.7342 -1.4225  0.9418
12531SOL     OW38162   2.123   0.117   1.501 -0.1124  0.1742 -0.1472
12531SOL    HW138163   2.204   0.076   1.470 -0.7831  0.0738 -1.9219
12531SOL    HW238164   2.137   0.131   1.595  0.9054 -2.3067  0.1383
12532SOL     OW38165   4.832   0.506   4.098  0.0391 -0.3932  0.4020
12532SOL    HW138166   4.897   0.480   4.163 -1.2499  0.0949  1.9639
12532SOL    HW238167   4.883   0.521   4.018  1.6758 -1.0998  1.2576
12533SOL     OW38168   1.417   6.509   6.807 -0.2964  0.5661 -0.3036
12533SOL    HW138169   1.432   6.414   6.805  0.3702  0.6873 -1.3966
12533SOL    HW238170   1.349   6.520   6.874  0.5843 -0.5370  0.8344
12534SOL     OW38171   2.569   4.924   5.591  0.2241 -0.1281 -0.0921
12534SOL    HW138172   2.632   4.984   5.551 -0.6451 -0.0726 -1.4556
12534SOL    HW238173   2.566   4.849   5.531 -0.9477 -0.1457 -0.0414
12535SOL     OW38174   3.443   6.171   0.969  0.1854  0.6591  0.8345
12535SOL    HW138175   3.515   6.157   1.030  0.2283  2.6871  1.3115
12535SOL    HW238176   3.471   6.128   0.888  1.2088  0.0521  1.4855
12536SOL     OW38177   7.380   4.678   3.337 -0.3286 -0.9620 -0.6595
12536SOL    HW138178   7.424   4.689   3.253  0.9443 -2.5625 -0.2725
12536SOL    HW238179   7.327   4.599   3.327 -0.5847 -0.8651 -0.1182
12537SOL     OW38180   6.581   2.461   3.826  0.2220  0.0312 -0.0617
12537SOL    HW138181   6.564   2.436   3.736  0.2637  0.3273 -0.1513
12537SOL    HW238182   6.559   2.383   3.877 -2.9180  0.8240 -0.0025
12538SOL     OW38183   5.645   6.186   3.137  0.4136 -0.3792  0.4654
12538SOL    HW138184   5.683   6.226   3.215 -0.1157 -1.6757  1.4172
12538SOL    HW238185   5.698   6.108   3.121  1.9376  0.9971 -1.8389
12539SOL     OW38186   5.995   6.665   7.067 -0.3600 -0.0066 -0.0163
12539SOL    HW138187   6.008   6.667   6.972  0.2355  2.8833  0.0506
12539SOL    HW238188   5.932   6.593   7.081 -0.3901 -0.5646 -2.5503
12540SOL     OW38189   2.545   6.898   4.904 -0.1126  0.3260 -0.7323
12540SOL    HW138190   2.508   6.816   4.871 -0.1697  0.8444 -2.0042
12540SOL    HW238191   2.469   6.955   4.915  0.2714  1.9585 -4.9263
12541SOL     OW38192   6.954   2.025   3.259  0.8778  0.2337 -0.2593
12541SOL    HW138193   6.911   2.086   3.319  0.0434 -0.1907 -0.4251
12541SOL    HW238194   7.001   2.081   3.197  1.9437  0.6874  0.9030
12542SOL     OW38195   1.348   2.187   5.824  0.6541  0.1800 -0.1624
12542SOL    HW138196   1.292   2.149   5.757  0.8542 -0.4952  0.0382
12542SOL    HW238197   1.301   2.173   5.906  2.4953 -3.4385  0.4679
12543SOL     OW38198   3.698   5.310   4.046 -0.1042  0.1260  0.0808
12543SOL    HW138199   3.660   5.292   3.960  1.2311  0.9535 -0.7122
12543SOL    HW238200   3.755   5.235   4.064 -2.0797 -1.1692  1.3197
12544SOL     OW38201   4.580   1.055   0.529  0.1839  0.1512 -0.2834
12544SOL    HW138202   4.501   1.046   0.582 -0.4627  1.0373 -1.0622
12544SOL    HW238203   4.617   1.139   0.554 -0.0411  0.5040 -1.1123
12545SOL     OW38204   6.978   1.815   6.187  0.4179  0.2820 -0.4108
12545SOL    HW138205   6.967   1.755   6.113 -0.1163 -0.0300 -0.0902
12545SOL    HW238206   7.053   1.870   6.163 -0.1418  0.6129 -1.4668
12546SOL     OW38207   6.893   0.804   0.886  0.3310  0.1667 -0.3878
12546SOL    HW138208   6.864   0.718   0.853  0.2992 -0.6640  1.6595
12546SOL    HW238209   6.814   0.843   0.923  0.4254  0.9529 -0.9907
12547SOL     OW38210   0.986   2.061   5.005 -0.4677  0.4495 -0.1976
12547SOL    HW138211   1.008   2.145   4.966  1.2872 -0.5150 -1.4214
12547SOL    HW238212   0.894   2.047   4.982 -0.1316  1.0010 -1.9948
12548SOL     OW38213   6.212   4.504   5.983 -0.6727 -0.1161  0.4485
12548SOL    HW138214   6.302   4.482   6.008 -1.0852 -1.4391  0.9009
12548SOL    HW238215   6.198   4.592   6.017  0.8343  0.6015 -0.7011
12549SOL     OW38216   3.732   2.447   3.760 -0.2805  0.2417  0.5061
12549SOL    HW138217   3.812   2.477   3.804 -1.4567  3.3390  0.7486
12549SOL    HW238218   3.672   2.427   3.832 -1.3593  2.8996  0.4586
12550SOL     OW38219   0.869   6.500   4.302  0.3251  0.1843  0.0034
12550SOL    HW138220   0.918   6.488   4.221  2.2011  1.4757  0.8829
12550SOL    HW238221   0.922   6.458   4.370 -0.7743 -0.1041  0.7254
12551SOL     OW38222   1.494   3.373   4.088  0.1514 -0.0802 -0.2449
12551SOL    HW138223   1.478   3.398   3.997  0.5437  1.5890  0.1155
12551SOL    HW238224   1.410   3.338   4.119 -0.2591  0.2588 -0.9634
12552SOL     OW38225   3.349   0.456   4.608  0.4157 -0.0115 -0.1901
12552SOL    HW138226   3.403   0.412   4.543  1.0595  1.5199 -0.7381
12552SOL    HW238227   3.281   0.501   4.557 -2.8567 -3.5873  0.5613
12553SOL     OW38228   6.817   2.820   7.365 -0.1148  0.4185  0.1525
12553SOL    HW138229   6.732   2.777   7.380  0.2046 -0.3467 -0.1567
12553SOL    HW238230   6.880   2.761   7.406  0.5129 -0.3451 -1.8067
12554SOL     OW38231   0.098   2.148   4.341  0.1465  0.5502 -0.2797
12554SOL    HW138232   0.057   2.232   4.320  0.7596  1.0879  0.5832
12554SOL    HW238233   0.102   2.147   4.437 -0.9144 -0.9989 -0.2233
12555SOL     OW38234   0.542   0.320   4.013  1.3295 -0.0777 -0.0951
12555SOL    HW138235   0.631   0.355   4.017  1.5419 -0.5629 -0.4238
12555SOL    HW238236   0.515   0.337   3.922  1.2918 -0.4167 -0.1468
12556SOL     OW38237   6.024   3.605   3.203 -0.1408 -0.1044 -0.2262
12556SOL    HW138238   6.086   3.646   3.143  0.4061  0.4498  0.6963
12556SOL    HW238239   6.070   3.600   3.286 -0.4669 -1.9268 -0.1064
12557SOL     OW38240   5.666   3.168   1.584 -0.8446  0.0511 -0.0935
12557SOL    HW138241   5.628   3.230   1.645  1.4588 -0.4582  2.0057
12557SOL    HW238242   5.664   3.084   1.630  0.9460 -0.3582 -0.6821
12558SOL     OW38243   1.245   2.648   0.678 -0.2384  0.1634 -0.8647
12558SOL    HW138244   1.332   2.648   0.719 -0.3171  1.0702 -0.6727
12558SOL    HW238245   1.238   2.562   0.638 -0.5766 -1.1866  1.8816
12559SOL     OW38246   5.145   0.313   4.586 -0.3641  0.1118 -0.9032
12559SOL    HW138247   5.060   0.293   4.626  0.6621 -1.7005  0.5083
12559SOL    HW238248   5.163   0.238   4.529  0.2566  0.5068 -1.2394
12560SOL     OW38249   0.821   3.317   6.291 -0.1456 -0.8766 -0.2649
12560SOL    HW138250   0.824   3.244   6.228  0.9911 -0.2235 -1.0158
12560SOL    HW238251   0.760   3.288   6.358  0.8738 -2.8940 -0.1095
12561SOL     OW38252   3.143   5.365   5.147  0.1570  0.2297 -0.9359
12561SOL    HW138253   3.188   5.409   5.219 -0.4958  0.5990 -0.7479
12561SOL    HW238254   3.132   5.432   5.080 -1.5042  0.5835 -0.3544
12562SOL     OW38255   2.979   5.001   0.900 -0.2087 -0.4873 -0.9757
12562SOL    HW138256   2.927   4.955   0.966 -0.2281 -0.0271 -0.6697
12562SOL    HW238257   2.971   4.947   0.822 -0.3949 -0.9039 -0.6746
12563SOL     OW38258   1.227   5.898   4.855 -0.6974  0.1099 -0.1556
12563SOL    HW138259   1.294   5.938   4.799 -2.5315  4.5171  0.3503
12563SOL    HW238260   1.258   5.912   4.944 -0.6936 -1.1401  0.0568
12564SOL     OW38261   5.715   0.239   5.973 -0.0297 -0.0880 -0.2731
12564SOL    HW138262   5.642   0.290   6.008 -0.0077 -1.6949  2.3871
12564SOL    HW238263   5.783   0.304   5.955 -1.1988  1.1581 -0.3855
12565SOL     OW38264   5.734   6.511   5.814 -0.5255  0.3862 -0.1480
12565SOL    HW138265   5.748   6.448   5.884 -1.9655  0.0638 -0.1292
12565SOL    HW238266   5.662   6.566   5.844 -1.0272  0.3746 -1.2815
12566SOL     OW38267   4.452   0.687   2.563  0.2754  0.5166  0.2389
12566SOL    HW138268   4.437   0.648   2.649  0.0108 -0.4904 -0.2498
12566SOL    HW238269   4.543   0.668   2.543 -0.0174 -0.3931 -0.2606
12567SOL     OW38270   5.130   6.616   1.909  0.0688 -0.3012  0.5248
12567SOL    HW138271   5.134   6.539   1.966  1.0910  0.0037  0.8814
12567SOL    HW238272   5.114   6.689   1.969  0.3619 -0.0759  0.3317
12568SOL     OW38273   2.156   6.747   3.211  0.2394 -0.2213  0.1261
12568SOL    HW138274   2.080   6.785   3.254 -1.4943 -2.9553 -0.2599
12568SOL    HW238275   2.147   6.771   3.119 -0.3258 -0.7337  0.0415
12569SOL     OW38276   4.341   1.431   3.322  0.5411 -0.2819 -0.7065
12569SOL    HW138277   4.371   1.476   3.400  0.3073 -1.1851 -0.0778
12569SOL    HW238278   4.288   1.495   3.275  1.5944  0.6152 -0.6929
12570SOL     OW38279   3.472   6.269   5.253  0.1567 -0.3670  0.0835
12570SOL    HW138280   3.411   6.222   5.310  2.0025 -1.2110  1.4753
12570SOL    HW238281   3.417   6.308   5.186 -1.8110 -1.7732  0.7851
12571SOL     OW38282   0.416   3.026   2.054 -0.1379 -0.1827  0.5158
12571SOL    HW138283   0.322   3.041   2.067 -0.2642  1.6495 -1.7268
12571SOL    HW238284   0.435   3.070   1.970  3.1522  1.5146  1.9725
12572SOL     OW38285   3.652   0.552   6.960 -0.1392 -0.2567 -0.7748
12572SOL    HW138286   3.590   0.590   6.898  0.4029 -0.6686 -1.5921
12572SOL    HW238287   3.602   0.538   7.040 -0.3719  2.1411 -0.4446
12573SOL     OW38288   1.431   5.364   5.071 -0.1772 -0.6713  0.0683
12573SOL    HW138289   1.383   5.300   5.122  0.6515 -1.6899 -0.3912
12573SOL    HW238290   1.367   5.433   5.052 -1.1447 -1.4619  0.3834
12574SOL     OW38291   6.106   2.699   6.786 -0.0113  0.3863 -0.3014
12574SOL    HW138292   6.145   2.733   6.706 -0.8500  1.3250 -0.3260
12574SOL    HW238293   6.031   2.647   6.756 -1.5779  2.3990 -0.0950
12575SOL     OW38294   1.490   1.625   2.686 -0.0249  0.3119 -0.5227
12575SOL    HW138295   1.522   1.540   2.656  0.4030  0.5312 -0.7013
12575SOL    HW238296   1.403   1.607   2.721 -0.1655 -0.1042 -1.0638
12576SOL     OW38297   2.335   4.995   3.053  0.4007 -0.3119 -0.3322
12576SOL    HW138298   2.418   4.969   3.092 -0.5062 -3.0514 -0.0674
12576SOL    HW238299   2.271   4.935   3.089 -1.4409  0.6718 -1.7902
12577SOL     OW38300   3.464   1.016   3.811 -0.0863  0.3606  0.6642
12577SOL    HW138301   3.510   1.080   3.757 -0.8212  1.4083  1.2670
12577SOL    HW238302   3.500   0.931   3.782  0.0040  0.9295 -1.0066
12578SOL     OW38303   5.606   3.114   5.872  0.2927 -0.1262 -0.1841
12578SOL    HW138304   5.649   3.030   5.887 -1.0384 -0.9840 -0.9156
12578SOL    HW238305   5.660   3.157   5.806 -0.0152 -1.2649 -1.2225
12579SOL     OW38306   6.246   1.940   1.486 -0.3326 -0.1475  0.7168
12579SOL    HW138307   6.293   1.861   1.458  0.3407 -0.0287  1.4613
12579SOL    HW238308   6.259   2.002   1.415  0.9306 -0.0096  1.0407
12580SOL     OW38309   2.431   4.242   2.828  0.2124 -0.2417  0.8146
12580SOL    HW138310   2.516   4.204   2.806 -0.1737  0.0144 -1.3609
12580SOL    HW238311   2.445   4.337   2.824 -0.2168 -0.2005  0.2200
12581SOL     OW38312   1.151   6.772   4.023 -0.4050 -0.0466  0.7950
12581SOL    HW138313   1.174   6.693   4.071  1.4444 -0.7732 -1.0881
12581SOL    HW238314   1.234   6.821   4.016 -0.2233 -0.5552 -2.4941
12582SOL     OW38315   4.428   5.547   3.579 -0.8230  0.2288 -0.6800
12582SOL    HW138316   4.492   5.577   3.515 -2.0818  0.1567 -2.0220
12582SOL    HW238317   4.382   5.626   3.606 -0.3304  0.2511  0.1147
12583SOL     OW38318   3.154   6.986   0.376  0.1967  0.1781 -0.1145
12583SOL    HW138319   3.065   7.014   0.396  0.1973  0.4000 -0.4024
12583SOL    HW238320   3.148   6.892   0.364  0.1094  0.1088  0.4413
12584SOL     OW38321   5.993   1.814   3.109 -0.0007  0.0399 -0.2501
12584SOL    HW138322   5.932   1.846   3.175  0.2856  1.0704 -0.4689
12584SOL    HW238323   5.952   1.734   3.075 -0.6841  0.1152  0.3801
12585SOL     OW38324   2.882   6.962   3.560 -0.1936  0.1115 -0.5720
12585SOL    HW138325   2.881   6.995   3.649  2.4248 -1.4184  0.1422
12585SOL    HW238326   2.974   6.940   3.544 -0.7350 -0.5059 -3.3309
12586SOL     OW38327   4.814   2.302   6.658 -0.1760 -0.4619 -0.3093
12586SOL    HW138328   4.845   2.334   6.743  0.9540 -1.9294 -0.1253
12586SOL    HW238329   4.722   2.281   6.672  0.2211 -1.5352  0.8316
12587SOL     OW38330   4.369   6.147   3.914 -0.3090  0.1530  0.0928
12587SOL    HW138331   4.389   6.054   3.901  1.2297 -0.0218  2.8914
12587SOL    HW238332   4.287   6.147   3.963  1.1667  0.0081  2.7436
12588SOL     OW38333   2.488   6.733   0.018  0.4361 -0.1406 -0.7848
12588SOL    HW138334   2.575   6.723   0.057  0.5293 -0.7883 -1.1488
12588SOL    HW238335   2.428   6.734   0.093  0.6734 -0.6426 -0.5881
12589SOL     OW38336   3.976   7.019   4.545 -0.3715 -0.0844  0.7768
12589SOL    HW138337   3.905   6.985   4.490 -0.2276 -0.2246  0.6756
12589SOL    HW238338   4.037   6.945   4.553 -0.2556  0.0241  0.8919
12590SOL     OW38339   2.945   3.993   3.894 -0.0762 -0.1231  0.3251
12590SOL    HW138340   2.882   3.994   3.965 -1.2123 -2.8360 -0.5474
12590SOL    HW238341   2.993   3.911   3.904  2.5953  1.2902  0.2606
12591SOL     OW38342   2.230   5.194   2.060  0.0559  0.3071 -0.1044
12591SOL    HW138343   2.261   5.163   1.975 -0.3294  0.0920 -0.1704
12591SOL    HW238344   2.230   5.289   2.052 -2.7365  0.3178 -1.3986
12592SOL     OW38345   3.240   3.324   4.877 -0.1125  0.6633 -0.0240
12592SOL    HW138346   3.206   3.374   4.803  0.8387  1.7215  0.2165
12592SOL    HW238347   3.192   3.357   4.953 -1.2640 -0.5962 -0.1689
12593SOL     OW38348   5.834   4.053   5.330  0.5272  0.7398 -0.2367
12593SOL    HW138349   5.805   4.121   5.268  1.5195  0.4281 -1.0667
12593SOL    HW238350   5.913   4.017   5.290  1.4668  0.8506  1.4502
12594SOL     OW38351   6.048   5.674   2.755  0.2984 -0.1465 -1.0736
12594SOL    HW138352   6.072   5.598   2.809 -1.2709 -0.1895 -0.3761
12594SOL    HW238353   6.020   5.636   2.672 -0.4245 -0.3331 -0.7480
12595SOL     OW38354   1.878   1.690   3.136  0.2458 -0.9857  0.5264
12595SOL    HW138355   1.973   1.697   3.123  0.2711  1.8062  1.4843
12595SOL    HW238356   1.860   1.749   3.209 -2.6538  1.4993 -1.8924
12596SOL     OW38357   3.213   5.391   0.374  0.0972 -0.1196 -0.7544
12596SOL    HW138358   3.182   5.315   0.424 -0.1457 -0.4311 -1.3670
12596SOL    HW238359   3.285   5.426   0.426 -0.2979 -0.2992 -0.0757
12597SOL     OW38360   3.343   2.291   1.946  0.3778  0.8168 -0.2834
12597SOL    HW138361   3.355   2.362   1.883 -0.3783  1.9835  0.8221
12597SOL    HW238362   3.284   2.328   2.012 -1.5815 -1.4512 -0.6107
12598SOL     OW38363   0.560   2.015   5.497 -0.0130 -0.4170 -0.0226
12598SOL    HW138364   0.567   1.947   5.564  0.2937  0.3009  0.6857
12598SOL    HW238365   0.614   2.087   5.529 -0.6095  0.3090 -0.5879
12599SOL     OW38366   1.185   7.019   1.347 -0.4805  0.1363 -0.6329
12599SOL    HW138367   1.133   6.967   1.408 -1.7921 -1.5129 -2.9826
12599SOL    HW238368   1.164   7.109   1.368 -0.1709 -0.3226  1.8900
12600SOL     OW38369   6.672   1.792   4.016 -0.4976  1.1639 -0.4048
12600SOL    HW138370   6.662   1.759   4.105 -1.0878  2.1957 -0.0690
12600SOL    HW238371   6.651   1.718   3.959  0.0315  0.4537  0.3077
12601SOL     OW38372   2.681   4.217   0.392 -0.1244  0.3094 -0.2484
12601SOL    HW138373   2.753   4.166   0.353  0.8890  1.2498  0.3314
12601SOL    HW238374   2.643   4.264   0.318 -0.2737 -0.3332 -0.5911
12602SOL     OW38375   0.209   1.818   0.050  0.1829  0.1338  0.1510
12602SOL    HW138376   0.293   1.788   0.016 -0.2596  1.1761 -2.0348
12602SOL    HW238377   0.165   1.737   0.078  1.3966 -0.5626  0.1379
12603SOL     OW38378   5.410   2.050   3.462 -0.0782  0.2429  0.4313
12603SOL    HW138379   5.410   2.137   3.502 -3.4066  1.7803 -2.3854
12603SOL    HW238380   5.474   2.056   3.391  1.9723 -0.7853  2.0627
12604SOL     OW38381   2.989   2.868   6.264 -0.1585  0.0683  0.3645
12604SOL    HW138382   3.008   2.892   6.354 -1.0705  1.6403  0.1842
12604SOL    HW238383   3.029   2.937   6.212  1.2633 -1.3721 -0.5348
12605SOL     OW38384   6.826   3.773   2.014  0.2155  0.0652 -0.1988
12605SOL    HW138385   6.777   3.697   2.044  0.0728  0.5302  0.7503
12605SOL    HW238386   6.796   3.787   1.924 -0.6809 -0.2387  0.0469
12606SOL     OW38387   4.907   0.236   2.196  0.1286  0.0231  0.2315
12606SOL    HW138388   4.971   0.232   2.267  0.0141 -0.4465  0.3105
12606SOL    HW238389   4.823   0.246   2.240  0.2099  1.5157  0.1053
12607SOL     OW38390   6.904   1.939   0.975 -0.9026 -0.2114  0.0889
12607SOL    HW138391   6.911   1.849   0.946 -1.3751  0.6709 -3.1163
12607SOL    HW238392   6.932   1.937   1.067 -0.3701 -3.4729 -0.0359
12608SOL     OW38393   5.322   6.764   4.244  0.0741 -0.6008  0.6022
12608SOL    HW138394   5.245   6.803   4.288  0.9087 -1.1312  2.6741
12608SOL    HW238395   5.322   6.673   4.273 -0.2999 -1.5034 -1.9954
12609SOL     OW38396   1.770   6.546   3.130 -0.1030  0.3977 -0.2739
12609SOL    HW138397   1.850   6.558   3.182 -0.6771  0.7548  0.5460
12609SOL    HW238398   1.700   6.544   3.195 -0.9183  1.6079 -1.0825
12610SOL     OW38399   0.330   3.003   4.477  0.2874  0.0292  0.3562
12610SOL    HW138400   0.421   2.980   4.493 -0.2564 -2.2755  0.3988
12610SOL    HW238401   0.331   3.099   4.469  3.1023 -0.0701 -2.2432
12611SOL     OW38402   3.372   5.344   4.880 -0.0862  0.3428 -0.8343
12611SOL    HW138403   3.352   5.306   4.966  0.8244 -1.3124 -1.3124
12611SOL    HW238404   3.371   5.439   4.895  2.0131  0.0911  1.5070
12612SOL     OW38405   1.006   2.238   2.854 -0.1357 -0.0594  0.5276
12612SOL    HW138406   1.070   2.201   2.794 -0.3178 -0.8218  0.7957
12612SOL    HW238407   0.922   2.205   2.824 -0.5014  1.4573 -0.2156
12613SOL     OW38408   0.918   3.402   2.420 -0.4956 -0.1145 -0.2659
12613SOL    HW138409   0.984   3.434   2.481 -0.0236  0.3159 -0.9903
12613SOL    HW238410   0.856   3.354   2.475 -0.4560  0.8395  0.6501
12614SOL     OW38411   5.487   3.957   6.724  0.7871 -0.2537  0.2292
12614SOL    HW138412   5.567   3.919   6.759  0.3290 -1.4760 -0.0038
12614SOL    HW238413   5.512   3.987   6.636  1.1690  0.0197  0.4311
12615SOL     OW38414   0.762   4.147   5.029  0.0410  0.0480  0.5083
12615SOL    HW138415   0.828   4.214   5.010  0.7011 -0.8015 -0.2916
12615SOL    HW238416   0.797   4.100   5.105 -1.7519  2.3132  2.9172
12616SOL     OW38417   4.874   2.326   2.670  0.1537  0.4258 -0.7690
12616SOL    HW138418   4.914   2.372   2.744  0.6454 -2.5412  0.9508
12616SOL    HW238419   4.947   2.278   2.629 -0.7355 -0.8853 -0.8689
12617SOL     OW38420   1.312   1.958   5.316  0.4055  1.0195  0.0073
12617SOL    HW138421   1.336   1.936   5.406  1.7610  0.8148 -0.3791
12617SOL    HW238422   1.265   2.041   5.324 -2.7858 -0.7352  1.2525
12618SOL     OW38423   0.755   1.656   5.858 -0.7348 -0.1828 -0.3299
12618SOL    HW138424   0.758   1.746   5.890 -1.3673 -0.0753 -0.5587
12618SOL    HW238425   0.821   1.609   5.910  0.1987  0.5887 -0.7895
12619SOL     OW38426   1.385   3.957   3.199  0.6958  0.2683 -0.3711
12619SOL    HW138427   1.460   3.947   3.258  0.8757  1.3579 -0.3996
12619SOL    HW238428   1.404   3.899   3.126  1.5381  0.5626 -0.3953
12620SOL     OW38429   7.160   0.612   0.710  0.0394 -0.4552 -0.8821
12620SOL    HW138430   7.190   0.652   0.791  1.8318  0.2060 -1.8173
12620SOL    HW238431   7.234   0.558   0.681 -0.1094  0.2283 -2.6515
12621SOL     OW38432   5.747   6.869   7.046  0.5231 -0.3071  0.0202
12621SOL    HW138433   5.771   6.932   6.979  1.1825 -1.6505 -1.0736
12621SOL    HW238434   5.802   6.891   7.121  1.4080 -0.1335 -0.6634
12622SOL     OW38435   3.651   2.499   3.024  0.1088 -0.5276 -0.6890
12622SOL    HW138436   3.574   2.492   2.968 -0.4740 -0.8164  0.1288
12622SOL    HW238437   3.618   2.486   3.112  1.2611 -1.7620 -0.4116
12623SOL     OW38438   4.244   1.766   6.406  0.0645 -0.9995 -0.1876
12623SOL    HW138439   4.332   1.798   6.428 -0.4197 -0.5627  1.2427
12623SOL    HW238440   4.190   1.845   6.400 -0.2778 -1.2750 -0.8813
12624SOL     OW38441   5.535   0.284   4.565  0.2453 -0.2735 -0.0700
12624SOL    HW138442   5.516   0.376   4.545  0.4075 -0.3571 -0.6344
12624SOL    HW238443   5.544   0.242   4.479  0.2571 -0.7986  0.1837
12625SOL     OW38444   6.681   0.314   6.133 -0.0652 -0.3296 -0.6809
12625SOL    HW138445   6.646   0.237   6.179  0.8641 -0.9330 -0.9772
12625SOL    HW238446   6.694   0.284   6.043 -1.1298  0.6271 -1.1795
12626SOL     OW38447   5.904   3.330   7.303 -0.2537 -0.1672 -0.2711
12626SOL    HW138448   5.990   3.289   7.292  0.0503  0.8619 -2.0183
12626SOL    HW238449   5.921   3.406   7.360 -0.2153 -0.5339  0.2198
12627SOL     OW38450   2.991   6.969   4.657 -0.1407  0.1379 -0.0401
12627SOL    HW138451   2.930   6.984   4.729 -1.1061  1.3223 -1.0619
12627SOL    HW238452   2.943   6.997   4.579  0.4265 -2.1821 -1.3271
12628SOL     OW38453   4.145   0.153   6.129 -0.2185 -0.3785  0.4747
12628SOL    HW138454   4.158   0.101   6.049  0.2382  0.2118  0.1642
12628SOL    HW238455   4.051   0.169   6.131 -0.0723  0.7673 -0.6891
12629SOL     OW38456   2.358   0.818   0.641  0.3669  0.1345  0.2453
12629SOL    HW138457   2.388   0.742   0.690 -0.2032 -0.6034 -0.5284
12629SOL    HW238458   2.325   0.878   0.708  1.1390 -0.1403  0.8925
12630SOL     OW38459   2.567   2.792   1.795  0.4698 -0.0665  0.1163
12630SOL    HW138460   2.473   2.783   1.783  0.5315  0.4252 -0.8022
12630SOL    HW238461   2.593   2.861   1.734  1.3201  0.2715  0.8385
12631SOL     OW38462   5.194   0.581   1.570 -0.2865 -0.2170 -0.1062
12631SOL    HW138463   5.287   0.563   1.558 -0.0956  0.4346  0.3530
12631SOL    HW238464   5.162   0.601   1.481 -0.0984 -0.9169 -0.3358
12632SOL     OW38465   3.892   3.983   6.124  0.0544 -0.7003 -0.1236
12632SOL    HW138466   3.974   3.978   6.174 -0.2279  1.4601  0.6604
12632SOL    HW238467   3.824   3.983   6.191 -0.4796 -0.4975 -0.6601
12633SOL     OW38468   6.407   2.901   3.949  0.1387  0.5330 -0.1547
12633SOL    HW138469   6.348   2.850   4.004  0.8600  0.2418  0.3719
12633SOL    HW238470   6.403   2.990   3.985 -3.1256  1.6123 -2.6547
12634SOL     OW38471   6.616   3.530   3.859  0.1020 -0.7024  0.1027
12634SOL    HW138472   6.686   3.465   3.861  0.3737 -0.3871  1.4993
12634SOL    HW238473   6.544   3.491   3.908 -0.4006 -0.6673 -0.5828
12635SOL     OW38474   5.230   6.415   6.770  0.3081  0.2399 -0.1466
12635SOL    HW138475   5.154   6.406   6.713 -1.8547  1.5369  2.3833
12635SOL    HW238476   5.296   6.358   6.729 -1.5035  0.0489 -3.1446
12636SOL     OW38477   0.143   2.767   5.910  0.2229  0.2927 -0.1192
12636SOL    HW138478   0.062   2.785   5.862 -0.6928  0.2384  1.3412
12636SOL    HW238479   0.138   2.824   5.987  0.3089 -1.5689  1.3290
12637SOL     OW38480   0.909   2.016   3.088 -0.5555 -0.1476  0.0274
12637SOL    HW138481   0.985   2.013   3.030 -1.8421 -1.8028 -1.7257
12637SOL    HW238482   0.879   2.106   3.083  1.0429  0.4300  0.4307
12638SOL     OW38483   6.310   6.734   5.147  0.4135  0.2431 -0.2231
12638SOL    HW138484   6.219   6.765   5.145  0.1507 -0.5306 -2.1893
12638SOL    HW238485   6.361   6.813   5.165 -0.4363  1.3901 -2.4593
12639SOL     OW38486   4.158   6.072   5.056  0.3654  0.5882  0.0316
12639SOL    HW138487   4.140   5.984   5.091  0.1702 -0.0867 -1.6416
12639SOL    HW238488   4.218   6.056   4.983  0.7968  1.9264  0.0707
12640SOL     OW38489   0.631   3.238   7.341  0.1546  0.3229 -0.0880
12640SOL    HW138490   0.563   3.291   7.383 -3.6389 -2.6596 -1.8371
12640SOL    HW238491   0.669   3.296   7.275 -2.9808  1.3992 -1.1628
12641SOL     OW38492   7.125   6.853   0.298  0.3087 -0.1142  0.2404
12641SOL    HW138493   7.037   6.886   0.278  1.0903  1.3994 -0.9818
12641SOL    HW238494   7.164   6.920   0.354  0.3527 -1.2900  1.6835
12642SOL     OW38495   1.624   2.166   6.515 -0.3928  0.3505  0.0355
12642SOL    HW138496   1.560   2.125   6.572 -1.4188  0.6058 -0.8994
12642SOL    HW238497   1.672   2.094   6.476 -3.1146 -0.1975 -2.6986
12643SOL     OW38498   5.235   1.702   1.558 -0.0337  0.1210  0.1118
12643SOL    HW138499   5.205   1.626   1.607 -1.0329 -0.3834 -1.2461
12643SOL    HW238500   5.172   1.771   1.580 -0.5332 -0.1301 -0.5288
12644SOL     OW38501   1.637   2.178   5.608  0.6087 -0.7756  0.3963
12644SOL    HW138502   1.660   2.213   5.694  0.6116 -0.6282  0.3352
12644SOL    HW238503   1.565   2.117   5.625 -1.1019  1.0996  0.1959
12645SOL     OW38504   7.384   2.243   2.937  0.3542  0.3866  0.0377
12645SOL    HW138505   7.402   2.337   2.943  0.9032  0.2738  0.2655
12645SOL    HW238506   7.462   2.206   2.895 -0.3743  0.1842 -1.2013
12646SOL     OW38507   6.996   1.000   2.877 -0.1946  0.6030 -0.9599
12646SOL    HW138508   6.907   0.971   2.897  0.1788  1.2976  2.2327
12646SOL    HW238509   6.985   1.063   2.805 -2.2912  0.7807 -0.5494
12647SOL     OW38510   7.193   5.514   4.525 -0.6134 -0.0647 -0.2977
12647SOL    HW138511   7.252   5.573   4.478 -0.4122 -0.4594 -0.5485
12647SOL    HW238512   7.142   5.471   4.457 -2.9667  2.0567  0.0052
12648SOL     OW38513   6.410   6.582   1.724 -0.2127 -0.0752 -0.1680
12648SOL    HW138514   6.467   6.512   1.757 -0.9273 -1.9469 -2.5808
12648SOL    HW238515   6.322   6.555   1.750 -0.3915  0.5790 -0.0812
12649SOL     OW38516   6.168   3.315   5.784  0.3964  0.0013  0.0925
12649SOL    HW138517   6.090   3.289   5.834  1.6730  0.5017  2.5036
12649SOL    HW238518   6.154   3.277   5.697 -1.2397 -2.3300  1.2529
12650SOL     OW38519   7.145   0.584   2.025  0.1636 -0.0884  0.0942
12650SOL    HW138520   7.207   0.517   1.996  1.0436  1.0239 -0.6907
12650SOL    HW238521   7.059   0.544   2.012  0.6570 -0.9615 -0.6334
12651SOL     OW38522   4.294   7.240   7.251  0.0272 -0.3623 -0.3927
12651SOL    HW138523   4.367   7.268   7.196  0.9182 -1.5128  0.1644
12651SOL    HW238524   4.308   7.285   7.334  0.3939 -0.9763 -0.1192
12652SOL     OW38525   5.238   2.884   0.398 -0.6176  0.4505  0.0488
12652SOL    HW138526   5.240   2.809   0.457 -0.5446  0.2208 -0.2404
12652SOL    HW238527   5.213   2.957   0.453 -0.9856  0.1579  0.2738
12653SOL     OW38528   2.100   6.609   6.693  0.3395  0.2512  0.2829
12653SOL    HW138529   2.037   6.580   6.760  0.0131  1.5377  0.5532
12653SOL    HW238530   2.150   6.530   6.672 -0.7609 -0.5922  0.7254
12654SOL     OW38531   2.383   0.578   0.259 -0.2851  0.5531 -0.1994
12654SOL    HW138532   2.391   0.485   0.239  0.6399  0.6937 -0.5472
12654SOL    HW238533   2.317   0.582   0.328  0.6502 -0.5143  0.8152
12655SOL     OW38534   2.381   5.762   2.834  0.3717  0.6202 -0.5263
12655SOL    HW138535   2.427   5.790   2.754 -0.5114  0.1629 -1.2177
12655SOL    HW238536   2.333   5.683   2.807  0.8599 -0.1223  0.7335
12656SOL     OW38537   4.785   4.178   6.487 -0.6616  0.1144  0.3242
12656SOL    HW138538   4.718   4.223   6.539 -1.6940 -2.7842  1.6938
12656SOL    HW238539   4.762   4.085   6.492  1.5147 -0.6819 -2.0779
12657SOL     OW38540   7.132   2.165   0.251 -0.5147 -0.6089  0.6120
12657SOL    HW138541   7.220   2.127   0.252 -0.1095  0.2319 -0.7823
12657SOL    HW238542   7.080   2.106   0.306  1.1703 -0.4472  2.5079
12658SOL     OW38543   2.869   4.585   5.076 -0.6221 -0.2122 -0.2092
12658SOL    HW138544   2.945   4.532   5.053 -0.2839  0.3344 -0.3679
12658SOL    HW238545   2.899   4.642   5.147 -1.2139 -0.7983  0.5219
12659SOL     OW38546   6.292   6.561   4.560 -0.2017 -0.2907  0.1012
12659SOL    HW138547   6.363   6.526   4.613  0.8506  1.1188 -0.3273
12659SOL    HW238548   6.214   6.554   4.616  0.7290  0.4498  1.5401
12660SOL     OW38549   6.277   0.589   3.269 -0.4816 -0.2857  0.0349
12660SOL    HW138550   6.222   0.531   3.322  0.2300 -0.3470  0.7255
12660SOL    HW238551   6.264   0.559   3.179 -1.9159 -0.0153  0.1320
12661SOL     OW38552   2.914   2.158   5.380  0.3476  0.0786 -0.1623
12661SOL    HW138553   2.971   2.224   5.420 -0.3984  0.3264  0.5280
12661SOL    HW238554   2.902   2.092   5.448  0.0960 -0.1448 -0.4227
12662SOL     OW38555   3.235   7.124   4.948  0.3388 -0.0885 -0.1138
12662SOL    HW138556   3.278   7.082   4.874 -1.9974 -1.5538 -0.7479
12662SOL    HW238557   3.284   7.093   5.025 -0.0455 -2.4210 -0.7324
12663SOL     OW38558   5.195   0.246   2.510 -0.5172 -0.8176 -0.2102
12663SOL    HW138559   5.287   0.271   2.515 -0.2148 -1.6517 -1.2266
12663SOL    HW238560   5.148   0.318   2.553  0.5526 -0.0650 -0.2694
12664SOL     OW38561   1.106   0.510   1.916  0.4595 -0.2428  0.1137
12664SOL    HW138562   1.020   0.521   1.957  0.0664 -0.7974 -0.5485
12664SOL    HW238563   1.167   0.507   1.990 -0.2239 -1.0982  0.6657
12665SOL     OW38564   0.563   5.604   2.072  0.0173 -0.3397  0.1048
12665SOL    HW138565   0.629   5.569   2.132 -0.4046 -0.4019  0.5404
12665SOL    HW238566   0.613   5.650   2.005  0.4740  2.7940  2.3451
12666SOL     OW38567   5.361   5.880   2.472  0.0356 -0.2041 -0.5217
12666SOL    HW138568   5.455   5.885   2.485 -0.0407 -0.0231  0.0016
12666SOL    HW238569   5.338   5.965   2.433 -0.4397  1.4753  2.9958
12667SOL     OW38570   6.437   5.192   7.240 -0.0155 -0.1859  0.1459
12667SOL    HW138571   6.341   5.184   7.233 -0.2959  2.6051 -0.2883
12667SOL    HW238572   6.455   5.283   7.217  2.7811 -0.6418  0.2240
12668SOL     OW38573   7.357   4.082   1.384 -0.0315  0.1015 -0.2535
12668SOL    HW138574   7.290   4.118   1.327 -0.5748  0.1453  0.4041
12668SOL    HW238575   7.439   4.093   1.335 -0.7140 -1.8896 -2.0062
12669SOL     OW38576   0.665   5.737   5.806  0.8157 -0.5403 -0.3077
12669SOL    HW138577   0.744   5.697   5.841  0.5144 -1.9534 -1.1684
12669SOL    HW238578   0.595   5.707   5.865  0.5214 -1.7502 -1.2141
12670SOL     OW38579   4.364   0.143   4.311 -0.3907 -0.2942 -0.4793
12670SOL    HW138580   4.453   0.156   4.279 -0.7490  0.2534 -1.2635
12670SOL    HW238581   4.328   0.072   4.257 -0.1655 -1.0871  0.3844
12671SOL     OW38582   1.527   3.710   0.429  0.4405 -0.3141 -0.0852
12671SOL    HW138583   1.475   3.630   0.439  1.1952 -1.3988 -3.4319
12671SOL    HW238584   1.608   3.680   0.389  0.9866  2.0797 -0.8872
12672SOL     OW38585   0.940   2.883   6.468  0.7120 -0.0826 -0.3548
12672SOL    HW138586   0.992   2.958   6.441 -0.6501  0.7336 -0.8369
12672SOL    HW238587   0.928   2.832   6.388  1.4716 -0.7266 -0.0683
12673SOL     OW38588   4.428   5.247   2.951  0.4524  1.0937  0.3709
12673SOL    HW138589   4.515   5.275   2.979  0.5218  1.8287 -0.5372
12673SOL    HW238590   4.444   5.194   2.873  0.2685 -1.0356  1.7141
12674SOL     OW38591   0.376   1.488   3.368  0.0670  0.0257  0.1638
12674SOL    HW138592   0.366   1.552   3.438 -0.6812 -2.2760  2.3042
12674SOL    HW238593   0.287   1.454   3.354  0.4230 -0.4958 -0.9974
12675SOL     OW38594   2.465   5.529   3.423 -0.6154  0.2986 -0.7086
12675SOL    HW138595   2.473   5.601   3.486  0.4225  0.6827 -1.2641
12675SOL    HW238596   2.373   5.502   3.430 -1.0062  1.6171 -0.4316
12676SOL     OW38597   7.179   2.301   5.474 -0.3490  0.1207  0.3523
12676SOL    HW138598   7.220   2.313   5.389  0.9067  1.8258  1.1577
12676SOL    HW238599   7.178   2.388   5.514 -1.0186 -0.6107  2.0421
12677SOL     OW38600   7.064   2.295   6.531 -0.3727  0.2757  0.7269
12677SOL    HW138601   7.097   2.299   6.441 -2.5093 -0.6532 -0.1818
12677SOL    HW238602   7.081   2.382   6.567 -0.1138  0.9027 -0.8327
12678SOL     OW38603   5.819   6.942   7.381  0.7307  0.3187  0.1009
12678SOL    HW138604   5.816   6.881   7.455 -0.0366 -0.6723 -0.7049
12678SOL    HW238605   5.897   6.916   7.332 -0.2942 -0.9354 -0.9496
12679SOL     OW38606   7.141   5.251   5.300 -0.5254 -0.0399 -0.4906
12679SOL    HW138607   7.197   5.229   5.225  0.3818  2.7266 -0.7410
12679SOL    HW238608   7.058   5.277   5.260 -0.5252  0.0451 -0.4350
12680SOL     OW38609   6.710   5.921   5.159  0.1912  0.4291 -0.0164
12680SOL    HW138610   6.719   5.999   5.214 -0.6100 -0.2797  1.1853
12680SOL    HW238611   6.788   5.869   5.179 -0.7552 -0.4665  1.5896
12681SOL     OW38612   1.662   1.152   3.213 -0.1540 -0.3275  0.2256
12681SOL    HW138613   1.622   1.211   3.277  0.1074  1.4834 -1.1842
12681SOL    HW238614   1.710   1.210   3.154  0.4920 -2.0216 -0.9865
12682SOL     OW38615   0.413   6.341   5.815 -0.5706 -0.1080 -0.6106
12682SOL    HW138616   0.357   6.348   5.893 -1.0532 -1.1437 -0.8434
12682SOL    HW238617   0.409   6.248   5.792  0.9274 -0.1234 -0.8821
12683SOL     OW38618   4.401   0.927   5.737 -0.1366 -0.0330 -0.0678
12683SOL    HW138619   4.409   1.022   5.738 -1.9072  0.1423  1.6177
12683SOL    HW238620   4.482   0.896   5.779 -0.6662  0.8784  1.7259
12684SOL     OW38621   1.831   5.198   6.358 -0.3848 -0.0808  0.3684
12684SOL    HW138622   1.766   5.265   6.337  1.1287  1.8524  1.4989
12684SOL    HW238623   1.793   5.117   6.324 -1.7962  1.4735 -2.1309
12685SOL     OW38624   1.674   2.445   5.023  0.2860  0.3667 -0.3587
12685SOL    HW138625   1.694   2.362   5.068  2.3496  0.6122 -0.7174
12685SOL    HW238626   1.614   2.490   5.082  0.4489 -0.6731  0.6485
12686SOL     OW38627   6.624   1.986   6.761  0.4529  0.3262  0.3818
12686SOL    HW138628   6.608   2.041   6.838 -0.0389  1.6026 -0.5858
12686SOL    HW238629   6.623   1.897   6.795 -2.0054  0.6943  1.5077
12687SOL     OW38630   7.312   0.653   3.760  0.5339 -0.1252  0.1625
12687SOL    HW138631   7.372   0.592   3.718 -1.5390 -2.0039 -0.2689
12687SOL    HW238632   7.308   0.728   3.701  1.1903 -0.7056 -0.6312
12688SOL     OW38633   3.582   5.977   1.973 -0.2620 -0.2793  0.0216
12688SOL    HW138634   3.600   5.892   1.933  0.4604 -0.8129  1.4093
12688SOL    HW238635   3.515   5.959   2.039 -1.3230  0.5531 -0.7923
12689SOL     OW38636   6.480   4.676   4.701  0.3917 -0.1729  0.0751
12689SOL    HW138637   6.563   4.664   4.747 -0.4241 -1.5498  1.2736
12689SOL    HW238638   6.448   4.761   4.731  0.8109 -0.1607  0.5009
12690SOL     OW38639   4.843   0.016   1.998  0.1657  0.2447 -0.0557
12690SOL    HW138640   4.853   0.071   2.076 -2.0918  1.1216 -0.3236
12690SOL    HW238641   4.902  -0.058   2.014  0.0795  0.5922  2.2990
12691SOL     OW38642   7.092   1.151   4.696 -0.2610  0.0410  0.7751
12691SOL    HW138643   7.071   1.223   4.637  0.9173  0.3952  0.7546
12691SOL    HW238644   7.168   1.108   4.656 -0.9940 -1.2868  0.7413
12692SOL     OW38645   3.823   1.019   2.243 -0.1149  0.0677  0.8055
12692SOL    HW138646   3.747   1.036   2.299  1.0836 -0.8391  2.7858
12692SOL    HW238647   3.837   1.101   2.196 -0.2393  1.4244  2.9970
12693SOL     OW38648   3.216   6.858   2.837  0.0019 -0.0839  0.2028
12693SOL    HW138649   3.211   6.867   2.742 -0.6475 -0.0702  0.2305
12693SOL    HW238650   3.210   6.947   2.870  3.0222  0.2078  0.1879
12694SOL     OW38651   1.832   2.266   7.275 -0.3162 -0.6282 -0.2397
12694SOL    HW138652   1.878   2.332   7.326  1.4684 -2.0025  0.0159
12694SOL    HW238653   1.756   2.312   7.239  1.1415  1.6974 -0.5411
12695SOL     OW38654   0.889   1.797   7.078  0.1049  0.0270 -0.3056
12695SOL    HW138655   0.840   1.760   7.005 -2.1738  2.1446 -0.0053
12695SOL    HW238656   0.941   1.724   7.113 -0.8277 -1.6880 -2.3187
12696SOL     OW38657   6.151   4.870   4.508  0.7530 -0.1050 -0.4617
12696SOL    HW138658   6.153   4.776   4.525  1.6526  0.0813  0.5616
12696SOL    HW238659   6.082   4.881   4.442  0.4167 -1.4340 -0.3578
12697SOL     OW38660   6.911   4.766   6.025 -0.2784  0.0532 -0.1764
12697SOL    HW138661   6.849   4.778   6.097  0.2339  0.9080  0.1370
12697SOL    HW238662   6.997   4.781   6.064  0.1526 -1.2461 -0.5764
12698SOL     OW38663   1.285   0.617   4.444  0.4262  0.2915 -0.7712
12698SOL    HW138664   1.314   0.642   4.531  2.5483  0.0356 -1.3564
12698SOL    HW238665   1.239   0.534   4.456  1.2029 -0.0278  0.0426
12699SOL     OW38666   4.021   7.257   0.714 -0.3260  0.5705 -0.0407
12699SOL    HW138667   4.009   7.224   0.803 -0.8643  0.9495  0.0313
12699SOL    HW238668   4.073   7.189   0.670 -1.1007 -0.1999  0.2039
12700SOL     OW38669   7.394   3.606   2.723 -0.1865  0.0387  0.6571
12700SOL    HW138670   7.438   3.526   2.696  0.7276  0.6067  0.4309
12700SOL    HW238671   7.463   3.661   2.759 -0.6063  1.1386 -0.1415
12701SOL     OW38672   0.918   0.033   2.832 -0.0782 -0.4140 -0.1419
12701SOL    HW138673   0.877   0.061   2.751  2.4282 -0.4406 -1.5122
12701SOL    HW238674   1.002   0.078   2.834  0.7928 -1.9631  1.4105
12702SOL     OW38675   4.697   1.251   5.109 -0.2262 -0.0323 -0.7261
12702SOL    HW138676   4.752   1.311   5.160 -1.0251  0.9193 -0.9600
12702SOL    HW238677   4.759   1.200   5.057  0.5942 -0.8378  0.9668
12703SOL     OW38678   1.649   5.644   0.985  0.0328  0.0883 -0.2087
12703SOL    HW138679   1.594   5.703   1.037  1.5775  1.2510  0.1661
12703SOL    HW238680   1.633   5.557   1.022 -1.8724  0.3207 -0.4132
12704SOL     OW38681   5.832   5.458   6.763  0.5785 -0.0666 -0.6561
12704SOL    HW138682   5.745   5.484   6.793  1.4605  1.5952  0.6096
12704SOL    HW238683   5.869   5.408   6.836  0.2713 -1.8771 -1.6745
12705SOL     OW38684   1.776   4.479   5.449  0.0204 -0.1880  0.5817
12705SOL    HW138685   1.858   4.457   5.492 -0.7226  1.4028  3.0098
12705SOL    HW238686   1.796   4.557   5.398  0.6881 -1.5692 -1.3784
12706SOL     OW38687   3.528   3.588   6.750  0.2716  0.2865 -0.3399
12706SOL    HW138688   3.451   3.550   6.791  0.4708 -0.0443 -0.2656
12706SOL    HW238689   3.564   3.517   6.695  1.0568  0.1213  0.3622
12707SOL     OW38690   5.848   2.648   6.244 -1.0044 -0.5149 -0.1271
12707SOL    HW138691   5.767   2.601   6.221 -0.9732 -0.1735 -0.9336
12707SOL    HW238692   5.845   2.728   6.192 -1.2814  0.6348  1.5658
12708SOL     OW38693   3.043   2.902   7.233 -0.2639  0.1981  0.0637
12708SOL    HW138694   3.096   2.981   7.224  1.4046 -0.9186 -0.2492
12708SOL    HW238695   3.073   2.844   7.163 -0.7649 -1.1028  0.8788
12709SOL     OW38696   0.744   3.639   2.030  0.0061  0.2968  0.1330
12709SOL    HW138697   0.768   3.631   1.937 -2.6209  1.2620 -0.7409
12709SOL    HW238698   0.764   3.554   2.067 -1.6228 -1.1964 -2.1125
12710SOL     OW38699   5.346   5.877   6.033 -0.0248 -0.1338  0.2341
12710SOL    HW138700   5.354   5.811   5.964  1.2641 -0.7257  0.9235
12710SOL    HW238701   5.405   5.947   6.004 -0.0634 -0.0508  0.3594
12711SOL     OW38702   5.719   6.132   2.512  0.2030  0.2400 -0.2094
12711SOL    HW138703   5.660   6.206   2.530 -0.4909 -0.4114  0.2677
12711SOL    HW238704   5.792   6.146   2.571 -0.0094  0.4548  0.0085
12712SOL     OW38705   0.998   5.498   0.748  0.1224  0.6998  0.2765
12712SOL    HW138706   0.999   5.453   0.663  2.9617 -0.7526  0.9580
12712SOL    HW238707   0.905   5.516   0.764 -0.6339 -0.1849 -2.4830
12713SOL     OW38708   6.444   5.205   5.922  0.4855 -0.3877  0.0558
12713SOL    HW138709   6.368   5.214   5.979 -0.4383  1.6981 -1.3697
12713SOL    HW238710   6.409   5.217   5.833  2.4819  0.9085 -0.6218
12714SOL     OW38711   5.765   4.167   0.702 -0.5696  0.0141 -0.3197
12714SOL    HW138712   5.701   4.122   0.756  0.0546 -0.7795 -0.2357
12714SOL    HW238713   5.829   4.203   0.764 -0.8107  0.6355 -0.4176
12715SOL     OW38714   6.509   4.742   5.820  0.5730 -0.2086  0.6204
12715SOL    HW138715   6.585   4.699   5.859  2.0091  1.6770  0.0666
12715SOL    HW238716   6.497   4.698   5.736  0.1828 -1.3872  1.2632
12716SOL     OW38717   1.011   6.138   1.098  0.3519  0.3097  0.1354
12716SOL    HW138718   0.919   6.110   1.095  0.1487  1.0774 -2.0564
12716SOL    HW238719   1.007   6.233   1.107  0.9016  0.4412 -0.9212
12717SOL     OW38720   1.668   7.439   2.568  0.4170 -0.2378 -0.1639
12717SOL    HW138721   1.656   7.375   2.638  2.1768 -0.2811  0.1377
12717SOL    HW238722   1.762   7.437   2.549  0.1866  0.7522 -1.5998
12718SOL     OW38723   5.156   1.567   0.968  0.6782 -0.8821 -0.2987
12718SOL    HW138724   5.189   1.478   0.976  0.4157 -1.0941 -1.4635
12718SOL    HW238725   5.161   1.587   0.875  0.4209  0.2038 -0.0990
12719SOL     OW38726   2.932   1.272   3.455  0.2922  0.0757  0.3841
12719SOL    HW138727   2.940   1.274   3.359  1.7655 -1.2880  0.4334
12719SOL    HW238728   3.023   1.277   3.486  0.0660 -2.2296  1.6120
12720SOL     OW38729   5.105   6.896   5.073  0.2870  0.3076  0.1042
12720SOL    HW138730   5.054   6.834   5.020  3.1746 -1.7158 -0.5364
12720SOL    HW238731   5.088   6.982   5.034 -0.8299 -0.5954 -1.4807
12721SOL     OW38732   1.379   0.945   7.357  0.2232  0.5514  0.1022
12721SOL    HW138733   1.308   0.992   7.400 -0.3638 -0.1531 -0.0809
12721SOL    HW238734   1.424   1.012   7.305 -1.1835  0.7496 -0.9071
12722SOL     OW38735   6.525   6.106   0.533  0.3276 -0.4816 -0.3650
12722SOL    HW138736   6.491   6.113   0.444 -0.0205 -0.3445 -0.2210
12722SOL    HW238737   6.516   6.194   0.570  2.0544 -0.0936 -0.7605
12723SOL     OW38738   5.923   0.094   5.633 -0.1452  0.0807  0.8048
12723SOL    HW138739   5.896   0.073   5.543 -1.1115 -0.5326  1.2277
12723SOL    HW238740   5.998   0.036   5.649 -1.2960 -1.3539  1.1221
12724SOL     OW38741   4.858   3.251   3.433  0.3788 -0.0594 -0.0285
12724SOL    HW138742   4.806   3.210   3.364 -1.3952  1.6637  0.1887
12724SOL    HW238743   4.944   3.264   3.393  0.3126 -1.7904 -0.8522
12725SOL     OW38744   3.714   3.670   2.444  0.2141  0.4008 -0.0417
12725SOL    HW138745   3.735   3.667   2.351  0.0373 -0.2659 -0.0675
12725SOL    HW238746   3.699   3.762   2.462 -0.0498  0.5030 -0.7466
12726SOL     OW38747   3.842   5.001   1.427  0.2528 -0.1307 -0.5499
12726SOL    HW138748   3.873   4.964   1.345  1.2741  0.8308 -0.6191
12726SOL    HW238749   3.746   5.003   1.418  0.2193 -1.9410 -0.8526
12727SOL     OW38750   3.584   6.843   4.824  0.1867  0.2719  0.2376
12727SOL    HW138751   3.534   6.914   4.784 -0.9022 -0.4856  0.2138
12727SOL    HW238752   3.533   6.819   4.902  0.1587 -0.9415 -0.1390
12728SOL     OW38753   4.757   0.239   0.650 -0.2012  0.0469 -0.5298
12728SOL    HW138754   4.822   0.294   0.695 -2.6654  0.9435  2.2476
12728SOL    HW238755   4.732   0.175   0.716 -0.6007 -1.6634 -2.2826
12729SOL     OW38756   2.884   2.792   5.851 -0.0683  0.8085  0.0544
12729SOL    HW138757   2.952   2.843   5.806 -1.3972  3.7368  1.0992
12729SOL    HW238758   2.856   2.727   5.787  2.0444  1.0683 -1.2330
12730SOL     OW38759   3.943   0.878   0.810 -0.6544  0.3123 -0.2021
12730SOL    HW138760   3.931   0.965   0.847 -2.7759 -0.4995  1.2242
12730SOL    HW238761   3.875   0.870   0.744  1.1766  0.6111 -2.2355
12731SOL     OW38762   4.094   7.070   2.821 -0.0709  0.0610 -0.6033
12731SOL    HW138763   4.143   6.991   2.845 -0.8971 -0.7650 -1.5490
12731SOL    HW238764   4.079   7.114   2.905 -0.1608 -1.1213  0.0363
12732SOL     OW38765   6.234   0.534   2.971  0.0274 -0.0216 -0.5137
12732SOL    HW138766   6.326   0.509   2.984 -0.1686 -0.1642  0.7172
12732SOL    HW238767   6.236   0.593   2.896  1.3221  1.0851  0.3437
12733SOL     OW38768   2.608   4.810   1.573  0.0061  0.2422  0.3733
12733SOL    HW138769   2.678   4.824   1.637 -1.6358  1.6510  1.9458
12733SOL    HW238770   2.527   4.813   1.624 -1.3389  0.5612 -1.6551
12734SOL     OW38771   2.103   1.237   2.745 -0.0149  0.4376  0.3690
12734SOL    HW138772   2.039   1.262   2.679  0.1142  0.4394  0.2462
12734SOL    HW238773   2.113   1.142   2.733 -0.6976  0.2734  0.9990
12735SOL     OW38774   1.798   5.059   5.978 -1.0099 -0.2631  0.1194
12735SOL    HW138775   1.744   5.002   6.033 -0.0489 -0.3110  1.0501
12735SOL    HW238776   1.886   5.051   6.014 -0.8721  2.0287  0.4750
12736SOL     OW38777   5.117   5.235   3.305  0.6843 -0.2962 -0.5350
12736SOL    HW138778   5.082   5.199   3.224 -0.1435  0.1796 -0.3954
12736SOL    HW238779   5.136   5.327   3.284  2.8632 -0.7801 -0.9168
12737SOL     OW38780   2.859   2.948   2.614 -0.5290  0.5503  0.5013
12737SOL    HW138781   2.763   2.949   2.615 -0.6462 -0.8546 -1.7786
12737SOL    HW238782   2.884   2.896   2.690 -1.6731 -0.6582  0.0824
12738SOL     OW38783   5.124   0.153   4.348  0.2081  0.3513  0.7023
12738SOL    HW138784   5.202   0.099   4.361 -0.4258 -0.3614  1.6458
12738SOL    HW238785   5.096   0.134   4.258 -0.2684 -1.2753  1.1577
12739SOL     OW38786   1.483   3.309   4.978  0.1679  0.1453  0.1028
12739SOL    HW138787   1.570   3.349   4.973 -0.2499  1.3282  1.4645
12739SOL    HW238788   1.454   3.303   4.887  1.0021  1.3000 -0.2609
12740SOL     OW38789   4.734   3.946   7.034  0.0267  0.0258 -0.1020
12740SOL    HW138790   4.767   3.896   7.109  0.0256 -0.5540 -0.4837
12740SOL    HW238791   4.643   3.918   7.025  0.5909 -1.4838 -1.5883
12741SOL     OW38792   0.655   1.062   0.499  0.2136  0.3934  0.2962
12741SOL    HW138793   0.690   1.057   0.410  2.0310 -1.9058  1.0679
12741SOL    HW238794   0.603   0.983   0.508 -2.4162  2.0032  0.4102
12742SOL     OW38795   0.527   4.183   3.942  0.6130  0.3684 -0.1595
12742SOL    HW138796   0.602   4.124   3.936  0.1252 -0.6796  2.4256
12742SOL    HW238797   0.565   4.266   3.972  1.0120  0.7036 -1.5081
12743SOL     OW38798   0.605   6.332   6.617 -0.0753 -0.0478  0.0772
12743SOL    HW138799   0.641   6.394   6.681  1.8479 -0.8393 -0.1635
12743SOL    HW238800   0.672   6.264   6.608 -0.9561 -0.7763 -1.6358
12744SOL     OW38801   3.605   7.099   4.511 -0.0427  0.5177  0.1099
12744SOL    HW138802   3.627   7.007   4.498  0.1236  0.6140 -0.3138
12744SOL    HW238803   3.608   7.137   4.423 -1.9199  0.5347  0.0099
12745SOL     OW38804   0.350   7.145   4.220 -0.2414 -0.0821 -0.0510
12745SOL    HW138805   0.397   7.157   4.137  1.2558  1.8950  0.9924
12745SOL    HW238806   0.418   7.125   4.284 -0.9657  1.3221  1.2280
12746SOL     OW38807   4.428   3.330   6.613 -0.1320  0.2874  0.8388
12746SOL    HW138808   4.478   3.286   6.544  0.9546  0.4585  1.4794
12746SOL    HW238809   4.401   3.413   6.574  1.1464  0.7298  0.8418
12747SOL     OW38810   6.344   6.695   6.626 -0.5461  0.0675 -0.0848
12747SOL    HW138811   6.381   6.775   6.589  0.2931  0.1712  0.9292
12747SOL    HW238812   6.388   6.624   6.580 -1.3065  0.1730 -1.0008
12748SOL     OW38813   4.211   1.248   0.956 -0.3417 -0.4039  0.2516
12748SOL    HW138814   4.219   1.261   0.862  1.1111 -0.5176  0.3341
12748SOL    HW238815   4.291   1.286   0.992  0.2761 -2.4611  1.1970
12749SOL     OW38816   3.342   2.616   2.374 -0.0611  0.1481  0.1679
12749SOL    HW138817   3.264   2.643   2.326 -1.0164 -1.7790  0.5415
12749SOL    HW238818   3.335   2.520   2.380  0.0333  0.2128  3.9982
12750SOL     OW38819   5.162   3.101   3.984 -0.2941 -0.3154  0.0772
12750SOL    HW138820   5.181   3.172   3.922 -0.7134  0.2209  0.5531
12750SOL    HW238821   5.145   3.145   4.067 -0.2419 -0.9995  0.4607
12751SOL     OW38822   6.299   4.505   3.561 -0.2402 -0.2166  0.2947
12751SOL    HW138823   6.394   4.511   3.559 -0.2835  0.5085 -1.0783
12751SOL    HW238824   6.278   4.471   3.648  1.2219  0.4623  0.9337
12752SOL     OW38825   6.763   5.941   6.760 -0.0887  0.7620 -0.0487
12752SOL    HW138826   6.756   5.852   6.726 -0.9989  0.5072  0.7552
12752SOL    HW238827   6.674   5.964   6.787 -0.3709  2.8055 -2.3536
12753SOL     OW38828   2.366   1.615   1.624 -0.3575 -0.0532  0.1591
12753SOL    HW138829   2.387   1.681   1.557 -0.4897  1.1212  1.2480
12753SOL    HW238830   2.278   1.585   1.600  0.3543 -1.0771 -1.3046
12754SOL     OW38831   1.623   0.974   6.999 -0.0661  0.5194  0.0966
12754SOL    HW138832   1.579   1.028   7.064 -0.0626  0.6793 -0.0352
12754SOL    HW238833   1.668   1.036   6.942 -0.7718  0.4278 -0.5767
12755SOL     OW38834   5.644   1.576   2.814  0.5894 -0.6385 -0.0727
12755SOL    HW138835   5.672   1.661   2.782  0.3067 -0.6852 -0.4569
12755SOL    HW238836   5.588   1.596   2.889 -0.6762 -0.4021 -1.0503
12756SOL     OW38837   0.105   1.880   6.158 -0.1066 -0.4831  0.1737
12756SOL    HW138838   0.191   1.837   6.156 -1.0119 -2.3645 -1.0774
12756SOL    HW238839   0.124   1.969   6.189  1.9318 -1.5510  2.3170
12757SOL     OW38840   6.861   3.216   6.999  0.3324  0.0469  0.5044
12757SOL    HW138841   6.868   3.155   7.073  0.9964 -0.4660  0.0265
12757SOL    HW238842   6.938   3.273   7.007  0.8531 -0.5318 -0.2455
12758SOL     OW38843   0.492   3.678   2.148  0.4988  0.2445 -0.2772
12758SOL    HW138844   0.582   3.700   2.124  1.2545  0.1903  2.2118
12758SOL    HW238845   0.500   3.637   2.235 -1.8095 -0.9695 -0.5565
12759SOL     OW38846   3.797   5.157   3.821  0.1080  0.2981  0.2637
12759SOL    HW138847   3.822   5.093   3.755 -0.2940  0.7866 -0.3750
12759SOL    HW238848   3.879   5.196   3.850  0.3993 -0.7917  0.9727
12760SOL     OW38849   3.610   2.819   4.559 -0.0563 -0.7511  0.5700
12760SOL    HW138850   3.667   2.879   4.511  0.2380 -0.3679  1.3803
12760SOL    HW238851   3.661   2.791   4.634 -1.0951 -0.0063  1.5868
12761SOL     OW38852   6.742   3.697   6.924  0.2068  0.1883  0.5272
12761SOL    HW138853   6.803   3.713   6.853 -0.1582  0.0135  0.1732
12761SOL    HW238854   6.798   3.672   6.998  0.5900  0.4562  0.3344
12762SOL     OW38855   4.011   5.758   6.644 -0.2689 -0.1150  0.0589
12762SOL    HW138856   3.979   5.831   6.697  1.8467  1.1523 -0.2912
12762SOL    HW238857   4.030   5.689   6.708  2.0811  1.3269  1.0880
12763SOL     OW38858   3.552   1.384   1.956 -0.0763 -0.1459 -0.5225
12763SOL    HW138859   3.497   1.459   1.931 -0.7292 -0.7071 -0.8092
12763SOL    HW238860   3.639   1.422   1.971 -0.5320  0.7588 -0.0803
12764SOL     OW38861   0.759   0.991   6.258 -0.6345 -0.7464  0.5775
12764SOL    HW138862   0.777   0.997   6.352 -1.2218 -1.8845  0.7872
12764SOL    HW238863   0.827   1.044   6.217  1.1130 -2.1452  1.5206
12765SOL     OW38864   6.108   5.630   5.185 -0.2332  0.8956  0.2188
12765SOL    HW138865   6.151   5.656   5.267  0.6939  0.1814 -0.0388
12765SOL    HW238866   6.032   5.689   5.179 -0.8294  0.3739  2.0429
12766SOL     OW38867   5.751   4.754   5.429 -0.1873  0.5644  0.0389
12766SOL    HW138868   5.746   4.734   5.336  0.1311  0.3738  0.0623
12766SOL    HW238869   5.731   4.672   5.474  0.0592  0.5550  0.1361
12767SOL     OW38870   5.539   6.316   4.670  0.0576 -0.0906  0.3633
12767SOL    HW138871   5.604   6.370   4.626 -0.4146  0.6694  0.5768
12767SOL    HW238872   5.586   6.275   4.743  0.6211 -0.6387 -0.2922
12768SOL     OW38873   2.655   5.904   4.284 -0.4656  0.3806 -0.0692
12768SOL    HW138874   2.584   5.851   4.320 -2.0191  1.6065 -1.1508
12768SOL    HW238875   2.660   5.878   4.192  1.9106 -1.1071  0.4086
12769SOL     OW38876   5.035   3.746   2.249  0.1452  0.5237 -0.0219
12769SOL    HW138877   4.960   3.781   2.296  0.1828 -0.9872  1.2429
12769SOL    HW238878   5.026   3.651   2.257  2.7658  0.3003  1.1675
12770SOL     OW38879   4.129   0.629   2.081 -0.0905 -0.0390 -0.4720
12770SOL    HW138880   4.106   0.719   2.060 -0.1894  0.1580  0.4489
12770SOL    HW238881   4.046   0.581   2.076  0.0001 -0.1374 -1.1947
12771SOL     OW38882   1.770   2.802   0.472 -0.1101 -0.0205 -0.3308
12771SOL    HW138883   1.729   2.819   0.556  0.9302 -2.0260  0.6706
12771SOL    HW238884   1.703   2.756   0.421 -0.3354  0.0500 -0.0985
12772SOL     OW38885   7.290   2.676   3.834 -0.1627 -0.3473  0.1922
12772SOL    HW138886   7.358   2.741   3.818  0.3750 -0.1781  2.7314
12772SOL    HW238887   7.336   2.592   3.835 -0.3460 -0.4546 -0.0609
12773SOL     OW38888   4.526   6.225   4.305 -0.1698 -0.3822 -0.0930
12773SOL    HW138889   4.581   6.292   4.345 -1.1992  0.6278 -0.3106
12773SOL    HW238890   4.572   6.143   4.322  1.9218  0.4823 -1.1671
12774SOL     OW38891   6.127   1.965   4.724 -0.1308 -0.1531 -0.0269
12774SOL    HW138892   6.176   1.943   4.803  0.8927 -2.1518 -1.1365
12774SOL    HW238893   6.039   1.984   4.756  0.5456  0.2805  1.7037
12775SOL     OW38894   5.816   1.316   1.293 -0.2508  0.2732  0.5032
12775SOL    HW138895   5.893   1.327   1.348  0.6605 -0.8988 -0.4759
12775SOL    HW238896   5.757   1.261   1.346  0.1856  0.0016  0.7211
12776SOL     OW38897   4.497   2.999   5.746  0.3210  0.0442  0.4492
12776SOL    HW138898   4.590   2.987   5.723  0.3316  0.2495  0.3833
12776SOL    HW238899   4.468   3.071   5.690 -0.4091 -1.3284 -0.9916
12777SOL     OW38900   2.568   3.301   6.454 -0.3852  0.4074  0.0505
12777SOL    HW138901   2.627   3.349   6.396  0.0611  0.5566  0.6077
12777SOL    HW238902   2.616   3.296   6.537 -0.8097 -0.2050  0.2677
12778SOL     OW38903   6.565   3.691   3.053 -0.0572 -0.8021  0.0607
12778SOL    HW138904   6.606   3.675   3.138 -3.0532 -1.3827  1.5336
12778SOL    HW238905   6.611   3.767   3.019  1.8215 -1.0680  1.8023
12779SOL     OW38906   1.497   2.438   1.498  0.3203  0.2925  0.2166
12779SOL    HW138907   1.426   2.475   1.447 -2.8220 -1.7082  2.7627
12779SOL    HW238908   1.541   2.513   1.537  0.1344  1.6040 -1.9681
12780SOL     OW38909   2.434   1.930   1.695 -0.7857 -0.1509 -0.2277
12780SOL    HW138910   2.353   1.909   1.649  0.3859  0.0968 -2.5281
12780SOL    HW238911   2.502   1.881   1.648  0.7670  1.7520 -0.0952
12781SOL     OW38912   3.450   1.761   2.822 -0.9213  0.5282 -0.3869
12781SOL    HW138913   3.529   1.767   2.875 -0.4386  0.5004 -1.0926
12781SOL    HW238914   3.478   1.720   2.741 -1.5454  1.0644 -0.8849
12782SOL     OW38915   2.811   1.179   3.863  0.1647  0.1415 -0.5586
12782SOL    HW138916   2.838   1.161   3.773 -0.0632  2.0384 -1.0453
12782SOL    HW238917   2.865   1.254   3.889  1.0798 -1.0883  1.3334
12783SOL     OW38918   5.158   2.767   0.158 -0.6282 -0.1133 -0.0491
12783SOL    HW138919   5.173   2.826   0.232  1.7387  0.2592 -0.7504
12783SOL    HW238920   5.209   2.804   0.087 -1.1030 -1.6665 -1.2519
12784SOL     OW38921   4.566   4.743   3.260  0.4401  0.2618  0.1019
12784SOL    HW138922   4.644   4.776   3.216  0.8052  0.3520  0.8076
12784SOL    HW238923   4.493   4.787   3.216  0.6897 -0.6428 -1.3103
12785SOL     OW38924   7.372   2.011   0.723  0.3912  0.0370  0.0872
12785SOL    HW138925   7.375   1.960   0.642  1.0539  1.8515 -1.0750
12785SOL    HW238926   7.290   1.983   0.765 -0.5781 -0.1164 -1.7723
12786SOL     OW38927   3.616   5.244   1.047 -0.4031 -0.4544  0.2565
12786SOL    HW138928   3.555   5.182   1.006  2.0836 -2.6651 -0.3733
12786SOL    HW238929   3.700   5.226   1.005  1.0210  1.4831  2.0700
12787SOL     OW38930   5.856   1.592   6.585 -0.5535  0.3083 -0.9704
12787SOL    HW138931   5.808   1.553   6.511 -1.8113  0.1714 -0.1206
12787SOL    HW238932   5.878   1.517   6.641  0.9991  0.3295 -1.5201
12788SOL     OW38933   0.433   5.827   2.533  0.3064  0.0923 -0.4253
12788SOL    HW138934   0.454   5.746   2.579 -0.1469  0.7073  0.9275
12788SOL    HW238935   0.494   5.891   2.570 -1.6781  1.1658  1.2052
12789SOL     OW38936   4.039   6.359   2.515  0.0543 -0.9494 -0.1276
12789SOL    HW138937   4.064   6.344   2.606  0.1802 -0.6010 -0.1024
12789SOL    HW238938   4.077   6.445   2.494 -3.0649  0.7635  0.6533
12790SOL     OW38939   5.485   1.746   4.583  0.8808 -0.2958  0.2457
12790SOL    HW138940   5.408   1.712   4.537 -0.0665 -1.0024  2.2409
12790SOL    HW238941   5.497   1.834   4.548  0.6563 -1.0387 -1.8288
12791SOL     OW38942   5.639   3.640   5.328 -0.3134 -0.0523 -0.0892
12791SOL    HW138943   5.571   3.699   5.295 -1.3373 -0.2318  1.5876
12791SOL    HW238944   5.702   3.698   5.372 -0.2401 -0.0267 -0.2281
12792SOL     OW38945   3.303   4.033   4.491  0.0986  0.0718 -0.1695
12792SOL    HW138946   3.387   3.990   4.509  0.0298  0.1057  0.2244
12792SOL    HW238947   3.310   4.118   4.535  0.3794  0.6308 -1.2407
12793SOL     OW38948   2.445   2.666   3.944  0.2112  0.3764  0.6830
12793SOL    HW138949   2.489   2.589   3.979 -0.0131 -0.0253  0.1098
12793SOL    HW238950   2.400   2.705   4.019  2.2402  1.3022  1.4687
12794SOL     OW38951   3.942   1.953   1.569  0.3796 -0.0808  0.2595
12794SOL    HW138952   3.914   1.945   1.660 -0.1670 -0.8388  0.0339
12794SOL    HW238953   3.882   2.017   1.530  0.9685  0.6728  0.5604
12795SOL     OW38954   6.768   6.251   2.379  0.2095 -0.0633  0.6547
12795SOL    HW138955   6.778   6.330   2.432 -0.1879  0.7930 -0.5005
12795SOL    HW238956   6.796   6.276   2.291 -3.2624 -0.0933 -0.6169
12796SOL     OW38957   5.639   1.477   4.880  0.1423  0.0617  0.0240
12796SOL    HW138958   5.698   1.484   4.804 -1.7573 -1.3504 -1.7019
12796SOL    HW238959   5.577   1.548   4.868 -0.3564 -0.3629  0.0751
12797SOL     OW38960   6.935   0.429   5.463 -0.3094  0.2829 -0.1142
12797SOL    HW138961   6.875   0.501   5.441 -1.4866 -1.0165 -1.4441
12797SOL    HW238962   6.904   0.397   5.548 -0.1995  0.9235  0.1679
12798SOL     OW38963   4.624   1.387   3.213  0.1263  0.1160 -0.5263
12798SOL    HW138964   4.612   1.351   3.125 -0.2151 -1.6188  0.1929
12798SOL    HW238965   4.536   1.389   3.251  0.3910 -0.0490  0.1057
12799SOL     OW38966   2.881   0.257   1.472  0.2460 -0.0240 -0.5190
12799SOL    HW138967   2.796   0.212   1.471  0.9983 -1.4953 -0.6821
12799SOL    HW238968   2.881   0.309   1.391  0.6586 -2.3324 -2.0977
12800SOL     OW38969   4.751   0.221   0.382 -0.3421  0.3021  0.5165
12800SOL    HW138970   4.715   0.235   0.469 -2.2861 -1.3246  0.0497
12800SOL    HW238971   4.778   0.308   0.352 -0.4344  0.9973  2.3727
12801SOL     OW38972   4.652   3.582   2.462 -0.0160  0.0002 -0.4188
12801SOL    HW138973   4.617   3.503   2.504 -0.6887  1.2947  1.5737
12801SOL    HW238974   4.603   3.654   2.501  0.8297  1.4538 -1.9281
12802SOL     OW38975   0.602   1.174   5.731  0.6143 -0.2432  0.3777
12802SOL    HW138976   0.592   1.104   5.796  0.5828 -0.8332 -0.2391
12802SOL    HW238977   0.515   1.182   5.692  0.7240 -0.1701  0.1448
12803SOL     OW38978   3.389   1.294   1.539  0.7115  0.1622 -0.4826
12803SOL    HW138979   3.400   1.260   1.627  0.6489  1.2201 -0.0442
12803SOL    HW238980   3.383   1.217   1.483  1.9691 -0.5232  0.2816
12804SOL     OW38981   3.264   4.270   4.617 -0.4041 -0.6420  0.5245
12804SOL    HW138982   3.358   4.276   4.596 -0.7569 -0.0063 -1.0283
12804SOL    HW238983   3.236   4.360   4.629 -1.1313 -0.6865 -0.6428
12805SOL     OW38984   2.599   0.761   0.417  0.7384 -0.4351  0.1608
12805SOL    HW138985   2.509   0.742   0.393  1.1177  1.6880 -3.6950
12805SOL    HW238986   2.596   0.849   0.454  1.0654 -1.1689  2.0655
12806SOL     OW38987   6.464   2.837   0.883  0.8129  0.1038 -0.1493
12806SOL    HW138988   6.531   2.779   0.846  1.4510 -0.4394  1.7352
12806SOL    HW238989   6.457   2.810   0.974 -2.3299 -0.1473 -0.3535
12807SOL     OW38990   0.159   3.988   5.122  0.0867 -0.1312 -0.2455
12807SOL    HW138991   0.252   4.009   5.115 -0.3724  1.4758 -2.9235
12807SOL    HW238992   0.148   3.909   5.071 -0.2338  0.5557 -1.2606
12808SOL     OW38993   4.677   3.252   1.353  0.3162  0.7022 -0.3228
12808SOL    HW138994   4.584   3.268   1.370  0.4428  1.8066 -0.5750
12808SOL    HW238995   4.722   3.288   1.429  0.5187 -0.5618  0.1899
12809SOL     OW38996   6.587   5.727   2.040  0.2496  0.0353 -0.0097
12809SOL    HW138997   6.519   5.675   2.083 -1.3952  1.5825 -0.5917
12809SOL    HW238998   6.646   5.662   2.002  0.8367 -1.3835  3.0089
12810SOL     OW38999   0.958   4.171   7.155  0.4781 -0.3905 -0.4308
12810SOL    HW139000   0.897   4.122   7.100  0.8785  0.0348 -1.2657
12810SOL    HW239001   1.024   4.108   7.181  0.9448 -0.3304 -1.4305
12811SOL     OW39002   7.377   3.397   1.947 -0.2624  0.3106 -0.5147
12811SOL    HW139003   7.436   3.454   1.899  0.8003  0.2910  0.7310
12811SOL    HW239004   7.298   3.450   1.960 -0.6712  0.2342 -2.4317
12812SOL     OW39005   3.443   2.018   3.847  0.3976  0.5522 -0.3392
12812SOL    HW139006   3.408   1.930   3.836 -0.7496  0.9911 -0.3339
12812SOL    HW239007   3.529   2.005   3.888 -0.3368 -0.5076  0.9317
12813SOL     OW39008   7.202   2.424   0.341  0.1104  0.3050  0.3199
12813SOL    HW139009   7.179   2.345   0.292 -0.3653  0.7953 -0.2527
12813SOL    HW239010   7.222   2.392   0.429 -0.9741 -0.3521  0.3445
12814SOL     OW39011   7.053   5.442   4.065 -0.7001  0.6952  0.2601
12814SOL    HW139012   6.979   5.383   4.078  1.3765 -2.1448  0.1911
12814SOL    HW239013   7.057   5.455   3.970 -0.6175  0.0904  0.1725
12815SOL     OW39014   7.182   4.982   2.373 -0.1963 -0.3878 -0.3716
12815SOL    HW139015   7.123   5.035   2.320  0.7745  0.9606 -0.1835
12815SOL    HW239016   7.262   4.975   2.321 -0.3574 -1.8589 -0.4622
12816SOL     OW39017   2.073   4.134   3.476 -0.1515  0.2887  0.0307
12816SOL    HW139018   2.152   4.156   3.526  0.3069 -1.0463 -0.0601
12816SOL    HW239019   2.106   4.104   3.392 -0.9039  2.1857 -1.0087
12817SOL     OW39020   1.253   1.070   3.657  0.9852 -0.3137 -0.2737
12817SOL    HW139021   1.183   1.030   3.605  0.0703 -0.3250  0.9173
12817SOL    HW239022   1.235   1.164   3.651  1.2338 -0.2792 -0.4667
12818SOL     OW39023   2.894   4.571   5.875  0.1095  0.4763 -0.2693
12818SOL    HW139024   2.961   4.531   5.819  0.3191 -0.3482  0.5556
12818SOL    HW239025   2.927   4.561   5.964 -1.4787 -0.7288  0.2306
12819SOL     OW39026   5.151   1.731   5.778  0.1507 -0.1370 -0.2702
12819SOL    HW139027   5.087   1.801   5.791  0.1389  0.1343 -1.6628
12819SOL    HW239028   5.207   1.763   5.707  0.5051 -1.2896 -0.5243
12820SOL     OW39029   0.875   4.199   1.280 -0.3173 -0.0318 -0.0206
12820SOL    HW139030   0.788   4.164   1.298 -0.1507 -1.2704 -1.4001
12820SOL    HW239031   0.913   4.138   1.217  1.0755  1.1682 -0.4147
12821SOL     OW39032   5.525   4.032   3.183  0.2133  0.4506 -0.0583
12821SOL    HW139033   5.469   4.089   3.131  1.0846  1.6264  0.2408
12821SOL    HW239034   5.566   4.091   3.246  0.8115 -0.5933  0.5464
12822SOL     OW39035   5.967   1.261   4.966  0.6859 -0.1429 -0.3117
12822SOL    HW139036   6.025   1.334   4.990  0.8137 -0.8248  1.6258
12822SOL    HW239037   6.025   1.185   4.963  0.3486 -0.3818 -1.1778
12823SOL     OW39038   2.473   2.913   1.358 -0.0996 -0.7677  0.0596
12823SOL    HW139039   2.491   2.846   1.424  1.8393  1.9063  2.4929
12823SOL    HW239040   2.558   2.931   1.318 -0.6055  0.1821 -0.6208
12824SOL     OW39041   3.292   1.522   0.839  0.1112 -0.1868  0.4671
12824SOL    HW139042   3.200   1.500   0.849 -0.0213 -0.1280 -0.4829
12824SOL    HW239043   3.310   1.583   0.910 -0.8781  0.6547  0.0274
12825SOL     OW39044   2.306   0.363   2.509 -0.0804  0.4275  0.0146
12825SOL    HW139045   2.243   0.435   2.505  1.0000  1.3834 -0.2461
12825SOL    HW239046   2.366   0.388   2.580  0.1949 -0.3061  0.0468
12826SOL     OW39047   4.159   2.026   6.418  0.6804 -0.3701 -0.5098
12826SOL    HW139048   4.172   2.078   6.338  0.3455 -0.1071 -0.3960
12826SOL    HW239049   4.242   2.035   6.466  0.8429 -0.4397 -0.7762
12827SOL     OW39050   4.057   6.918   4.919  0.1356  0.0733  0.6507
12827SOL    HW139051   4.116   6.970   4.864 -1.3550  1.1333 -0.0454
12827SOL    HW239052   3.991   6.885   4.857 -0.7256  0.0148  1.5840
12828SOL     OW39053   0.041   3.582   1.789 -0.4508 -0.3466  0.1525
12828SOL    HW139054   0.026   3.669   1.825 -1.7892  0.2268 -1.6500
12828SOL    HW239055   0.135   3.581   1.767 -0.1815  0.1992  1.2150
12829SOL     OW39056   4.628   2.459   5.587  0.9254 -0.4239 -0.1769
12829SOL    HW139057   4.707   2.429   5.542  0.9257 -0.0187 -0.4514
12829SOL    HW239058   4.581   2.378   5.609 -0.1587 -0.6501 -2.8550
12830SOL     OW39059   1.541   2.253   1.735 -0.2252 -0.1016  0.0371
12830SOL    HW139060   1.602   2.180   1.726 -0.7921 -0.5338 -0.3417
12830SOL    HW239061   1.580   2.322   1.681 -0.5393 -0.6912 -0.9681
12831SOL     OW39062   4.449   4.817   7.038 -0.0406 -0.1958  0.3813
12831SOL    HW139063   4.510   4.802   6.966 -0.7777  0.1529 -0.3260
12831SOL    HW239064   4.501   4.800   7.117  0.2815 -2.4440 -0.2471
12832SOL     OW39065   6.388   6.345   2.095 -0.5631  0.5886 -0.2574
12832SOL    HW139066   6.351   6.428   2.125 -0.9997 -0.3489  2.0991
12832SOL    HW239067   6.417   6.302   2.176  3.0416 -0.0241 -1.6829
12833SOL     OW39068   3.446   6.089   0.234  0.1124 -0.1875 -0.9669
12833SOL    HW139069   3.353   6.109   0.228 -0.7104 -3.2552 -0.2957
12833SOL    HW239070   3.474   6.077   0.143 -0.9603 -2.2000 -1.0855
12834SOL     OW39071   2.132   5.393   0.117 -0.4692  0.3395  0.1917
12834SOL    HW139072   2.194   5.345   0.062  0.0585 -0.2507  1.2615
12834SOL    HW239073   2.046   5.366   0.086 -0.1950  0.5925 -0.8196
12835SOL     OW39074   0.835   5.400   1.873 -0.2402  0.3564 -0.0630
12835SOL    HW139075   0.768   5.399   1.804 -1.3368 -1.0722  0.9717
12835SOL    HW239076   0.785   5.402   1.955  0.9742 -0.9283  0.7463
12836SOL     OW39077   3.969   4.561   2.810  0.0508  0.4222 -0.0934
12836SOL    HW139078   3.878   4.539   2.796  0.0842  1.5930 -2.6720
12836SOL    HW239079   4.012   4.541   2.727  2.3429 -0.8362  1.2858
12837SOL     OW39080   2.497   5.712   5.542 -0.2560  0.4396  0.1005
12837SOL    HW139081   2.494   5.791   5.597  1.0061 -0.9810  2.3625
12837SOL    HW239082   2.588   5.704   5.515  0.0801 -1.1883  1.5022
12838SOL     OW39083   5.074   0.211   1.770  0.0831 -0.5267  0.3285
12838SOL    HW139084   5.040   0.270   1.838  1.7777  2.4628 -1.2205
12838SOL    HW239085   5.001   0.201   1.709  0.0095  0.8736  0.1323
12839SOL     OW39086   7.003   5.404   3.114  0.4790 -0.0410  0.3867
12839SOL    HW139087   6.980   5.370   3.201  0.5016  0.0516  0.4290
12839SOL    HW239088   6.992   5.329   3.055 -2.1552  0.5037  0.0243
12840SOL     OW39089   1.741   7.321   3.050 -0.4354  0.2405  0.1594
12840SOL    HW139090   1.818   7.271   3.024  0.5024  1.7487 -0.1257
12840SOL    HW239091   1.691   7.263   3.108 -0.6578 -1.8692 -2.0137
12841SOL     OW39092   7.304   4.927   6.866  0.1295  0.7337  0.0488
12841SOL    HW139093   7.281   4.973   6.785 -0.4563  0.3643 -0.0025
12841SOL    HW239094   7.271   4.838   6.853 -0.2103  0.7409  0.7961
12842SOL     OW39095   1.966   4.116   5.829 -0.3612 -0.2654  0.0722
12842SOL    HW139096   2.019   4.075   5.762  0.1808  0.4803  0.0342
12842SOL    HW239097   1.899   4.165   5.781 -0.3104 -0.1786  0.0900
12843SOL     OW39098   3.307   2.160   3.599 -0.0940  0.0307  0.2110
12843SOL    HW139099   3.362   2.123   3.668 -0.6591 -1.3861 -0.0549
12843SOL    HW239100   3.322   2.254   3.604  1.6222 -0.2471  0.7461
12844SOL     OW39101   3.041   1.895   2.378 -0.3639 -0.0749  0.6275
12844SOL    HW139102   2.982   1.867   2.307 -1.7415  3.2667  0.2457
12844SOL    HW239103   2.989   1.883   2.458 -0.9524  1.1685  0.4644
12845SOL     OW39104   0.533   1.434   1.054 -0.5877 -0.0575 -0.7098
12845SOL    HW139105   0.484   1.363   1.012 -0.9396  0.3753 -1.0466
12845SOL    HW239106   0.526   1.507   0.993  0.3704  0.0622 -0.6951
12846SOL     OW39107   4.471   2.961   6.426  0.1440  0.4443 -0.1325
12846SOL    HW139108   4.481   2.898   6.497 -1.5134  0.3529  0.0633
12846SOL    HW239109   4.524   2.924   6.354  1.7775  0.5106  0.9843
12847SOL     OW39110   3.385   3.242   1.546  0.0592  0.8639  0.0552
12847SOL    HW139111   3.329   3.166   1.532  0.0236  0.6263  1.3562
12847SOL    HW239112   3.413   3.235   1.637  1.9499  1.1728 -0.4732
12848SOL     OW39113   7.212   6.213   3.452  0.3878 -0.0830  0.2755
12848SOL    HW139114   7.154   6.204   3.377 -0.3560  0.8530  0.7102
12848SOL    HW239115   7.223   6.307   3.463  1.3052 -0.2318  0.7245
12849SOL     OW39116   0.468   0.560   5.311  0.1952 -0.2268  0.0063
12849SOL    HW139117   0.472   0.656   5.315 -1.9513 -0.0761 -0.1229
12849SOL    HW239118   0.467   0.533   5.402 -0.4335 -0.0274  0.0642
12850SOL     OW39119   5.857   2.117   6.333 -0.0960  0.1810  0.3197
12850SOL    HW139120   5.879   2.087   6.245  2.2156  0.7030  0.6542
12850SOL    HW239121   5.929   2.085   6.388 -0.7306  1.1187  1.7523
12851SOL     OW39122   2.135   0.297   0.924 -0.8352  0.1396 -0.7355
12851SOL    HW139123   2.117   0.223   0.982 -1.5441  0.0633 -1.0416
12851SOL    HW239124   2.217   0.334   0.957 -1.0548 -0.1050  0.1056
12852SOL     OW39125   5.597   7.204   6.443  0.1568 -0.0339  0.0705
12852SOL    HW139126   5.653   7.129   6.464  1.7531  0.7598 -1.1686
12852SOL    HW239127   5.629   7.274   6.500 -0.3380  0.1247  0.1568
12853SOL     OW39128   5.199   3.408   2.838  1.0248  0.0812 -0.1504
12853SOL    HW139129   5.259   3.399   2.764  0.8375  0.9621 -0.4207
12853SOL    HW239130   5.246   3.367   2.911  1.9379  0.7001 -0.3684
12854SOL     OW39131   5.846   5.047   3.559 -0.0545 -0.0419 -0.2344
12854SOL    HW139132   5.835   5.141   3.547 -0.9008 -0.0482  0.3789
12854SOL    HW239133   5.794   5.008   3.488 -0.7463 -0.0475  0.2680
12855SOL     OW39134   2.872   5.741   1.305  0.3578 -0.4281  0.6967
12855SOL    HW139135   2.935   5.735   1.376  0.1557 -2.7208  0.7510
12855SOL    HW239136   2.834   5.653   1.298 -2.1446  0.6121  0.0300
12856SOL     OW39137   6.632   1.380   4.245  0.1695  0.2580  0.2723
12856SOL    HW139138   6.582   1.303   4.271  3.7150 -2.6219 -0.6108
12856SOL    HW239139   6.638   1.432   4.325 -2.3435 -0.2580  0.8966
12857SOL     OW39140   1.068   1.852   0.722 -0.2048  0.1084  0.3510
12857SOL    HW139141   1.064   1.763   0.755 -0.8461  0.3821  1.0441
12857SOL    HW239142   0.984   1.866   0.679 -0.7746  0.8833  1.6406
12858SOL     OW39143   5.788   4.526   6.458 -0.3598 -0.1056  0.4365
12858SOL    HW139144   5.858   4.466   6.431 -0.6270 -0.0899 -0.3194
12858SOL    HW239145   5.797   4.601   6.400 -0.2805  0.4166  1.1112
12859SOL     OW39146   2.350   3.812   3.970  0.2170  0.3342 -0.2004
12859SOL    HW139147   2.267   3.766   3.974  0.3770 -0.1011 -1.3775
12859SOL    HW239148   2.367   3.842   4.060  0.3386 -2.3087  0.7222
12860SOL     OW39149   3.865   2.008   4.332 -0.3002  0.5918 -0.2999
12860SOL    HW139150   3.956   2.019   4.305 -0.6598  1.1528 -1.3523
12860SOL    HW239151   3.854   2.068   4.406  0.0650  0.8838 -0.4780
12861SOL     OW39152   5.523   4.288   2.815  0.2871  0.1690  0.3519
12861SOL    HW139153   5.432   4.301   2.840  0.1237 -1.0969  0.4819
12861SOL    HW239154   5.573   4.334   2.882 -0.2470  2.7418 -0.8975
12862SOL     OW39155   3.040   6.363   5.289 -0.1119  0.1425 -0.0297
12862SOL    HW139156   3.111   6.407   5.242  0.6753 -0.3723  0.6378
12862SOL    HW239157   2.991   6.433   5.330  0.5046  0.4673  0.1665
12863SOL     OW39158   6.811   5.286   4.480 -0.0496 -0.0998  0.3763
12863SOL    HW139159   6.783   5.266   4.569  0.0651  1.2085  0.7275
12863SOL    HW239160   6.768   5.220   4.426 -0.0728 -0.9463  1.4000
12864SOL     OW39161   3.195   2.281   7.042  0.3235 -0.0285 -0.4687
12864SOL    HW139162   3.158   2.257   6.958  0.4653  2.4728 -1.3270
12864SOL    HW239163   3.283   2.244   7.042 -0.0924 -1.0533 -0.8762
12865SOL     OW39164   6.007   6.894   7.204 -0.1059 -0.0781 -0.1202
12865SOL    HW139165   6.048   6.955   7.142  1.3948 -0.7801  0.1542
12865SOL    HW239166   6.015   6.808   7.163  1.2420 -0.6084  1.1724
12866SOL     OW39167   4.224   6.701   5.343 -0.1234 -0.1886  0.5446
12866SOL    HW139168   4.231   6.719   5.249 -1.9649 -0.4118  0.3175
12866SOL    HW239169   4.179   6.616   5.348 -1.3888  0.5071  1.6138
12867SOL     OW39170   2.711   6.522   6.838  0.2017 -0.1169 -0.1115
12867SOL    HW139171   2.696   6.475   6.756 -0.6368  1.2407 -0.7772
12867SOL    HW239172   2.802   6.504   6.860  0.0415 -1.6238 -0.5925
12868SOL     OW39173   0.631   3.289   6.480  0.3366  0.2656 -0.2686
12868SOL    HW139174   0.556   3.245   6.440 -0.0305  0.5886  0.0561
12868SOL    HW239175   0.596   3.374   6.509  0.5706  0.0155  0.7922
12869SOL     OW39176   0.437   1.938   4.804  0.2393  0.1221 -0.1749
12869SOL    HW139177   0.454   1.853   4.763  2.0290 -0.7497  2.1722
12869SOL    HW239178   0.425   1.918   4.896 -0.2214  2.3563  0.3094
12870SOL     OW39179   5.346   0.378   0.165  0.1714 -0.2212 -0.8740
12870SOL    HW139180   5.329   0.469   0.190 -0.1553  0.3231 -2.8567
12870SOL    HW239181   5.419   0.384   0.104  1.1096 -1.4790  0.0889
12871SOL     OW39182   1.633   0.913   0.389  0.0333 -0.1794  0.4911
12871SOL    HW139183   1.552   0.964   0.394 -0.2740 -0.3125 -2.1000
12871SOL    HW239184   1.702   0.979   0.377  0.1172 -0.1749  0.9670
12872SOL     OW39185   0.598   3.206   2.233 -0.0459 -0.3431  0.2828
12872SOL    HW139186   0.532   3.174   2.172 -0.6283  1.4318 -0.0773
12872SOL    HW239187   0.671   3.232   2.177 -0.8090  1.8484  0.2022
12873SOL     OW39188   3.101   6.294   0.024  0.3020 -0.0148  0.1923
12873SOL    HW139189   3.172   6.294  -0.041 -0.3426 -1.7610 -0.5731
12873SOL    HW239190   3.138   6.249   0.099  0.6623  0.9571  0.6157
12874SOL     OW39191   3.130   3.414   4.094 -0.2600 -0.1430  0.5098
12874SOL    HW139192   3.149   3.406   4.001  1.2921 -1.1620  0.8670
12874SOL    HW239193   3.214   3.400   4.137 -0.3331  3.0542  2.0197
12875SOL     OW39194   0.044   5.075   0.535  0.0457 -0.4437  0.0044
12875SOL    HW139195  -0.020   5.137   0.568 -0.1753  0.1046 -1.3872
12875SOL    HW239196   0.022   5.065   0.442  1.9153 -0.3022 -0.4881
12876SOL     OW39197   1.108   3.922   4.420  0.7043 -0.2126 -0.0347
12876SOL    HW139198   1.028   3.971   4.439 -0.8091 -3.3640  2.6091
12876SOL    HW239199   1.160   3.928   4.500  1.8394 -0.5862 -0.7143
12877SOL     OW39200   3.629   7.213   0.376  0.4152 -0.5079 -0.5743
12877SOL    HW139201   3.684   7.251   0.444  0.6702 -0.7726 -0.6297
12877SOL    HW239202   3.639   7.118   0.388 -0.5445 -0.5691 -0.1597
12878SOL     OW39203   4.549   0.928   6.874  0.6647  0.3491 -0.5391
12878SOL    HW139204   4.638   0.922   6.910  0.5444 -1.7346 -0.4632
12878SOL    HW239205   4.554   0.998   6.809  1.6505  2.1196  1.3316
12879SOL     OW39206   4.660   2.647   1.364 -0.1284 -0.7206  0.0521
12879SOL    HW139207   4.689   2.677   1.450  2.0616  0.0610 -0.9004
12879SOL    HW239208   4.586   2.704   1.342  0.7919  0.6485  0.4224
12880SOL     OW39209   5.005   3.998   6.129 -0.1004  0.5117 -0.0040
12880SOL    HW139210   5.025   3.928   6.192  0.3657  0.5633 -0.0957
12880SOL    HW239211   4.920   4.032   6.158  0.2482  0.7401  0.7750
12881SOL     OW39212   1.072   5.580   7.323 -0.5778  0.1737 -0.4578
12881SOL    HW139213   1.062   5.487   7.306  0.0514  0.1779 -0.9016
12881SOL    HW239214   1.048   5.591   7.415  1.8085 -0.8523  0.3522
12882SOL     OW39215   5.379   5.194   5.626 -0.0199 -0.0477  0.6002
12882SOL    HW139216   5.316   5.164   5.691 -0.0202  0.9867  1.0819
12882SOL    HW239217   5.432   5.116   5.607 -2.0234 -1.2118 -0.5566
12883SOL     OW39218   2.161   3.609   0.838 -0.1856  0.4413 -0.0124
12883SOL    HW139219   2.083   3.559   0.811 -0.4051  0.2674  0.9243
12883SOL    HW239220   2.132   3.700   0.839  0.3009  0.6605 -2.0383
12884SOL     OW39221   3.259   5.867   1.296 -0.3999 -0.4998 -0.6329
12884SOL    HW139222   3.226   5.938   1.351 -0.2097 -0.5789 -0.4142
12884SOL    HW239223   3.249   5.788   1.350 -0.0695 -0.5559 -0.6480
12885SOL     OW39224   0.417   5.623   5.539  0.5537 -0.0565  0.5060
12885SOL    HW139225   0.333   5.648   5.499  1.3990  0.4093 -1.0757
12885SOL    HW239226   0.452   5.705   5.575  0.9372  0.0271 -0.0440
12886SOL     OW39227   4.344   0.390   0.664 -0.1494 -0.2514  0.7246
12886SOL    HW139228   4.375   0.304   0.636 -0.3110 -0.6318  1.6763
12886SOL    HW239229   4.420   0.447   0.653  0.4863 -0.8842  1.6954
12887SOL     OW39230   2.997   5.755   2.393  0.2946 -0.3640 -0.2503
12887SOL    HW139231   3.014   5.849   2.389 -0.5433 -0.2291 -1.7229
12887SOL    HW239232   2.952   5.742   2.476 -0.4535  0.7042 -0.4655
12888SOL     OW39233   3.896   1.926   0.888  0.3949 -0.6140 -0.1702
12888SOL    HW139234   3.949   1.863   0.839  1.1565  0.7025 -1.1123
12888SOL    HW239235   3.961   1.983   0.931 -0.2599  0.1918 -0.2329
12889SOL     OW39236   7.281   5.251   1.054  0.4426  0.0466 -0.3088
12889SOL    HW139237   7.187   5.253   1.041  0.2429 -2.4830  0.2550
12889SOL    HW239238   7.292   5.274   1.147  0.4710  1.0347 -0.5435
12890SOL     OW39239   0.339   3.977   4.108 -0.1479 -0.0346 -0.0812
12890SOL    HW139240   0.422   3.930   4.114  0.3100  0.6868 -0.5509
12890SOL    HW239241   0.364   4.069   4.095 -0.9910  0.0218 -1.5899
12891SOL     OW39242   5.887   3.508   1.584  0.0887  0.4784  0.3297
12891SOL    HW139243   5.866   3.457   1.506  1.0974  0.8012 -0.1670
12891SOL    HW239244   5.961   3.563   1.558 -1.8249  3.2963  0.3589
12892SOL     OW39245   2.366   0.425   4.762 -0.2705 -0.2316 -0.1198
12892SOL    HW139246   2.347   0.487   4.691  0.0308  1.1604  0.9622
12892SOL    HW239247   2.288   0.371   4.768 -1.2656  1.1554  0.0014
12893SOL     OW39248   4.712   0.038   2.854  0.9206  0.1821 -0.0603
12893SOL    HW139249   4.654   0.105   2.817  1.6055  0.3222 -0.9039
12893SOL    HW239250   4.712   0.056   2.948  0.8954  1.2135 -0.2421
12894SOL     OW39251   1.298   5.409   5.487  0.3255 -0.2729  0.2552
12894SOL    HW139252   1.243   5.437   5.560 -1.1419 -0.1735 -0.8408
12894SOL    HW239253   1.285   5.475   5.420  1.1101 -0.7168 -0.3588
12895SOL     OW39254   4.818   2.425   1.318  0.6516 -1.0938 -0.0999
12895SOL    HW139255   4.762   2.498   1.345  1.0715 -0.8622  0.1695
12895SOL    HW239256   4.757   2.355   1.294  0.2291 -0.4829 -0.8667
12896SOL     OW39257   4.469   1.406   4.956 -0.3850  0.1757 -0.4165
12896SOL    HW139258   4.495   1.372   5.041 -0.9758  0.4495 -0.1249
12896SOL    HW239259   4.545   1.389   4.900 -0.4396 -1.0947 -0.1432
12897SOL     OW39260   0.648   0.636   6.428 -0.4469  0.0193  0.7248
12897SOL    HW139261   0.655   0.693   6.505  0.9712  0.1451  0.5326
12897SOL    HW239262   0.629   0.696   6.356  0.3571  0.1763  0.6358
12898SOL     OW39263   3.921   3.190   3.727  0.1116  0.2148 -0.1360
12898SOL    HW139264   3.834   3.165   3.696  0.2232 -1.7367  1.0103
12898SOL    HW239265   3.978   3.117   3.702  1.2496  1.0468 -0.0591
12899SOL     OW39266   0.021   3.487   4.659 -0.6282  0.3187  0.2183
12899SOL    HW139267   0.054   3.561   4.606 -1.6709 -0.6796 -1.9633
12899SOL    HW239268  -0.058   3.459   4.613  1.3581 -4.1587 -1.0311
12900SOL     OW39269   0.273   4.421   4.206  0.0566 -0.0181  0.3240
12900SOL    HW139270   0.279   4.480   4.131 -1.1623 -1.1322 -0.7219
12900SOL    HW239271   0.226   4.344   4.171  1.6123 -1.6172  1.6093
12901SOL     OW39272   2.355   3.631   5.510 -0.1788 -0.4951  0.0480
12901SOL    HW139273   2.317   3.609   5.425  0.3769 -0.5751 -0.1799
12901SOL    HW239274   2.410   3.557   5.532  0.3240 -0.1152  0.0919
12902SOL     OW39275   4.722   0.320   1.016  0.3613  0.3776 -0.0610
12902SOL    HW139276   4.672   0.337   0.936  0.4572 -0.9914 -0.4447
12902SOL    HW239277   4.665   0.262   1.068  1.4237 -1.0292 -0.4123
12903SOL     OW39278   2.108   3.410   4.551  0.0430  0.1859 -0.3011
12903SOL    HW139279   2.165   3.473   4.594 -1.1180  0.2362  1.2640
12903SOL    HW239280   2.156   3.383   4.473  1.3852  1.5661  0.0020
12904SOL     OW39281   5.631   4.028   0.881  0.6230  0.6354  0.4937
12904SOL    HW139282   5.647   3.937   0.906 -1.6764 -0.3424 -1.1744
12904SOL    HW239283   5.606   4.072   0.962 -0.0845 -0.7190  1.0326
12905SOL     OW39284   2.917   3.503   6.031  0.5005 -0.1430 -0.0963
12905SOL    HW139285   2.872   3.527   6.112  0.8766  0.7108 -0.1357
12905SOL    HW239286   2.847   3.495   5.966 -0.0598 -2.7716  0.7059
12906SOL     OW39287   6.659   0.073   3.708  0.4213 -0.5977 -0.0103
12906SOL    HW139288   6.700   0.141   3.655  1.0411 -1.9566 -1.3261
12906SOL    HW239289   6.661  -0.006   3.654 -0.6972 -1.5802  1.2863
12907SOL     OW39290   1.113   0.922   0.091 -0.3585 -0.4501  0.2488
12907SOL    HW139291   1.044   0.904   0.155  0.9346  2.1316  2.5664
12907SOL    HW239292   1.194   0.896   0.135  0.4658 -0.0181 -0.9639
12908SOL     OW39293   2.986   2.802   4.667 -0.6068  0.0691  0.5184
12908SOL    HW139294   2.914   2.782   4.608  0.9244 -0.3342 -1.2808
12908SOL    HW239295   3.050   2.733   4.652  0.8647  1.3017  0.8541
12909SOL     OW39296   2.153   0.596   0.434  0.3927  0.2162  0.0227
12909SOL    HW139297   2.156   0.653   0.511  0.9229  1.1835 -0.6917
12909SOL    HW239298   2.167   0.508   0.469 -1.6427  0.3335  1.2991
12910SOL     OW39299   0.726   3.627   4.615 -0.2491  0.4127 -0.0346
12910SOL    HW139300   0.812   3.669   4.609  0.2223 -0.3565  0.9841
12910SOL    HW239301   0.684   3.645   4.531  1.5836 -0.6039 -1.2357
12911SOL     OW39302   3.805   5.900   5.349 -0.0961  0.2526 -0.2774
12911SOL    HW139303   3.714   5.916   5.323 -0.5442  0.2019  1.1769
12911SOL    HW239304   3.854   5.975   5.315 -0.8379  0.7311 -0.3023
12912SOL     OW39305   6.585   3.277   5.093 -0.5628 -0.1842 -0.1189
12912SOL    HW139306   6.552   3.244   5.010 -1.2566 -0.8775  0.4178
12912SOL    HW239307   6.599   3.198   5.146  2.7925 -0.0582 -0.5899
12913SOL     OW39308   6.780   1.627   6.633  0.5008 -0.0218  0.5229
12913SOL    HW139309   6.781   1.655   6.542  0.2534 -1.6281  0.0027
12913SOL    HW239310   6.822   1.699   6.681 -2.2497  2.3894 -0.3800
12914SOL     OW39311   6.975   2.536   0.177 -0.2317 -0.6651 -0.7587
12914SOL    HW139312   7.043   2.534   0.244 -0.8825  0.3137 -0.0379
12914SOL    HW239313   6.938   2.448   0.177 -0.6583 -0.5041  0.6411
12915SOL     OW39314   4.470   2.709   6.971 -0.1175  0.2925  0.0892
12915SOL    HW139315   4.493   2.704   7.064 -1.4662 -0.1615  0.4262
12915SOL    HW239316   4.549   2.680   6.925  0.3425 -0.1484  1.1198
12916SOL     OW39317   0.854   6.704   1.858 -0.4784  0.7758 -0.2896
12916SOL    HW139318   0.909   6.696   1.936 -0.3741 -1.7955 -0.5551
12916SOL    HW239319   0.875   6.627   1.806 -2.6393  0.9667 -1.5308
12917SOL     OW39320   5.301   3.759   6.629 -0.3631 -0.0431 -0.2493
12917SOL    HW139321   5.351   3.832   6.666  1.2788 -0.7352 -0.9735
12917SOL    HW239322   5.342   3.681   6.666 -2.7000 -0.6553  1.2632
12918SOL     OW39323   4.426   0.942   2.236 -0.5959  0.3633  0.9072
12918SOL    HW139324   4.361   0.983   2.180  0.1920  1.8270  1.0057
12918SOL    HW239325   4.457   0.866   2.187  0.5623  1.9789 -0.9790
12919SOL     OW39326   0.056   7.343   5.841 -0.4821 -0.0324  0.0663
12919SOL    HW139327   0.149   7.353   5.818  0.1337 -1.7377  1.5285
12919SOL    HW239328   0.055   7.270   5.904 -2.8853 -0.4044 -0.3118
12920SOL     OW39329   1.857   7.006   6.347  0.2806 -0.3332 -0.7327
12920SOL    HW139330   1.919   7.051   6.404 -1.7084  0.3254  1.0600
12920SOL    HW239331   1.813   7.077   6.298 -1.8448 -0.3067  1.0406
12921SOL     OW39332   2.953   5.585   3.881 -0.1983  0.0813  0.3144
12921SOL    HW139333   3.026   5.525   3.866  0.5674  0.3085  2.6274
12921SOL    HW239334   2.885   5.530   3.920  0.2063  0.5016  1.6880
12922SOL     OW39335   0.442   0.459   1.428  0.0188  0.0374  0.5163
12922SOL    HW139336   0.419   0.380   1.477 -2.0542 -0.3354 -0.9273
12922SOL    HW239337   0.384   0.527   1.462  1.1011  0.7093  1.0586
12923SOL     OW39338   1.792   2.495   1.571  0.6351 -0.2691  0.1963
12923SOL    HW139339   1.886   2.477   1.570  0.6206 -0.5261 -1.7923
12923SOL    HW239340   1.783   2.578   1.524 -0.1598 -0.4838 -0.0549
12924SOL     OW39341   6.774   4.479   2.755 -0.3424  0.2018  0.2844
12924SOL    HW139342   6.774   4.450   2.847 -0.1075 -0.6616  0.0174
12924SOL    HW239343   6.866   4.474   2.729 -0.6616 -1.7186 -0.6512
12925SOL     OW39344   1.384   0.066   1.943  0.3262 -0.1742  0.1210
12925SOL    HW139345   1.317   0.096   1.881 -0.0148 -2.5404 -0.7726
12925SOL    HW239346   1.400   0.141   2.000 -1.9561  0.9597 -0.6149
12926SOL     OW39347   4.098   2.208   5.186  0.0936 -0.0759 -0.0808
12926SOL    HW139348   4.163   2.262   5.231 -0.5514  1.0625 -0.4711
12926SOL    HW239349   4.135   2.120   5.187  0.6677  0.1450  1.5667
12927SOL     OW39350   7.225   7.094   2.071  0.0068 -0.6002  0.5495
12927SOL    HW139351   7.312   7.126   2.048 -0.7979  1.5785  0.3575
12927SOL    HW239352   7.201   7.035   2.000  1.6813 -2.0280  1.0924
12928SOL     OW39353   5.792   6.432   1.165 -0.1941 -0.4750 -0.4520
12928SOL    HW139354   5.702   6.405   1.147 -0.3024 -0.6303  0.2684
12928SOL    HW239355   5.798   6.433   1.261  0.8870 -1.5206 -0.4817
12929SOL     OW39356   4.516   1.603   0.428 -0.0009 -0.1903  0.0609
12929SOL    HW139357   4.429   1.612   0.390  0.1577  0.9699 -0.0699
12929SOL    HW239358   4.549   1.520   0.394 -1.3478 -1.0550  0.7532
12930SOL     OW39359   0.846   4.701   6.567 -0.0487  0.6693  0.1935
12930SOL    HW139360   0.822   4.689   6.659  0.0090  1.2847  0.2925
12930SOL    HW239361   0.801   4.630   6.521 -0.9029  0.9544  0.5668
12931SOL     OW39362   5.258   2.863   4.554  0.0696 -0.5764  0.3295
12931SOL    HW139363   5.348   2.836   4.535 -0.3274 -1.7177 -0.0340
12931SOL    HW239364   5.260   2.894   4.645  1.1366  0.9271 -0.1649
12932SOL     OW39365   3.627   7.235   4.272 -0.0781 -0.5569  0.5048
12932SOL    HW139366   3.556   7.224   4.209  0.5398  1.1174 -0.5425
12932SOL    HW239367   3.706   7.242   4.219  0.3629  1.7088  1.3701
12933SOL     OW39368   1.778   0.942   1.364  0.2289  0.2309 -0.0325
12933SOL    HW139369   1.855   0.899   1.326 -0.5685  0.3223 -1.8022
12933SOL    HW239370   1.787   0.927   1.458  2.4396  0.2766 -0.1821
12934SOL     OW39371   0.847   1.684   1.797 -0.2036  0.0991  0.1950
12934SOL    HW139372   0.881   1.596   1.815 -0.2590  0.6420  3.4957
12934SOL    HW239373   0.925   1.739   1.790 -0.2146  0.0734 -0.1396
12935SOL     OW39374   0.140   2.964   4.690 -0.5759  0.3661 -0.3050
12935SOL    HW139375   0.165   3.012   4.769 -0.5864  1.2935 -0.8521
12935SOL    HW239376   0.194   3.003   4.621 -2.1171  1.0616 -1.1559
12936SOL     OW39377   0.119   2.506   3.619 -0.2678 -0.1737 -0.0137
12936SOL    HW139378   0.180   2.503   3.545 -0.7810 -3.7939 -0.4873
12936SOL    HW239379   0.035   2.530   3.580 -0.0949  0.1237 -0.2054
12937SOL     OW39380   5.672   4.684   3.072 -0.4341  0.2356  0.2423
12937SOL    HW139381   5.640   4.772   3.051  0.4508  0.4799 -0.1258
12937SOL    HW239382   5.742   4.697   3.135  0.8369 -0.0437 -1.0396
12938SOL     OW39383   0.235   3.340   6.553 -0.7435  0.2560 -0.6499
12938SOL    HW139384   0.252   3.419   6.501 -0.4031  1.0459  0.6079
12938SOL    HW239385   0.305   3.280   6.527 -0.3924  0.7496 -0.8787
12939SOL     OW39386   3.445   7.320   3.104  0.0518 -0.5313  0.0421
12939SOL    HW139387   3.385   7.357   3.169  1.0998 -3.1655  2.7213
12939SOL    HW239388   3.390   7.267   3.047 -0.6094  0.1129  0.0681
12940SOL     OW39389   6.719   3.630   2.318  0.4133  0.1817 -0.1875
12940SOL    HW139390   6.722   3.539   2.347 -0.7663  0.0851 -0.3490
12940SOL    HW239391   6.672   3.628   2.235 -3.3683  1.3501  1.7229
12941SOL     OW39392   1.665   0.518   7.345  0.1436 -0.2046 -0.0209
12941SOL    HW139393   1.740   0.468   7.379  0.5971 -0.4295 -1.2984
12941SOL    HW239394   1.668   0.601   7.393  0.8631 -0.4410  0.3596
12942SOL     OW39395   5.824   5.122   6.717  0.5472 -0.7267  0.2747
12942SOL    HW139396   5.735   5.094   6.739 -0.1171  0.3808 -0.8738
12942SOL    HW239397   5.840   5.198   6.772  0.0509  0.1960 -0.8197
12943SOL     OW39398   2.615   6.657   4.497 -0.0582  0.4161  0.9009
12943SOL    HW139399   2.526   6.669   4.530 -0.0517 -0.4180  1.2226
12943SOL    HW239400   2.604   6.643   4.403 -0.0914  2.5943  0.5275
12944SOL     OW39401   1.793   6.043   2.185 -0.2508  0.0915 -0.2571
12944SOL    HW139402   1.802   5.970   2.123 -2.5507 -0.6265  0.1275
12944SOL    HW239403   1.727   6.012   2.247  0.3715  1.6742  1.2443
12945SOL     OW39404   6.942   1.636   5.972  0.6820  0.1142 -0.1221
12945SOL    HW139405   6.979   1.548   5.978  2.0340  0.6168 -0.7076
12945SOL    HW239406   6.938   1.654   5.879  0.5415  0.7229 -0.0026
12946SOL     OW39407   6.238   6.871   3.658 -0.0506  0.0000 -0.2385
12946SOL    HW139408   6.269   6.804   3.718  1.7616  0.6549 -0.3745
12946SOL    HW239409   6.280   6.952   3.688 -2.2101  1.1189 -0.0376
12947SOL     OW39410   1.710   5.750   3.144 -0.1281  0.1637 -0.2587
12947SOL    HW139411   1.730   5.831   3.190 -1.4905  1.2252 -1.4428
12947SOL    HW239412   1.729   5.768   3.052 -0.5669 -0.8119 -0.5598
12948SOL     OW39413   0.274   0.509   0.481 -0.4772  0.4056  0.0314
12948SOL    HW139414   0.369   0.518   0.486 -0.6022  2.3601 -0.1338
12948SOL    HW239415   0.260   0.426   0.437  1.1200 -0.6106  1.3213
12949SOL     OW39416   6.903   5.267   1.565  0.1731  0.1979 -0.1656
12949SOL    HW139417   6.866   5.179   1.559 -0.3630  0.4304 -0.3013
12949SOL    HW239418   6.951   5.277   1.483  0.0031  0.1355 -0.2746
12950SOL     OW39419   0.281   0.219   6.132 -0.2106 -0.1188  0.3912
12950SOL    HW139420   0.324   0.298   6.100 -1.2276  0.6163  0.7794
12950SOL    HW239421   0.283   0.158   6.058  0.5160  0.2918  0.0639
12951SOL     OW39422   2.124   4.851   6.245  0.0714 -0.3529 -0.1562
12951SOL    HW139423   2.144   4.911   6.317 -1.2909 -0.0971  0.0179
12951SOL    HW239424   2.199   4.791   6.243  0.7961  0.5042  0.5523
12952SOL     OW39425   3.251   6.268   2.321  0.2033  0.4935  0.7528
12952SOL    HW139426   3.273   6.319   2.244 -0.0553  0.1222  0.4281
12952SOL    HW239427   3.287   6.318   2.394  0.6664  0.7248  0.3755
12953SOL     OW39428   5.836   3.123   3.595  0.0656 -0.4213 -0.1105
12953SOL    HW139429   5.752   3.105   3.639  0.7052 -3.4656  0.0702
12953SOL    HW239430   5.810   3.160   3.510 -1.3448  0.8836  0.8251
12954SOL     OW39431   4.236   7.185   3.625 -0.5678  0.0165  0.5799
12954SOL    HW139432   4.272   7.223   3.545 -2.6168  0.7960 -0.0432
12954SOL    HW239433   4.174   7.119   3.593 -1.2589  0.1912  1.5289
12955SOL     OW39434   2.681   1.722   3.780 -0.4987  0.3204 -0.3872
12955SOL    HW139435   2.769   1.758   3.769  0.0434 -0.3920  1.3803
12955SOL    HW239436   2.623   1.795   3.756  0.5531  1.0286 -0.8827
12956SOL     OW39437   4.389   4.620   1.769  0.1829 -0.2105  0.7558
12956SOL    HW139438   4.315   4.665   1.729 -0.2304 -1.3603  0.1767
12956SOL    HW239439   4.350   4.549   1.820  0.8968 -1.1395  0.0488
12957SOL     OW39440   5.110   6.271   1.767  0.3521 -0.3734  0.0649
12957SOL    HW139441   5.024   6.300   1.796 -0.6317 -0.3870 -2.5363
12957SOL    HW239442   5.125   6.317   1.684  3.2174  0.1757  0.7617
12958SOL     OW39443   2.555   5.872   4.008 -0.5742 -0.2303  0.1085
12958SOL    HW139444   2.504   5.804   4.052 -1.3497  1.7203  2.4154
12958SOL    HW239445   2.501   5.897   3.932 -0.7865 -1.3844 -0.1443
12959SOL     OW39446   3.823   0.782   4.167  0.3366 -0.1012  0.4207
12959SOL    HW139447   3.729   0.776   4.154  0.1945 -0.8614  1.5922
12959SOL    HW239448   3.854   0.837   4.095 -0.9532 -0.0694 -0.1420
12960SOL     OW39449   0.808   4.812   6.106 -0.4464 -0.0479  0.2271
12960SOL    HW139450   0.780   4.831   6.017  2.1988 -1.5958 -1.0848
12960SOL    HW239451   0.890   4.861   6.117 -1.7199  1.7893  2.6661
12961SOL     OW39452   1.163   4.745   5.817 -0.0989  0.5102  0.0515
12961SOL    HW139453   1.222   4.815   5.789 -1.2188  0.8607 -1.6063
12961SOL    HW239454   1.202   4.665   5.784 -1.2245  0.8832 -2.4316
12962SOL     OW39455   2.866   5.327   3.756 -0.3475 -0.0565  0.2454
12962SOL    HW139456   2.788   5.373   3.726 -0.3648  0.7871  1.5092
12962SOL    HW239457   2.838   5.280   3.834 -0.3793 -2.4394 -1.1289
12963SOL     OW39458   6.996   5.657   5.479 -0.0023  0.5081 -0.6991
12963SOL    HW139459   6.973   5.735   5.530 -0.7953 -0.0654 -0.1695
12963SOL    HW239460   6.949   5.586   5.521  1.8561 -0.5285 -0.2743
12964SOL     OW39461   7.149   1.836   5.733  0.2869  0.2644  0.5490
12964SOL    HW139462   7.072   1.787   5.703  1.3562 -0.8238 -0.5356
12964SOL    HW239463   7.129   1.927   5.713 -0.3135 -0.1146 -0.6666
12965SOL     OW39464   0.615   0.957   4.696 -0.3703  0.5598  0.0241
12965SOL    HW139465   0.683   0.890   4.701 -1.7849 -0.9277  0.0451
12965SOL    HW239466   0.616   0.999   4.782 -0.4393 -0.4284  0.5116
12966SOL     OW39467   5.245   7.223   6.817  0.4776 -0.4932  0.4610
12966SOL    HW139468   5.330   7.266   6.817  0.4326 -0.3846 -0.2156
12966SOL    HW239469   5.190   7.277   6.873 -0.3626  1.9828 -2.4425
12967SOL     OW39470   3.188   2.091   5.985 -0.3255  0.3545  0.6076
12967SOL    HW139471   3.167   2.098   6.078  1.2933  2.0230  0.9138
12967SOL    HW239472   3.245   2.014   5.979  0.5092  0.9176  1.2003
12968SOL     OW39473   3.731   7.357   1.591  0.1302  0.2005  0.7506
12968SOL    HW139474   3.768   7.380   1.506 -0.5904 -1.3630 -0.0412
12968SOL    HW239475   3.659   7.418   1.603  0.1421  0.3426  0.1576
12969SOL     OW39476   1.859   3.918   3.454 -0.3318 -0.4902 -0.4805
12969SOL    HW139477   1.910   3.839   3.434  0.5793  0.4045 -1.9248
12969SOL    HW239478   1.924   3.981   3.486 -1.3388 -0.9084  2.7393
12970SOL     OW39479   6.142   1.837   4.499  0.0266  0.0261 -1.0985
12970SOL    HW139480   6.157   1.881   4.583  0.4011 -1.0057 -0.6071
12970SOL    HW239481   6.170   1.901   4.433 -0.5964  0.9864 -0.4706
12971SOL     OW39482   4.658   7.111   0.535  0.4002 -0.1926  0.2845
12971SOL    HW139483   4.669   7.047   0.606 -0.4104 -1.5290 -0.7454
12971SOL    HW239484   4.728   7.174   0.549  0.6433 -0.7638  1.9057
12972SOL     OW39485   5.536   4.486   4.339  0.2478  0.4758 -0.9754
12972SOL    HW139486   5.629   4.504   4.325  0.0455  2.8211  0.1849
12972SOL    HW239487   5.498   4.571   4.359 -1.7035 -0.7350  1.0130
12973SOL     OW39488   0.673   6.312   1.809 -0.0651  0.0102 -0.0734
12973SOL    HW139489   0.737   6.316   1.738  0.6605  1.0556  0.6107
12973SOL    HW239490   0.588   6.322   1.766  0.1195 -2.2696 -1.0954
12974SOL     OW39491   5.956   2.276   7.085 -0.0241 -0.6422 -0.5102
12974SOL    HW139492   6.020   2.323   7.031 -0.4869  1.0368  0.3344
12974SOL    HW239493   5.871   2.301   7.049 -0.3056 -0.1782  0.4459
12975SOL     OW39494   1.799   5.093   6.876  0.2460 -0.5502  0.4614
12975SOL    HW139495   1.803   5.169   6.818  1.0696 -0.5741  0.4659
12975SOL    HW239496   1.795   5.018   6.816  2.2630 -0.6450  0.3548
12976SOL     OW39497   0.723   1.312   4.525 -0.1820  0.4612 -0.0686
12976SOL    HW139498   0.780   1.298   4.449  0.4764 -0.2741  0.5315
12976SOL    HW239499   0.782   1.349   4.592 -0.3178 -0.6051  0.6652
12977SOL     OW39500   4.480   1.873   6.433 -0.5437 -0.4175  0.5065
12977SOL    HW139501   4.502   1.961   6.464  1.3814 -0.3077 -0.9383
12977SOL    HW239502   4.562   1.824   6.444 -1.3093 -1.7543  0.3674
12978SOL     OW39503   7.433   0.132   2.406  0.4091  0.4356  1.0447
12978SOL    HW139504   7.397   0.123   2.494 -0.5075 -0.6901  0.5896
12978SOL    HW239505   7.506   0.070   2.403  0.2225  0.2188  0.9148
12979SOL     OW39506   6.851   2.936   0.904  0.0918  0.0660  0.0309
12979SOL    HW139507   6.806   2.870   0.851 -1.5713 -0.4527  1.9630
12979SOL    HW239508   6.842   3.017   0.853  1.3232 -0.9473 -1.9262
12980SOL     OW39509   2.646   6.498   1.214 -0.5951  0.5106 -0.2752
12980SOL    HW139510   2.708   6.438   1.256 -0.4152  0.5179 -0.5320
12980SOL    HW239511   2.647   6.474   1.122 -1.0491  0.4463 -0.2665
12981SOL     OW39512   1.631   0.833   4.965  0.3868  0.0728 -0.1864
12981SOL    HW139513   1.579   0.758   4.938 -0.3032  0.0848  1.0058
12981SOL    HW239514   1.568   0.904   4.978  0.9694  0.7294 -0.8411
12982SOL     OW39515   0.048   7.359   6.880 -0.0149 -0.1233  0.0136
12982SOL    HW139516   0.129   7.410   6.878 -0.9092  1.3714  0.2671
12982SOL    HW239517  -0.019   7.419   6.848 -1.3075 -0.7541  1.4002
12983SOL     OW39518   0.002   0.646   0.706  0.0962 -0.3044  0.2426
12983SOL    HW139519  -0.013   0.707   0.779 -2.6023 -0.6207  0.0715
12983SOL    HW239520   0.064   0.691   0.649 -0.6751  1.6392  0.8567
12984SOL     OW39521   0.297   6.319   2.234  0.0752  0.0162  0.1477
12984SOL    HW139522   0.275   6.315   2.141  1.7135 -1.9989 -0.2387
12984SOL    HW239523   0.215   6.342   2.277 -1.2120 -0.9253 -1.6574
12985SOL     OW39524   7.346   3.512   6.285 -0.1964 -0.1791 -0.0176
12985SOL    HW139525   7.373   3.568   6.212 -1.4584 -0.4064 -0.7040
12985SOL    HW239526   7.312   3.574   6.350  0.0802 -0.0313 -0.0127
12986SOL     OW39527   6.773   2.333   4.111  0.5032  0.3816  0.2417
12986SOL    HW139528   6.755   2.253   4.159  2.2173  1.0877  2.2506
12986SOL    HW239529   6.827   2.306   4.037 -1.3883 -0.6135 -0.8397
12987SOL     OW39530   2.084   3.350   4.170  0.0574 -0.6818 -0.0207
12987SOL    HW139531   2.007   3.295   4.175 -1.4889  1.3834  0.4117
12987SOL    HW239532   2.135   3.328   4.248 -1.6457  0.0253  1.3611
12988SOL     OW39533   1.015   0.816   1.317  0.1424  0.3845 -0.0527
12988SOL    HW139534   1.063   0.755   1.372 -1.6751 -0.8831  0.2240
12988SOL    HW239535   1.015   0.898   1.366  0.2267 -0.1718  0.9056
12989SOL     OW39536   3.703   3.861   0.163  0.0172 -0.5785 -0.4687
12989SOL    HW139537   3.740   3.874   0.250 -0.4014  1.8040 -0.5862
12989SOL    HW239538   3.764   3.903   0.103  1.2596 -3.7212 -1.6528
12990SOL     OW39539   4.776   5.459   0.818 -0.1121 -0.1395 -0.1543
12990SOL    HW139540   4.777   5.371   0.779  0.2845 -0.8713  1.4493
12990SOL    HW239541   4.869   5.480   0.832 -0.1472  0.9325 -1.3196
12991SOL     OW39542   1.797   3.973   5.253 -0.0815  0.4278 -0.7706
12991SOL    HW139543   1.839   4.049   5.295  1.0857 -0.2307 -0.7002
12991SOL    HW239544   1.802   3.904   5.319  0.5218 -0.2211 -1.4701
12992SOL     OW39545   2.406   3.905   1.591 -0.0357 -0.1853 -0.3919
12992SOL    HW139546   2.462   3.953   1.529 -2.0846  0.1178 -2.1498
12992SOL    HW239547   2.406   3.959   1.670  2.5983 -0.5357 -0.0693
12993SOL     OW39548   6.150   1.053   5.512  0.4334 -0.0886 -0.2642
12993SOL    HW139549   6.076   1.020   5.563  1.2558  1.3440  2.0230
12993SOL    HW239550   6.110   1.094   5.435 -1.1343  0.3333  0.7311
12994SOL     OW39551   1.716   3.240   1.561 -0.4878  0.2375  0.3027
12994SOL    HW139552   1.733   3.146   1.569 -1.2745  0.1018  0.5229
12994SOL    HW239553   1.705   3.254   1.467  1.8403  0.5399  0.0222
12995SOL     OW39554   2.143   2.732   0.665 -0.0674 -0.4521 -0.0180
12995SOL    HW139555   2.233   2.702   0.655  0.2497 -0.7246  2.9437
12995SOL    HW239556   2.135   2.804   0.602  1.7818 -1.2028 -1.2023
12996SOL     OW39557   0.524   0.833   5.340  0.0810 -0.4968 -0.1352
12996SOL    HW139558   0.435   0.846   5.373 -0.8260 -1.1460 -2.1747
12996SOL    HW239559   0.570   0.914   5.363 -1.0334 -0.1208  0.8955
12997SOL     OW39560   6.511   6.046   6.737  0.3173  0.6803 -0.3962
12997SOL    HW139561   6.543   6.124   6.690  1.4206  1.6574  1.8425
12997SOL    HW239562   6.416   6.055   6.735  0.3572  1.1447 -1.6497
12998SOL     OW39563   0.602   4.439   0.228  0.2184  0.2957 -0.4929
12998SOL    HW139564   0.579   4.503   0.296 -0.8189 -1.3290  0.7982
12998SOL    HW239565   0.563   4.357   0.260  2.7201 -1.3133 -1.3198
12999SOL     OW39566   0.438   4.260   0.389 -0.0663 -0.2841  1.1005
12999SOL    HW139567   0.357   4.287   0.432 -0.0331  0.2798  0.8145
12999SOL    HW239568   0.410   4.192   0.327 -0.1821 -0.7449  1.6445
13000SOL     OW39569   0.974   5.311   3.651  0.3224 -0.8285  0.9215
13000SOL    HW139570   0.994   5.350   3.736  0.5285  0.5582  0.2696
13000SOL    HW239571   0.882   5.285   3.657 -0.0559  0.4810  1.1478
13001SOL     OW39572   2.152   6.811   4.585 -0.3459 -0.3821  0.4796
13001SOL    HW139573   2.075   6.755   4.569 -0.2130 -1.2003  2.4308
13001SOL    HW239574   2.176   6.793   4.675  2.5224 -0.5794 -0.2398
13002SOL     OW39575   6.014   4.397   4.756  0.2312 -0.6519 -0.2638
13002SOL    HW139576   5.921   4.391   4.734 -0.0254  1.3389  0.0475
13002SOL    HW239577   6.030   4.323   4.814 -1.1601 -1.0464 -0.3465
13003SOL     OW39578   6.559   2.083   3.460  0.1551  0.2336 -0.1316
13003SOL    HW139579   6.491   2.077   3.393  1.6346 -0.6967 -1.6180
13003SOL    HW239580   6.570   1.994   3.492  2.6013 -0.2639 -2.0045
13004SOL     OW39581   5.175   0.524   5.990 -0.4693 -0.6781 -0.3604
13004SOL    HW139582   5.164   0.484   6.076  0.8036 -0.9471 -0.3014
13004SOL    HW239583   5.130   0.465   5.930 -0.9445 -0.7427  0.0504
13005SOL     OW39584   3.133   0.635   0.150  0.6329 -0.0759 -0.0171
13005SOL    HW139585   3.146   0.666   0.239  2.6077 -2.8709  0.7937
13005SOL    HW239586   3.182   0.696   0.095  0.3576  0.9920  0.9024
13006SOL     OW39587   5.773   6.816   1.850 -0.0462 -0.2076  0.3973
13006SOL    HW139588   5.747   6.867   1.927  1.1733  2.2799 -0.7418
13006SOL    HW239589   5.823   6.742   1.886  0.0364  0.5901  2.0144
13007SOL     OW39590   3.222   1.957   7.403 -0.0655  0.0343 -0.0519
13007SOL    HW139591   3.184   2.044   7.392  0.9531  0.6418  0.9873
13007SOL    HW239592   3.249   1.954   7.495  0.1042 -1.3073 -0.1265
13008SOL     OW39593   5.765   7.426   7.158  0.1312 -0.2726 -0.8264
13008SOL    HW139594   5.855   7.458   7.156 -0.1765  0.6346 -0.5424
13008SOL    HW239595   5.770   7.342   7.203  1.2119 -1.5379 -3.0989
13009SOL     OW39596   1.512   2.850   4.618  0.7237  0.1507 -0.2240
13009SOL    HW139597   1.458   2.929   4.616  0.1984 -0.1816  0.5200
13009SOL    HW239598   1.508   2.820   4.708  0.3002 -1.1557 -0.6516
13010SOL     OW39599   1.823   6.088   0.857 -0.0044  0.2521 -0.0621
13010SOL    HW139600   1.842   6.134   0.775  0.5125 -1.0787 -0.7272
13010SOL    HW239601   1.891   6.117   0.918  0.6685 -0.0656 -0.6503
13011SOL     OW39602   3.292   5.115   6.044 -0.1757 -0.5080 -0.4509
13011SOL    HW139603   3.215   5.062   6.023 -0.5495 -0.7921  1.4052
13011SOL    HW239604   3.364   5.053   6.044 -0.1852 -0.5188 -0.8110
13012SOL     OW39605   5.549   4.691   2.466  0.8689  0.2194 -0.4615
13012SOL    HW139606   5.461   4.728   2.471  1.0122  0.5274 -0.1020
13012SOL    HW239607   5.543   4.609   2.515  0.5261 -0.2935 -1.3407
13013SOL     OW39608   6.090   6.781   5.400  0.0642 -0.1378 -0.3602
13013SOL    HW139609   6.066   6.765   5.309 -1.3995  0.0384 -0.0189
13013SOL    HW239610   6.085   6.876   5.411  1.1887 -0.0650 -0.3353
13014SOL     OW39611   1.003   5.825   1.005  0.1752 -0.5534 -0.6553
13014SOL    HW139612   0.993   5.792   0.915 -0.9669 -1.0299 -0.3763
13014SOL    HW239613   0.993   5.920   0.997  1.2376 -0.4672 -1.1680
13015SOL     OW39614   0.835   3.720   2.489 -0.0508 -0.4289 -0.2946
13015SOL    HW139615   0.844   3.641   2.543 -2.4833 -1.1883 -0.8548
13015SOL    HW239616   0.857   3.691   2.400 -1.2364 -0.6106 -0.5516
13016SOL     OW39617   5.167   5.306   1.609  0.2038 -0.7017 -0.1959
13016SOL    HW139618   5.200   5.216   1.604 -0.4545 -0.9545 -0.1445
13016SOL    HW239619   5.130   5.314   1.696  2.6746  0.5129  0.8369
13017SOL     OW39620   7.320   3.184   1.127 -0.2416 -0.2993 -0.8803
13017SOL    HW139621   7.384   3.237   1.079  0.7414  0.1392  0.8237
13017SOL    HW239622   7.254   3.248   1.156  0.3244 -0.1766  0.1764
13018SOL     OW39623   5.696   1.975   6.918  0.7591 -0.0844  0.4925
13018SOL    HW139624   5.745   2.049   6.884 -0.2975  0.7290  0.6809
13018SOL    HW239625   5.747   1.898   6.892  2.5818  0.7436  1.4502
13019SOL     OW39626   3.213   5.258   4.178 -0.0229  0.1462 -0.3393
13019SOL    HW139627   3.247   5.197   4.244  0.5176  0.1149 -0.6365
13019SOL    HW239628   3.121   5.269   4.200  0.1903  0.2755  0.5329
13020SOL     OW39629   3.302   2.521   3.153 -0.0083 -0.4958  0.4191
13020SOL    HW139630   3.346   2.576   3.088  0.9845 -1.6766  0.0460
13020SOL    HW239631   3.328   2.431   3.130 -1.1646 -1.0879  1.3104
13021SOL     OW39632   5.951   4.717   5.981 -0.0691  0.4030 -0.0180
13021SOL    HW139633   5.890   4.789   5.971 -0.1084  0.6166  1.4416
13021SOL    HW239634   5.961   4.681   5.893 -2.9153 -0.1668 -0.2079
13022SOL     OW39635   3.326   6.782   4.164 -0.1635  0.2294 -0.1043
13022SOL    HW139636   3.403   6.803   4.112 -1.4486 -0.3594 -2.4411
13022SOL    HW239637   3.313   6.688   4.148 -1.5945  0.4195 -0.1631
13023SOL     OW39638   0.472   6.843   6.210  0.4845  0.2065  0.6077
13023SOL    HW139639   0.498   6.755   6.183 -0.7949 -0.3064  0.9611
13023SOL    HW239640   0.532   6.865   6.281  0.7640 -0.4147  0.5724
13024SOL     OW39641   1.371   0.786   3.346 -0.0186  0.3515 -0.1052
13024SOL    HW139642   1.456   0.768   3.386 -0.3716 -1.1424  0.0626
13024SOL    HW239643   1.308   0.773   3.417 -0.6052 -1.7728 -0.9097
13025SOL     OW39644   1.669   3.968   0.284 -0.3867  0.2388  0.0059
13025SOL    HW139645   1.742   3.959   0.344 -0.3906  2.1120  0.3580
13025SOL    HW239646   1.705   4.013   0.208 -0.8628 -0.1350 -0.4543
13026SOL     OW39647   6.152   5.689   3.437  0.1415 -0.1131 -0.5821
13026SOL    HW139648   6.137   5.764   3.379  1.6225 -0.7451 -1.8742
13026SOL    HW239649   6.248   5.684   3.444  0.0660 -1.7873 -0.4078
13027SOL     OW39650   6.398   0.436   4.975  0.2909 -0.2267 -0.2533
13027SOL    HW139651   6.415   0.451   4.883  2.6877 -0.0976  0.1514
13027SOL    HW239652   6.415   0.521   5.017 -0.0285 -0.4743  0.3966
13028SOL     OW39653   6.673   5.955   3.098  0.2617  0.6046 -0.5177
13028SOL    HW139654   6.641   6.028   3.151  1.0607  0.8874 -0.4015
13028SOL    HW239655   6.605   5.942   3.032  0.5586  2.1775 -1.2056
13029SOL     OW39656   2.617   6.050   6.130 -0.0169 -0.0571  0.0613
13029SOL    HW139657   2.596   6.143   6.121  0.5917  0.0711 -0.0926
13029SOL    HW239658   2.534   6.005   6.118 -0.5922  0.5438  1.5899
13030SOL     OW39659   2.596   0.191   4.285 -0.0396 -0.1757 -0.4944
13030SOL    HW139660   2.583   0.286   4.281 -1.4307 -0.3557 -0.7019
13030SOL    HW239661   2.572   0.167   4.375 -0.6718 -0.4499 -0.7277
13031SOL     OW39662   1.108   0.875   4.505 -0.1766 -0.3064 -0.2818
13031SOL    HW139663   1.094   0.940   4.436  2.6411 -0.3172 -0.9960
13031SOL    HW239664   1.047   0.805   4.484 -2.0472  1.3147 -0.5088
13032SOL     OW39665   0.148   0.821   1.102 -0.0922  0.0075  0.4275
13032SOL    HW139666   0.238   0.848   1.082  0.0286  0.0799  1.0272
13032SOL    HW239667   0.132   0.745   1.047  0.7154 -0.6534  1.0805
13033SOL     OW39668   1.312   2.603   3.602  0.4404  0.0037 -0.7863
13033SOL    HW139669   1.385   2.567   3.551 -0.4810 -1.3170 -1.2049
13033SOL    HW239670   1.293   2.537   3.668 -2.5935 -1.3743 -2.8075
13034SOL     OW39671   0.547   4.248   7.106 -0.9534 -0.1971 -0.6049
13034SOL    HW139672   0.509   4.298   7.034 -2.6223  0.0020  0.3647
13034SOL    HW239673   0.473   4.231   7.165  0.9191  3.2984  3.2605
13035SOL     OW39674   6.976   3.158   3.449  0.3475  0.0417  0.6418
13035SOL    HW139675   7.059   3.176   3.405  0.1880  1.6121  0.8983
13035SOL    HW239676   6.946   3.075   3.412  0.9055  0.5938 -1.1592
13036SOL     OW39677   6.716   2.010   2.843 -0.1198  0.2904  0.1453
13036SOL    HW139678   6.690   1.971   2.927 -2.3474  0.2867 -0.4833
13036SOL    HW239679   6.758   1.939   2.796 -2.2884 -0.8530 -0.1772
13037SOL     OW39680   3.004   1.636   6.961  0.2572  0.6216  0.2830
13037SOL    HW139681   2.947   1.654   7.035 -1.7488 -1.6986 -0.5901
13037SOL    HW239682   3.054   1.558   6.987 -0.6267 -0.3495 -0.8274
13038SOL     OW39683   1.686   3.542   2.064  0.2077 -0.3981  0.2651
13038SOL    HW139684   1.672   3.617   2.006  0.9040  0.0780  0.6985
13038SOL    HW239685   1.729   3.476   2.009 -1.9432 -1.1771 -0.5842
13039SOL     OW39686   3.223   3.221   5.675 -0.1246 -0.2279  0.3696
13039SOL    HW139687   3.143   3.182   5.640 -1.4557  0.4511  2.4468
13039SOL    HW239688   3.266   3.260   5.599 -0.4916 -2.6769 -1.2068
13040SOL     OW39689   1.331   5.160   1.126  0.3059 -0.1421 -0.2504
13040SOL    HW139690   1.340   5.065   1.137  1.3804 -0.2048 -1.4674
13040SOL    HW239691   1.253   5.170   1.070 -0.5099 -0.2215  0.8412
13041SOL     OW39692   3.702   3.061   5.288 -0.1189 -0.3561 -0.0374
13041SOL    HW139693   3.793   3.040   5.308  0.0766  0.8464  0.4390
13041SOL    HW239694   3.677   2.999   5.220  1.6315  0.4929 -1.5342
13042SOL     OW39695   5.838   6.203   6.977 -0.4590 -0.2535  0.0073
13042SOL    HW139696   5.760   6.152   7.000 -1.1879  0.7139 -0.2149
13042SOL    HW239697   5.822   6.289   7.016  1.7566 -0.7731  2.2836
13043SOL     OW39698   5.012   5.022   4.280 -0.0342 -0.1526 -0.2103
13043SOL    HW139699   4.954   4.970   4.224  0.4728 -0.8694 -0.0820
13043SOL    HW239700   5.088   4.966   4.295  0.1496  0.2992  0.6279
13044SOL     OW39701   3.907   5.144   7.341 -0.0251 -0.4538  0.7235
13044SOL    HW139702   3.958   5.186   7.272 -1.6145  1.2952  0.5081
13044SOL    HW239703   3.957   5.159   7.421 -0.5407  2.0386  0.6642
13045SOL     OW39704   4.565   2.590   2.061  0.2013 -0.1244  0.8334
13045SOL    HW139705   4.637   2.560   2.005  1.1180  0.7679  1.5165
13045SOL    HW239706   4.550   2.518   2.122 -1.9292 -1.8429 -1.5007
13046SOL     OW39707   0.505   0.171   2.364  0.6843 -0.2311 -0.2991
13046SOL    HW139708   0.458   0.209   2.439  2.6387  0.9196  0.4199
13046SOL    HW239709   0.548   0.093   2.400  0.8885 -0.1881 -0.4512
13047SOL     OW39710   2.387   1.514   7.142 -0.7620 -0.0071  0.2852
13047SOL    HW139711   2.301   1.478   7.163 -0.8279 -0.6331 -0.9464
13047SOL    HW239712   2.368   1.596   7.096 -0.7255 -0.3080 -0.2797
13048SOL     OW39713   7.098   4.211   5.835  0.6610  0.1686 -0.7181
13048SOL    HW139714   7.170   4.150   5.820  1.0941  0.5172 -0.1046
13048SOL    HW239715   7.130   4.295   5.800  0.7363  0.4270 -0.0455
13049SOL     OW39716   2.416   1.732   3.427 -0.2780  0.3266  0.9942
13049SOL    HW139717   2.350   1.751   3.494 -0.8277 -0.0908  0.5786
13049SOL    HW239718   2.377   1.663   3.374  0.5795 -0.0644  0.8568
13050SOL     OW39719   1.610   6.275   4.332  0.1556  0.2528  0.4174
13050SOL    HW139720   1.702   6.291   4.311 -0.2766 -0.1779 -2.2049
13050SOL    HW239721   1.606   6.181   4.350  0.2022  0.2290  0.3060
13051SOL     OW39722   0.643   1.527   2.968  0.0448 -0.5559  0.4276
13051SOL    HW139723   0.565   1.572   3.001 -1.4003 -0.9740 -2.1499
13051SOL    HW239724   0.705   1.597   2.950  0.2489 -0.1981  2.2626
13052SOL     OW39725   6.801   0.675   3.397 -0.4596  0.3089 -0.1439
13052SOL    HW139726   6.803   0.672   3.492  2.1148 -0.4339 -0.1474
13052SOL    HW239727   6.725   0.622   3.373 -0.1642 -0.9321  1.4887
13053SOL     OW39728   5.848   5.983   3.102 -0.1939 -0.2672  0.8008
13053SOL    HW139729   5.937   6.011   3.122 -0.2373 -0.9804  2.1239
13053SOL    HW239730   5.851   5.958   3.010  1.4889 -2.1238  1.2915
13054SOL     OW39731   7.221   1.420   0.198 -0.0901 -0.1928  0.4751
13054SOL    HW139732   7.282   1.444   0.128 -2.5392  1.6415 -1.1427
13054SOL    HW239733   7.244   1.329   0.218  2.2461 -0.0177 -1.0052
13055SOL     OW39734   6.221   7.035   4.914 -0.1140 -0.4290 -0.4185
13055SOL    HW139735   6.209   6.968   4.981 -2.0440 -0.0007 -0.2585
13055SOL    HW239736   6.222   7.118   4.963  3.7382 -0.2649 -0.4394
13056SOL     OW39737   2.174   0.733   4.756 -0.3917 -0.2404 -0.5884
13056SOL    HW139738   2.152   0.664   4.695 -0.0286 -0.2228 -0.7428
13056SOL    HW239739   2.268   0.747   4.744  0.1046 -1.5607  1.3082
13057SOL     OW39740   0.344   3.480   2.536 -0.5414 -0.6011  0.1006
13057SOL    HW139741   0.370   3.404   2.588 -1.2368 -1.3129 -0.5609
13057SOL    HW239742   0.424   3.506   2.490 -0.6727 -2.0264 -0.9998
13058SOL     OW39743   5.635   2.466   3.794 -0.1838 -0.1893  0.5625
13058SOL    HW139744   5.645   2.470   3.889 -0.3242 -1.8446  0.6724
13058SOL    HW239745   5.717   2.426   3.763 -0.3846 -0.2112  0.0481
13059SOL     OW39746   5.621   1.975   1.169  0.3202  0.0808 -0.2201
13059SOL    HW139747   5.557   1.931   1.225  1.1169  0.2522  0.8584
13059SOL    HW239748   5.621   1.924   1.088  0.4065 -1.2407  0.5788
13060SOL     OW39749   6.231   0.764   6.824 -0.0348 -0.3661  0.5224
13060SOL    HW139750   6.210   0.673   6.843 -0.9801 -0.2437  0.1403
13060SOL    HW239751   6.192   0.813   6.897  0.9794 -0.3018  1.0368
13061SOL     OW39752   0.967   3.511   4.208 -0.1735  0.2425  0.1896
13061SOL    HW139753   1.034   3.545   4.149  0.7625 -1.2583  0.3246
13061SOL    HW239754   1.015   3.454   4.268 -1.5572 -0.7821  0.3701
13062SOL     OW39755   2.362   6.746   5.808 -0.1806  0.1570  0.0956
13062SOL    HW139756   2.416   6.724   5.884  0.4582  1.3427  0.0228
13062SOL    HW239757   2.388   6.836   5.786 -1.4886  0.4074 -0.5537
13063SOL     OW39758   0.666   3.806   4.828 -0.8563  0.6216 -0.7104
13063SOL    HW139759   0.665   3.744   4.755 -0.0725 -1.4252  0.8964
13063SOL    HW239760   0.749   3.789   4.872 -1.3315  1.7442  0.6900
13064SOL     OW39761   0.358   5.543   1.917  0.0845 -0.3327 -0.3174
13064SOL    HW139762   0.424   5.563   1.983 -0.7559  0.3414  0.3284
13064SOL    HW239763   0.369   5.611   1.851  0.7348 -0.8425 -0.7494
13065SOL     OW39764   4.132   4.004   6.705 -0.2462  0.4164 -0.0116
13065SOL    HW139765   4.104   4.060   6.633  0.2259  0.8581  0.1445
13065SOL    HW239766   4.051   3.962   6.736 -0.6121  1.0605 -0.0793
13066SOL     OW39767   0.816   3.094   6.115 -0.4990 -0.2134 -0.0107
13066SOL    HW139768   0.752   3.032   6.079 -2.2714  1.9760 -0.9001
13066SOL    HW239769   0.867   3.122   6.039  0.8385 -1.1532  0.5221
13067SOL     OW39770   1.916   0.701   3.235  0.0737 -0.3613 -0.2311
13067SOL    HW139771   1.876   0.703   3.148 -1.3601  0.5270  0.4134
13067SOL    HW239772   1.903   0.789   3.270  2.6711  0.0103  0.0303
13068SOL     OW39773   2.916   7.295   2.071 -0.1307  0.3818  0.6566
13068SOL    HW139774   2.974   7.222   2.094  0.0237  0.9993  2.3882
13068SOL    HW239775   2.924   7.303   1.976  1.6921 -0.3442  0.6951
13069SOL     OW39776   5.391   5.747   7.065 -0.8047  1.1330 -0.2287
13069SOL    HW139777   5.323   5.684   7.040 -1.0548  0.7853  1.1847
13069SOL    HW239778   5.456   5.743   6.996 -1.1872 -0.1395 -0.5296
13070SOL     OW39779   2.498   7.252   1.860  0.3193 -0.5559 -0.5949
13070SOL    HW139780   2.549   7.230   1.781 -0.7238  1.1753 -1.8206
13070SOL    HW239781   2.564   7.265   1.928  1.3593 -0.6298 -1.5523
13071SOL     OW39782   0.117   6.964   0.971  0.1016 -0.0375 -0.2745
13071SOL    HW139783   0.084   7.051   0.993  0.6822  0.0173  0.4224
13071SOL    HW239784   0.170   6.978   0.892 -1.2588 -0.0773 -1.2204
13072SOL     OW39785   1.000   3.493   0.377  0.2593 -0.4605 -0.3139
13072SOL    HW139786   1.002   3.432   0.451 -0.5710  0.4887  0.5215
13072SOL    HW239787   0.929   3.462   0.322  0.5625 -0.8872 -0.4710
13073SOL     OW39788   6.024   6.056   3.715 -0.0074  0.1971  0.2342
13073SOL    HW139789   6.028   6.115   3.640  1.9409  1.1567  1.0143
13073SOL    HW239790   6.039   6.112   3.791 -2.1637 -0.7110  1.4174
13074SOL     OW39791   5.023   4.697   0.371  0.2796 -0.4273 -0.4338
13074SOL    HW139792   5.032   4.789   0.395 -2.0163 -0.6674  1.7825
13074SOL    HW239793   4.939   4.691   0.326  0.3619 -1.4461 -0.4844
13075SOL     OW39794   2.586   5.503   6.824  0.7242  0.4314  0.4888
13075SOL    HW139795   2.652   5.552   6.775 -0.0219  0.7534 -0.2263
13075SOL    HW239796   2.619   5.501   6.914  0.9072  2.0539  0.4948
13076SOL     OW39797   3.386   5.988   5.642  0.0426  0.2358  0.1837
13076SOL    HW139798   3.333   5.992   5.563  1.4016 -1.1348 -0.8544
13076SOL    HW239799   3.376   5.898   5.673 -1.3728  1.0354  2.2751
13077SOL     OW39800   5.138   4.029   2.660 -0.1647 -0.5765 -0.9787
13077SOL    HW139801   5.200   3.960   2.635  1.2454  0.2341  0.0805
13077SOL    HW239802   5.187   4.111   2.647 -1.1899  0.1286 -0.5624
13078SOL     OW39803   1.323   5.798   0.902 -0.4909  0.1192 -0.1888
13078SOL    HW139804   1.278   5.859   0.959  0.1731  1.7521 -1.3290
13078SOL    HW239805   1.405   5.842   0.879  0.3470 -1.5079 -0.4967
13079SOL     OW39806   4.464   5.764   5.089  0.1451  0.0328 -0.3874
13079SOL    HW139807   4.431   5.847   5.123  0.9435  0.0510  0.3804
13079SOL    HW239808   4.465   5.705   5.164  2.7951  0.3397 -0.0755
13080SOL     OW39809   0.087   4.934   1.621  0.2380 -0.4874  0.1110
13080SOL    HW139810   0.117   4.925   1.711 -0.1449 -1.1378  0.1786
13080SOL    HW239811   0.165   4.962   1.572  0.9954 -2.2557  0.2608
13081SOL     OW39812   1.514   1.333   4.182  0.0424  0.1891 -0.1637
13081SOL    HW139813   1.567   1.254   4.172  1.9185  1.0551  2.1412
13081SOL    HW239814   1.424   1.300   4.191  0.8572 -1.8216  1.5629
13082SOL     OW39815   3.708   0.590   0.373  0.2383 -0.2398  0.1769
13082SOL    HW139816   3.784   0.576   0.430 -0.3855  0.8139  1.3123
13082SOL    HW239817   3.670   0.503   0.364 -0.2132 -0.3090  2.2260
13083SOL     OW39818   3.672   5.013   0.334 -0.5212 -0.3448  0.3019
13083SOL    HW139819   3.641   5.030   0.245 -0.9117 -0.1162  0.4739
13083SOL    HW239820   3.591   4.996   0.384 -0.4014  0.5519  0.8268
13084SOL     OW39821   6.593   1.509   6.183 -0.2217  0.0470 -0.0532
13084SOL    HW139822   6.618   1.590   6.138 -1.0895 -0.1534 -0.9576
13084SOL    HW239823   6.584   1.534   6.275  0.1324  0.8273 -0.2234
13085SOL     OW39824   1.986   1.091   7.164 -0.3144  0.4103  0.6015
13085SOL    HW139825   1.975   1.023   7.098 -1.6996  1.7463 -0.6432
13085SOL    HW239826   2.076   1.120   7.154 -0.5247  0.6629 -0.8430
13086SOL     OW39827   3.736   6.419   2.491  0.0095  0.4333  0.2098
13086SOL    HW139828   3.803   6.384   2.550 -0.6276 -2.7016 -0.6816
13086SOL    HW239829   3.669   6.455   2.548  0.4517 -0.4552  1.3281
13087SOL     OW39830   2.194   2.582   3.080 -0.0970 -0.1932  0.3445
13087SOL    HW139831   2.146   2.499   3.090  0.7908 -0.8933 -0.9302
13087SOL    HW239832   2.134   2.638   3.030  0.0831 -0.8012 -0.5831
13088SOL     OW39833   5.439   4.730   4.501 -0.3575  0.2011  0.5079
13088SOL    HW139834   5.431   4.675   4.580 -0.5484  1.7277  1.6036
13088SOL    HW239835   5.519   4.781   4.516 -0.4546  0.5836 -0.2530
13089SOL     OW39836   6.512   4.212   5.322  0.4791  0.2533 -0.2621
13089SOL    HW139837   6.433   4.264   5.309  0.5479  0.3940 -0.1254
13089SOL    HW239838   6.583   4.269   5.293  0.8194  1.2568  2.1997
13090SOL     OW39839   1.278   6.448   1.287  0.0431 -0.5388 -0.0160
13090SOL    HW139840   1.191   6.489   1.289  0.1572 -0.3299  1.3040
13090SOL    HW239841   1.275   6.391   1.210 -1.2978 -0.6256  0.0692
13091SOL     OW39842   2.035   4.497   5.864  0.1194  0.3242 -0.7021
13091SOL    HW139843   1.950   4.492   5.907  0.1696 -2.4757 -0.7047
13091SOL    HW239844   2.015   4.479   5.772  0.6421  0.4254 -0.8365
13092SOL     OW39845   5.963   3.552   4.411  0.6768 -0.5726 -0.1355
13092SOL    HW139846   5.987   3.587   4.325  1.7287  1.9638  1.1016
13092SOL    HW239847   5.872   3.581   4.424  0.9959  0.2990  0.1915
13093SOL     OW39848   0.119   3.434   3.448  0.2564  0.0689  0.2126
13093SOL    HW139849   0.095   3.342   3.457 -0.6593  0.3579  0.9493
13093SOL    HW239850   0.199   3.443   3.499  0.8374 -0.4890 -0.5786
13094SOL     OW39851   1.472   1.145   6.549 -0.1799  0.0914  0.4298
13094SOL    HW139852   1.424   1.067   6.523 -0.2087  0.4863 -0.7607
13094SOL    HW239853   1.564   1.123   6.533 -0.3336  1.2318 -2.7305
13095SOL     OW39854   6.257   5.110   5.007 -0.0145  0.0151  0.1493
13095SOL    HW139855   6.239   5.177   5.072  1.5425 -0.3876  1.0369
13095SOL    HW239856   6.209   5.033   5.038  1.9747 -0.6653  1.7861
13096SOL     OW39857   6.803   4.346   1.408  0.3077 -0.1289  0.1300
13096SOL    HW139858   6.737   4.413   1.428 -0.2412 -0.2221 -1.2631
13096SOL    HW239859   6.770   4.303   1.329  0.8077 -1.8512  0.8114
13097SOL     OW39860   5.504   2.322   0.447  0.0382 -0.2075  0.2797
13097SOL    HW139861   5.489   2.409   0.484 -0.2638  0.0636 -0.4577
13097SOL    HW239862   5.535   2.339   0.358 -0.6504 -0.8509 -0.0970
13098SOL     OW39863   0.440   7.030   7.020 -0.2633 -0.2150 -0.7489
13098SOL    HW139864   0.535   7.018   7.027 -0.3739 -1.3420 -0.9714
13098SOL    HW239865   0.411   6.957   6.964 -1.3384 -0.2384 -0.1801
13099SOL     OW39866   5.326   1.281   3.836 -0.7012  0.3140  0.0800
13099SOL    HW139867   5.378   1.316   3.764 -0.1825 -0.3401  0.1347
13099SOL    HW239868   5.386   1.280   3.911 -0.7122 -0.6673  0.0835
13100SOL     OW39869   4.687   4.986   1.111  0.3138 -0.2912  0.1475
13100SOL    HW139870   4.654   4.896   1.117 -0.5413  0.0719  1.1452
13100SOL    HW239871   4.635   5.035   1.174  0.1510  1.1120 -1.0349
13101SOL     OW39872   6.660   0.301   5.043  0.0093  0.0676 -0.5161
13101SOL    HW139873   6.611   0.302   5.125 -0.0824  0.5825 -0.5733
13101SOL    HW239874   6.630   0.379   4.996  0.7972  0.3312 -0.5992
13102SOL     OW39875   5.102   1.035   4.216 -0.2322 -0.1733  0.3011
13102SOL    HW139876   5.024   1.005   4.263  0.4939 -0.3334  1.4384
13102SOL    HW239877   5.172   0.978   4.246  0.8235  1.5213  1.2095
13103SOL     OW39878   6.146   4.910   1.985 -0.9748  0.1171 -0.3617
13103SOL    HW139879   6.083   4.980   1.965 -1.1942 -0.5809 -2.2654
13103SOL    HW239880   6.166   4.870   1.901 -0.4941 -1.8380  0.6194
13104SOL     OW39881   1.612   4.528   1.275  0.0750 -0.1803 -0.1864
13104SOL    HW139882   1.679   4.528   1.207 -0.4116 -0.1169 -0.6726
13104SOL    HW239883   1.580   4.437   1.277 -0.5070  0.0076 -0.6451
13105SOL     OW39884   5.488   6.192   2.043  0.1875 -0.2451  0.1502
13105SOL    HW139885   5.443   6.193   1.959 -0.6618 -0.9577  0.5872
13105SOL    HW239886   5.524   6.281   2.051 -2.2192  0.8052  0.3435
13106SOL     OW39887   3.479   2.121   2.663 -0.1194 -0.4896  0.3584
13106SOL    HW139888   3.418   2.192   2.642 -1.3720 -1.2389  1.2564
13106SOL    HW239889   3.563   2.149   2.627 -0.8640  0.8575 -0.4148
13107SOL     OW39890   2.468   4.634   2.229  0.6669 -0.8010 -0.1715
13107SOL    HW139891   2.482   4.543   2.256  1.0604 -0.8908 -0.6741
13107SOL    HW239892   2.538   4.683   2.272  0.8721 -0.8396 -0.4606
13108SOL     OW39893   1.777   7.048   4.885  0.0437 -0.0314  0.1396
13108SOL    HW139894   1.758   6.958   4.860 -0.3906 -0.1518  0.8929
13108SOL    HW239895   1.810   7.042   4.974  1.0104  0.4557 -0.1658
13109SOL     OW39896   5.330   7.244   1.143 -0.2780 -0.3321 -0.4390
13109SOL    HW139897   5.244   7.287   1.140 -0.2246 -0.2694 -2.4110
13109SOL    HW239898   5.392   7.312   1.116  0.2950 -0.5916  0.2159
13110SOL     OW39899   0.150   1.735   2.729  0.2993 -0.0770  0.4861
13110SOL    HW139900   0.071   1.698   2.691  2.0989 -3.1596 -0.6370
13110SOL    HW239901   0.213   1.737   2.657  1.6941  0.8364  1.6665
13111SOL     OW39902   5.597   6.102   7.037 -0.7698  0.6075 -0.1029
13111SOL    HW139903   5.591   6.024   7.092  0.0895  0.5086 -0.1405
13111SOL    HW239904   5.506   6.129   7.023 -1.0285  0.1879  0.7314
13112SOL     OW39905   3.839   1.072   4.359  0.0862  0.2802  0.0442
13112SOL    HW139906   3.761   1.028   4.390  1.2387 -0.9584  1.3165
13112SOL    HW239907   3.831   1.071   4.263 -1.2947 -0.0686  0.1507
13113SOL     OW39908   4.799   6.051   5.286  0.3277  0.3631 -0.0193
13113SOL    HW139909   4.784   6.105   5.364  0.1723  0.1899  0.0715
13113SOL    HW239910   4.763   6.102   5.214 -2.0459 -0.6260  0.3493
13114SOL     OW39911   6.925   4.233   3.955  0.6252  0.0231  0.4847
13114SOL    HW139912   6.976   4.194   4.026  0.4625  0.7678  1.0207
13114SOL    HW239913   6.836   4.203   3.969  0.7838 -0.7200 -0.0518
13115SOL     OW39914   2.065   5.948   3.713 -0.5589 -0.1810 -0.4297
13115SOL    HW139915   1.981   5.993   3.726 -0.1697  0.9457 -1.5579
13115SOL    HW239916   2.042   5.855   3.713 -1.5663  0.0366  0.7958
13116SOL     OW39917   5.828   4.511   1.962 -0.5305  0.2676 -0.3195
13116SOL    HW139918   5.771   4.435   1.947 -0.9952  0.1474  1.7804
13116SOL    HW239919   5.787   4.581   1.910 -1.5365 -0.2841 -0.2981
13117SOL     OW39920   1.158   5.316   0.074  0.1228 -0.4791  0.2976
13117SOL    HW139921   1.085   5.302   0.014 -0.0492  1.8215 -0.1192
13117SOL    HW239922   1.159   5.238   0.129 -2.2667 -0.8626 -0.0843
13118SOL     OW39923   2.935   6.694   4.399  0.2062  0.4031  0.4556
13118SOL    HW139924   2.921   6.667   4.490 -2.6289 -1.0110 -0.2739
13118SOL    HW239925   2.886   6.775   4.390 -2.6481 -1.2948 -0.5737
13119SOL     OW39926   1.851   2.062   1.530  0.1369 -0.3526  0.0986
13119SOL    HW139927   1.782   2.025   1.584  2.0995 -1.0963  2.2421
13119SOL    HW239928   1.920   2.086   1.592  1.0902  2.1048 -1.7366
13120SOL     OW39929   6.671   6.198   7.116  0.2375  0.1753 -0.4647
13120SOL    HW139930   6.614   6.133   7.075 -0.4647  0.0453  0.6747
13120SOL    HW239931   6.689   6.261   7.046  0.7122 -1.0761 -1.5174
13121SOL     OW39932   5.698   1.611   6.344 -0.1374  0.0604 -0.1094
13121SOL    HW139933   5.784   1.617   6.302  0.3187  0.5123  0.8497
13121SOL    HW239934   5.670   1.521   6.327  1.0380 -0.4557  0.5034
13122SOL     OW39935   2.078   5.155   5.585  0.6339  0.7665  0.1762
13122SOL    HW139936   2.143   5.147   5.655  0.0779 -1.3686  0.5363
13122SOL    HW239937   1.994   5.147   5.629  0.2758 -1.0834 -0.7058
13123SOL     OW39938   4.527   0.473   7.383  0.4118 -0.1810 -0.0674
13123SOL    HW139939   4.519   0.456   7.476  2.2329 -0.4951  0.0580
13123SOL    HW239940   4.502   0.565   7.373  2.4805  0.5583  1.1174
13124SOL     OW39941   1.135   3.728   6.204 -0.9299  0.5355  0.3347
13124SOL    HW139942   1.075   3.657   6.225 -0.4881 -0.1284 -0.5906
13124SOL    HW239943   1.220   3.697   6.234 -0.4157 -0.1238 -1.6877
13125SOL     OW39944   6.077   6.138   4.444 -0.1726 -0.0109 -0.1876
13125SOL    HW139945   6.070   6.126   4.349 -0.7109  0.8567 -0.2794
13125SOL    HW239946   6.166   6.169   4.458 -0.4710  1.0712 -0.5771
13126SOL     OW39947   5.437   6.722   2.710  0.3785 -0.6195  0.6848
13126SOL    HW139948   5.386   6.743   2.788  0.8808  1.6915  0.4429
13126SOL    HW239949   5.371   6.705   2.642 -0.1844  2.1722  0.4158
13127SOL     OW39950   6.973   7.165   5.638 -0.0945  0.2244  0.6329
13127SOL    HW139951   6.997   7.254   5.613 -1.3635  0.1586 -0.9975
13127SOL    HW239952   7.056   7.118   5.643  0.4594  1.0736 -0.2977
13128SOL     OW39953   3.050   3.860   2.170  0.4292  0.5343  0.8518
13128SOL    HW139954   3.053   3.843   2.264  1.5545 -0.2787  0.6904
13128SOL    HW239955   2.958   3.854   2.147  0.4289 -3.1250  1.2513
13129SOL     OW39956   1.647   5.724   4.427 -0.2450 -0.6569  0.2541
13129SOL    HW139957   1.606   5.639   4.410 -0.1550 -0.8377  0.9187
13129SOL    HW239958   1.733   5.718   4.385 -0.8054 -0.3551 -0.9566
13130SOL     OW39959   0.086   1.007   5.089 -0.3032  0.0386  0.3860
13130SOL    HW139960   0.092   0.938   5.023 -1.4088  0.3169 -0.0290
13130SOL    HW239961   0.008   0.985   5.140 -0.1149  0.4608  0.8734
13131SOL     OW39962   6.279   6.376   7.000  0.7481 -0.6758 -0.2094
13131SOL    HW139963   6.371   6.387   6.975  0.3939  0.4801 -1.0935
13131SOL    HW239964   6.259   6.455   7.050  0.0923 -0.7014 -0.4358
13132SOL     OW39965   6.576   0.879   3.923 -0.3993  0.1298 -0.3084
13132SOL    HW139966   6.648   0.919   3.972 -0.0839  2.1263 -2.2598
13132SOL    HW239967   6.525   0.833   3.990  1.1995  0.8658  1.5296
13133SOL     OW39968   4.954   6.164   2.683  0.0558 -0.3500 -0.2306
13133SOL    HW139969   4.939   6.233   2.619  0.4528  0.1046  0.1539
13133SOL    HW239970   4.875   6.110   2.680 -0.9202  0.9697  0.4966
13134SOL     OW39971   6.635   5.398   5.905 -0.6426 -0.0204  0.3129
13134SOL    HW139972   6.563   5.340   5.932 -0.2048  0.0197  1.6824
13134SOL    HW239973   6.712   5.358   5.945 -0.3932  1.7442  1.6940
13135SOL     OW39974   6.172   0.812   5.284  0.0226 -0.5161 -0.3417
13135SOL    HW139975   6.153   0.744   5.349 -0.6161  1.9321  2.2107
13135SOL    HW239976   6.251   0.855   5.317  0.0987  0.3751 -1.6057
13136SOL     OW39977   4.225   0.749   5.788 -0.0050 -0.2262 -0.0334
13136SOL    HW139978   4.284   0.823   5.773 -0.1192  0.3767  2.1675
13136SOL    HW239979   4.159   0.783   5.849  0.0720 -2.1718  1.2251
13137SOL     OW39980   2.011   4.056   0.772  0.5536 -0.0577 -0.0590
13137SOL    HW139981   1.985   4.096   0.689 -2.0670 -1.6338 -0.1304
13137SOL    HW239982   2.003   4.127   0.836 -1.5362  0.2190 -0.5484
13138SOL     OW39983   3.413   2.576   7.380  0.3437  0.1402  0.0395
13138SOL    HW139984   3.394   2.650   7.322 -1.6738 -0.0986  0.2993
13138SOL    HW239985   3.460   2.513   7.326 -1.6903 -0.1739 -1.4589
13139SOL     OW39986   3.783   1.563   2.027  0.3096  0.7961 -0.8649
13139SOL    HW139987   3.844   1.595   2.093  0.1914 -0.1624 -0.2646
13139SOL    HW239988   3.837   1.508   1.970  0.1856  0.6830 -0.8741
13140SOL     OW39989   0.848   3.371   1.556 -0.2960 -0.1112 -0.6780
13140SOL    HW139990   0.770   3.405   1.600 -1.4023 -3.4304  0.1984
13140SOL    HW239991   0.819   3.288   1.517  2.0201  0.1148 -3.1520
13141SOL     OW39992   1.254   0.358   5.158  0.0378  0.4185 -0.0897
13141SOL    HW139993   1.228   0.367   5.067  1.3266  0.9103 -0.4328
13141SOL    HW239994   1.314   0.430   5.173 -0.4598  0.5758  1.2755
13142SOL     OW39995   4.216   1.439   3.814  0.1488  0.0378  0.2335
13142SOL    HW139996   4.141   1.460   3.757  0.4139  0.1061 -0.0927
13142SOL    HW239997   4.232   1.346   3.797  0.7218  0.2447 -0.3931
13143SOL     OW39998   6.087   2.427   6.888 -0.0033  0.2648 -0.0191
13143SOL    HW139999   6.087   2.394   6.799  0.6878  0.3448 -0.0594
13143SOL    HW240000   6.100   2.521   6.879  0.7493  0.1860  0.1826
13144SOL     OW40001   2.105   1.232   0.336  0.7614 -0.0313 -0.1563
13144SOL    HW140002   2.109   1.225   0.241  2.4236 -0.1675 -0.1197
13144SOL    HW240003   2.194   1.257   0.361 -0.2246  2.4705  1.1923
13145SOL     OW40004   3.170   7.193   4.405 -0.2997 -0.1846 -0.4377
13145SOL    HW140005   3.141   7.266   4.352 -0.6939 -0.5071 -0.6676
13145SOL    HW240006   3.169   7.118   4.346 -1.8647 -0.7838  0.2923
13146SOL     OW40007   3.163   0.218   0.316  0.0758  0.1703 -0.2202
13146SOL    HW140008   3.248   0.177   0.332 -0.0366 -0.5116 -1.2328
13146SOL    HW240009   3.172   0.307   0.350 -0.1727 -1.0621  3.4995
13147SOL     OW40010   7.029   0.574   3.092 -0.0328 -0.2037  0.1785
13147SOL    HW140011   7.053   0.635   3.161 -1.3077  0.8899 -0.2900
13147SOL    HW240012   7.063   0.613   3.012 -1.2264  0.1617 -0.1800
13148SOL     OW40013   0.374   5.275   0.486 -0.4948  0.0684 -0.0876
13148SOL    HW140014   0.405   5.205   0.544  0.3134 -1.3139 -2.0931
13148SOL    HW240015   0.286   5.249   0.461 -0.2235 -0.1929 -0.7772
13149SOL     OW40016   7.243   6.331   6.534 -0.0035  0.2886  0.4564
13149SOL    HW140017   7.199   6.398   6.586  0.1459  0.2537  0.6291
13149SOL    HW240018   7.209   6.248   6.569  0.2903  0.2579  0.6746
13150SOL     OW40019   5.790   6.662   2.780  0.7279 -0.2962  0.1216
13150SOL    HW140020   5.743   6.620   2.708  1.6503 -1.1522 -0.0141
13150SOL    HW240021   5.790   6.755   2.758 -0.9164 -0.2600  0.1629
13151SOL     OW40022   2.394   5.646   5.103 -0.2839  0.1781  0.1258
13151SOL    HW140023   2.382   5.731   5.146 -1.9975 -0.7532  1.6487
13151SOL    HW240024   2.428   5.588   5.172 -2.3834 -1.1687  0.1299
13152SOL     OW40025   5.171   3.921   3.216  0.0397 -0.2806 -0.7574
13152SOL    HW140026   5.145   3.973   3.292 -0.2938 -0.6450 -0.6166
13152SOL    HW240027   5.266   3.922   3.217  0.0411  0.8513 -1.1177
13153SOL     OW40028   4.212   7.137   2.131  0.0747 -0.6638 -0.2765
13153SOL    HW140029   4.192   7.226   2.159  0.6102  0.1040 -2.1684
13153SOL    HW240030   4.302   7.141   2.099 -0.2463 -1.6137 -1.3861
13154SOL     OW40031   3.748   1.235   5.238  0.4355 -0.7380  0.3297
13154SOL    HW140032   3.683   1.175   5.276  0.1267 -0.3073  0.4849
13154SOL    HW240033   3.709   1.322   5.248 -0.4717 -0.7077 -2.4920
13155SOL     OW40034   1.805   6.042   5.777  0.5867  0.0232 -0.1516
13155SOL    HW140035   1.883   6.093   5.755 -0.1057  1.1646 -0.0462
13155SOL    HW240036   1.733   6.103   5.767 -0.1118 -0.4023  1.7946
13156SOL     OW40037   4.993   2.703   6.900 -0.2478 -0.0974  0.3690
13156SOL    HW140038   4.954   2.700   6.987 -0.8730 -0.2473  0.0963
13156SOL    HW240039   5.019   2.794   6.888 -1.8334  0.3402  0.0197
13157SOL     OW40040   3.460   0.495   1.648 -0.6796 -0.3024  0.3728
13157SOL    HW140041   3.433   0.484   1.557  0.1929  1.7380 -0.2058
13157SOL    HW240042   3.551   0.523   1.643 -0.6415 -0.0640  1.8572
13158SOL     OW40043   2.279   2.203   3.361 -0.4298 -0.2288  0.0901
13158SOL    HW140044   2.265   2.292   3.330 -0.0096  0.1060  0.8463
13158SOL    HW240045   2.363   2.178   3.324  0.7836  0.7011  2.0733
13159SOL     OW40046   1.038   4.318   3.145 -0.0517 -0.4833 -0.0972
13159SOL    HW140047   1.044   4.245   3.084  0.1539 -1.5428  1.1518
13159SOL    HW240048   1.073   4.284   3.227 -1.2201  0.6017  0.8867
13160SOL     OW40049   3.650   4.748   2.112 -0.1975  0.3282  0.1807
13160SOL    HW140050   3.611   4.816   2.166 -1.5709  0.3648 -0.8179
13160SOL    HW240051   3.607   4.756   2.028  0.2998 -1.1692 -0.2502
13161SOL     OW40052   4.579   6.927   6.541 -0.1921  0.0642  0.0975
13161SOL    HW140053   4.631   6.856   6.577 -0.8992 -0.7312 -0.4220
13161SOL    HW240054   4.610   7.005   6.588  3.0003  0.0342 -1.6823
13162SOL     OW40055   3.611   6.403   6.118 -0.2078  0.0394  0.1171
13162SOL    HW140056   3.549   6.345   6.073  0.2142 -0.1629 -0.2107
13162SOL    HW240057   3.587   6.491   6.090 -1.2822  0.0952  1.1358
13163SOL     OW40058   3.741   5.566   6.085 -0.1568  0.1381  0.9536
13163SOL    HW140059   3.714   5.625   6.154 -1.8926  0.4933  0.0277
13163SOL    HW240060   3.708   5.606   6.004  0.4704 -1.0265  0.0842
13164SOL     OW40061   5.450   3.183   4.262  0.1909  0.0901 -0.5061
13164SOL    HW140062   5.449   3.108   4.322  0.5014 -1.0718 -1.8877
13164SOL    HW240063   5.408   3.254   4.310  1.6925 -0.3596  1.6084
13165SOL     OW40064   5.960   0.332   3.782 -0.2781 -0.1427  0.0319
13165SOL    HW140065   5.908   0.328   3.701 -0.3870  1.1729  0.0115
13165SOL    HW240066   5.940   0.250   3.828 -1.3603 -0.2430 -0.5893
13166SOL     OW40067   3.163   3.126   3.512  0.1079 -0.3027 -0.4671
13166SOL    HW140068   3.206   3.210   3.527 -0.1003 -0.2571 -0.1325
13166SOL    HW240069   3.163   3.083   3.598 -1.6260  0.2114 -0.1877
13167SOL     OW40070   1.113   3.282   7.141  0.3223 -0.1938 -0.7040
13167SOL    HW140071   1.048   3.221   7.176  0.3699  0.4032  0.5089
13167SOL    HW240072   1.117   3.262   7.048  0.0156 -1.7254 -0.4213
13168SOL     OW40073   0.076   5.098   6.634  0.3640 -0.1731  0.0000
13168SOL    HW140074   0.092   5.192   6.639  3.0158 -0.6141  1.2737
13168SOL    HW240075  -0.012   5.087   6.669  0.5784  1.7002  1.2749
13169SOL     OW40076   1.743   5.757   4.065 -0.2966 -0.5798  0.0697
13169SOL    HW140077   1.809   5.708   4.114  0.9659  0.5335 -0.4576
13169SOL    HW240078   1.720   5.699   3.992 -0.0247 -1.0425  0.3432
13170SOL     OW40079   4.982   2.136   1.914 -0.2298  0.0377 -0.1217
13170SOL    HW140080   4.963   2.096   1.999  0.7643 -1.0216 -0.3693
13170SOL    HW240081   4.911   2.198   1.900 -0.5602  0.0289  1.3522
13171SOL     OW40082   5.749   1.502   1.076  0.1303  0.0029 -0.0490
13171SOL    HW140083   5.731   1.449   1.153 -0.9653  0.4599  0.0145
13171SOL    HW240084   5.732   1.444   1.002  2.0774 -0.7355  0.0155
13172SOL     OW40085   1.817   5.709   7.216  0.2606 -0.2873 -0.0936
13172SOL    HW140086   1.782   5.715   7.304  0.6469  1.4703 -0.0122
13172SOL    HW240087   1.757   5.762   7.163 -0.1014 -1.5133 -0.9509
13173SOL     OW40088   5.536   7.434   1.726 -0.1326 -0.0431  0.0518
13173SOL    HW140089   5.506   7.411   1.638  0.8502  0.6286 -0.4941
13173SOL    HW240090   5.458   7.464   1.772 -0.6809 -0.5290 -0.5535
13174SOL     OW40091   1.345   4.436   0.786  0.4917 -0.2533  0.0129
13174SOL    HW140092   1.362   4.411   0.695 -0.5453 -1.5718  0.1467
13174SOL    HW240093   1.357   4.355   0.836  0.0685  0.2212  0.9117
13175SOL     OW40094   6.702   6.808   5.390 -0.1229  0.0731 -0.3731
13175SOL    HW140095   6.717   6.763   5.473  4.0641 -2.8243 -2.3028
13175SOL    HW240096   6.645   6.748   5.341  0.2058  0.0646 -0.7476
13176SOL     OW40097   5.223   1.605   4.552 -0.5785 -0.6017 -0.4014
13176SOL    HW140098   5.220   1.565   4.639  0.4854 -2.9343 -1.3364
13176SOL    HW240099   5.132   1.617   4.528 -0.8970 -0.2458  0.8748
13177SOL     OW40100   5.346   1.467   1.429 -0.1166  0.3832  1.4910
13177SOL    HW140101   5.303   1.552   1.428  0.1315  0.5198 -0.2344
13177SOL    HW240102   5.275   1.404   1.443 -1.0648  0.5708 -1.7216
13178SOL     OW40103   0.776   1.779   6.629 -0.4744 -0.5597  0.5551
13178SOL    HW140104   0.701   1.764   6.687 -0.2656 -0.2265  0.9179
13178SOL    HW240105   0.848   1.732   6.671 -0.7479 -1.9064 -0.4264
13179SOL     OW40106   6.255   4.532   2.640 -0.1725  0.2038 -0.6538
13179SOL    HW140107   6.252   4.505   2.549  0.3689  0.9723 -0.9055
13179SOL    HW240108   6.341   4.572   2.651  0.1250 -0.6501  0.4200
13180SOL     OW40109   7.409   1.806   5.417 -0.1949 -0.0199 -0.2762
13180SOL    HW140110   7.320   1.837   5.401 -0.8933 -1.7590 -0.0289
13180SOL    HW240111   7.397   1.720   5.458  1.5881  0.4919  1.5038
13181SOL     OW40112   3.264   7.366   1.819  0.7095 -0.7923  0.2703
13181SOL    HW140113   3.305   7.343   1.902 -1.8358 -1.3931  1.4268
13181SOL    HW240114   3.255   7.462   1.823  0.3306 -0.8507  0.8039
13182SOL     OW40115   1.484   1.454   6.918  0.0771 -0.7192 -0.1712
13182SOL    HW140116   1.535   1.502   6.853 -2.0908 -2.2684 -3.2754
13182SOL    HW240117   1.518   1.365   6.914  0.1352 -0.7815  1.1550
13183SOL     OW40118   5.801   0.508   7.225  0.7400 -0.0663  0.3414
13183SOL    HW140119   5.842   0.485   7.141 -0.8368  0.3830 -0.5843
13183SOL    HW240120   5.806   0.603   7.230 -1.4302  0.1433 -0.5007
13184SOL     OW40121   2.672   2.622   5.139 -0.2100 -0.4209  0.2826
13184SOL    HW140122   2.688   2.549   5.199  0.2382 -0.2893  0.3260
13184SOL    HW240123   2.758   2.645   5.105 -0.3874 -0.1123  0.0337
13185SOL     OW40124   0.255   5.513   4.406 -0.1003  0.0730  0.5599
13185SOL    HW140125   0.334   5.567   4.412  1.1624 -1.5803 -0.5007
13185SOL    HW240126   0.236   5.488   4.496  1.5220 -0.7913  0.6882
13186SOL     OW40127   2.372   6.915   6.095 -0.2970 -0.2110  0.4007
13186SOL    HW140128   2.332   6.832   6.070 -0.7903  0.6998 -2.0992
13186SOL    HW240129   2.421   6.895   6.175 -1.1386 -2.6680  0.3720
13187SOL     OW40130   5.590   1.505   1.671  0.6988  0.1918  0.4933
13187SOL    HW140131   5.560   1.495   1.581 -0.5249 -0.2545  0.9239
13187SOL    HW240132   5.674   1.460   1.674  0.3885 -0.4585 -0.2469
13188SOL     OW40133   0.813   6.343   4.957 -0.3657 -1.1202  0.0407
13188SOL    HW140134   0.850   6.317   4.872 -0.2351 -2.1156  0.3922
13188SOL    HW240135   0.824   6.266   5.013  2.8851  0.6192  2.0979
13189SOL     OW40136   3.699   1.253   6.168  0.4960 -0.4938 -0.8386
13189SOL    HW140137   3.756   1.213   6.233 -0.2475  1.5623  1.2411
13189SOL    HW240138   3.727   1.345   6.164 -1.3023  0.0902 -1.2876
13190SOL     OW40139   2.083   0.946   5.255 -0.0580 -0.7559 -0.3390
13190SOL    HW140140   2.080   0.860   5.297  0.0406 -0.7881 -0.3977
13190SOL    HW240141   2.088   0.927   5.162  0.2867 -0.6908 -0.3371
13191SOL     OW40142   2.732   4.064   6.507  0.1294 -0.1087 -0.0945
13191SOL    HW140143   2.769   4.144   6.544 -1.5053  1.1229 -1.0328
13191SOL    HW240144   2.638   4.076   6.512 -0.1530 -1.0536 -2.1779
13192SOL     OW40145   7.288   1.552   6.391  0.0050  0.0195  0.3722
13192SOL    HW140146   7.240   1.576   6.471 -1.2801 -1.0388 -0.0431
13192SOL    HW240147   7.286   1.632   6.338  0.8411  0.7240  1.3599
13193SOL     OW40148   6.248   7.013   3.348 -0.4266  0.2011 -0.1009
13193SOL    HW140149   6.315   7.075   3.377  0.2344 -0.8601  0.7539
13193SOL    HW240150   6.244   6.947   3.418 -3.1717  0.7968  0.4415
13194SOL     OW40151   6.168   6.484   6.049  0.3922  0.0674  0.1825
13194SOL    HW140152   6.172   6.580   6.048  0.5767  0.0551 -0.1018
13194SOL    HW240153   6.140   6.463   6.138  0.3812  0.3848  0.2558
13195SOL     OW40154   0.137   7.385   1.758 -0.0151 -0.3736  0.1918
13195SOL    HW140155   0.203   7.318   1.738  0.1617 -0.5462  1.3275
13195SOL    HW240156   0.114   7.421   1.672  1.2851 -0.5569 -0.2607
13196SOL     OW40157   7.163   6.855   6.353  0.3668 -0.6279 -0.2072
13196SOL    HW140158   7.166   6.932   6.410 -1.5834 -0.2272 -0.5578
13196SOL    HW240159   7.101   6.796   6.395 -0.2446 -0.8087 -1.3174
13197SOL     OW40160   2.142   0.356   2.940  0.6376 -0.5917  0.1733
13197SOL    HW140161   2.157   0.310   3.023 -0.2860  1.7647  1.7823
13197SOL    HW240162   2.199   0.432   2.945 -0.6923  0.4976 -0.5290
13198SOL     OW40163   4.733   7.106   2.075 -0.0069  0.1751  0.2245
13198SOL    HW140164   4.767   7.017   2.065  2.9552  1.3224 -1.1490
13198SOL    HW240165   4.713   7.134   1.985  1.7134  1.7663  0.2833
13199SOL     OW40166   2.972   5.583   6.438  0.6089 -0.3006 -0.2673
13199SOL    HW140167   3.063   5.556   6.432  0.3038 -1.1097 -1.9216
13199SOL    HW240168   2.943   5.590   6.347 -1.5071 -1.8952  0.2023
13200SOL     OW40169   5.303   6.446   5.961  0.2280  0.3469  0.0130
13200SOL    HW140170   5.378   6.398   5.997  0.1460  0.9793  1.0823
13200SOL    HW240171   5.252   6.380   5.914  1.3621 -0.1221 -0.5944
13201SOL     OW40172   2.775   0.696   1.143  0.1813  0.7435 -0.4425
13201SOL    HW140173   2.792   0.773   1.197 -0.0703  0.1334  0.5124
13201SOL    HW240174   2.853   0.688   1.088  0.5690  1.1831  0.0360
13202SOL     OW40175   0.074   0.432   2.555  0.1558 -0.8375  0.4136
13202SOL    HW140176   0.005   0.443   2.490  0.9067  2.0585 -0.0613
13202SOL    HW240177   0.034   0.462   2.637  0.1594 -1.3687  0.6082
13203SOL     OW40178   0.908   4.487   1.736 -1.0227 -0.0958  0.2119
13203SOL    HW140179   0.819   4.472   1.768 -0.4074 -1.5843  1.3173
13203SOL    HW240180   0.912   4.441   1.652 -1.4472  0.5000 -0.1503
13204SOL     OW40181   3.943   4.178   2.410 -0.3787 -0.3840 -0.2003
13204SOL    HW140182   3.863   4.127   2.424 -0.4140 -0.0143  1.0613
13204SOL    HW240183   3.911   4.265   2.384 -0.3296 -0.7953 -1.7168
13205SOL     OW40184   0.949   0.111   4.388 -0.1834 -0.4311  0.0358
13205SOL    HW140185   0.975   0.029   4.347 -1.7716  0.3495 -2.7900
13205SOL    HW240186   0.861   0.094   4.421 -0.2541 -0.0650  0.0405
13206SOL     OW40187   4.857   5.004   6.775 -0.1594 -0.0564 -0.1168
13206SOL    HW140188   4.865   5.011   6.870 -2.6709 -2.2304  0.3642
13206SOL    HW240189   4.831   5.091   6.746  0.2628  0.5287  1.2184
13207SOL     OW40190   4.734   4.153   6.875 -0.0412  0.0094  0.3994
13207SOL    HW140191   4.825   4.176   6.858 -0.1777  0.8124  0.6928
13207SOL    HW240192   4.738   4.086   6.943  0.3867 -1.1888 -0.7656
13208SOL     OW40193   0.635   5.583   6.690 -0.0842 -0.2833 -0.1969
13208SOL    HW140194   0.679   5.668   6.695  0.1679 -0.3851 -0.6127
13208SOL    HW240195   0.700   5.526   6.648  0.1668 -0.9584  1.0534
13209SOL     OW40196   7.273   7.122   3.926 -0.0089  0.5294  0.1131
13209SOL    HW140197   7.265   7.027   3.916 -0.0644  0.4315  0.9525
13209SOL    HW240198   7.313   7.133   4.012  2.6773  1.1861 -1.1135
13210SOL     OW40199   2.346   7.397   1.599 -0.3753 -0.4341 -0.4635
13210SOL    HW140200   2.291   7.338   1.650 -0.5992 -0.3800 -0.6422
13210SOL    HW240201   2.391   7.340   1.537 -0.5357 -0.4254 -0.5873
13211SOL     OW40202   3.323   3.878   2.279  0.3395 -0.2931 -0.3609
13211SOL    HW140203   3.403   3.909   2.237 -0.4398  0.4707 -1.3139
13211SOL    HW240204   3.264   3.859   2.207 -0.4850 -0.4530  0.3481
13212SOL     OW40205   6.972   2.137   2.857 -0.3183  0.1754 -0.1572
13212SOL    HW140206   6.916   2.169   2.786 -1.0566 -1.7210 -0.4704
13212SOL    HW240207   6.911   2.120   2.929 -0.1742 -1.7414 -0.4444
13213SOL     OW40208   4.006   1.801   1.352  0.2773  0.0248  0.0975
13213SOL    HW140209   4.007   1.843   1.438  0.2276  0.8253 -0.2769
13213SOL    HW240210   3.981   1.872   1.292  2.2341 -0.0159 -0.8470
13214SOL     OW40211   5.001   3.964   5.071 -0.1675  0.1081 -0.3758
13214SOL    HW140212   4.961   3.899   5.128 -0.7733 -0.3416 -1.2868
13214SOL    HW240213   5.017   4.039   5.128 -0.4600 -0.4366  0.4497
13215SOL     OW40214   4.526   1.230   4.385 -0.1638 -0.5304 -0.1134
13215SOL    HW140215   4.466   1.304   4.392  0.0682 -0.3162 -0.3447
13215SOL    HW240216   4.519   1.185   4.468 -0.9342 -0.7291 -0.2811
13216SOL     OW40217   2.960   6.779   0.700  0.1763 -0.1579 -0.3178
13216SOL    HW140218   2.919   6.819   0.624  1.4249  1.7409 -0.0565
13216SOL    HW240219   3.053   6.797   0.690  0.3238  0.6236  1.9056
13217SOL     OW40220   3.975   7.051   2.562  0.3186 -0.2945 -0.1761
13217SOL    HW140221   3.926   6.969   2.554 -0.2819  0.0799 -0.3667
13217SOL    HW240222   3.992   7.060   2.656  2.5837 -1.8976 -0.3417
13218SOL     OW40223   0.595   1.704   1.703 -0.4723 -0.3460 -0.1703
13218SOL    HW140224   0.683   1.707   1.740 -0.9250 -0.5643  0.9451
13218SOL    HW240225   0.577   1.794   1.678 -0.4202 -0.0579  0.7879
13219SOL     OW40226   5.026   7.204   2.695  0.4180 -0.1313  0.3024
13219SOL    HW140227   4.991   7.285   2.658 -0.0557 -1.6152 -2.8880
13219SOL    HW240228   5.121   7.212   2.685  0.4391  0.3664  0.8430
13220SOL     OW40229   5.337   2.785   1.223 -0.3251 -0.1522  0.2113
13220SOL    HW140230   5.292   2.740   1.295 -0.5148  1.4405  1.1367
13220SOL    HW240231   5.275   2.782   1.150 -1.1202  0.2866  0.8622
13221SOL     OW40232   6.390   5.807   4.702  0.0961 -0.7090 -0.1215
13221SOL    HW140233   6.347   5.886   4.733 -0.0846 -0.4926 -0.9070
13221SOL    HW240234   6.384   5.812   4.607  0.8643 -1.2326 -0.2074
13222SOL     OW40235   0.003   2.034   6.474  0.5426 -0.1721 -0.3827
13222SOL    HW140236  -0.054   2.005   6.545  0.6008  0.0725 -0.2328
13222SOL    HW240237   0.087   2.052   6.517  0.1304  1.5460 -0.2094
13223SOL     OW40238   1.313   2.313   6.968  0.1150  0.0878 -0.8067
13223SOL    HW140239   1.388   2.263   6.934  1.9062  1.3550  1.0038
13223SOL    HW240240   1.340   2.404   6.961 -0.0644  0.5015  2.2650
13224SOL     OW40241   2.503   6.657   6.021  0.1478 -0.0144 -0.4664
13224SOL    HW140242   2.567   6.591   5.993  1.1979  1.7528 -2.5171
13224SOL    HW240243   2.551   6.711   6.084  0.2605  0.5154 -0.9997
13225SOL     OW40244   6.467   3.838   2.151 -0.2222  0.0469 -0.4600
13225SOL    HW140245   6.472   3.852   2.056  1.7200  0.1394 -0.3883
13225SOL    HW240246   6.475   3.926   2.189  1.7957 -0.1837 -0.2087
13226SOL     OW40247   5.302   7.200   6.504  0.4051  0.3602 -0.0946
13226SOL    HW140248   5.376   7.214   6.445  0.2798 -0.7261 -0.5349
13226SOL    HW240249   5.264   7.117   6.476 -2.1275  1.7440 -1.0956
13227SOL     OW40250   2.544   2.348   6.961  0.1818  0.5543 -0.0083
13227SOL    HW140251   2.549   2.331   7.055  2.4387  2.5117  0.3152
13227SOL    HW240252   2.616   2.296   6.924  1.3246  2.1894 -0.1791
13228SOL     OW40253   5.446   1.284   4.077 -0.0363 -0.1882 -0.2899
13228SOL    HW140254   5.517   1.267   4.138  0.4818 -2.6019 -1.4845
13228SOL    HW240255   5.428   1.378   4.088  4.0306  0.8373 -0.7038
13229SOL     OW40256   4.870   1.538   3.006  0.3051 -0.2950 -0.5907
13229SOL    HW140257   4.891   1.539   2.913 -0.3214 -1.6646 -0.7706
13229SOL    HW240258   4.779   1.568   3.011 -0.3171 -2.0367 -0.6514
13230SOL     OW40259   3.049   4.872   1.552  0.4284  0.2732 -0.5062
13230SOL    HW140260   2.976   4.887   1.612 -1.1114  0.6008 -2.3641
13230SOL    HW240261   3.105   4.949   1.564  0.2665  0.2454  0.6110
13231SOL     OW40262   4.384   3.305   3.277 -0.0572  0.1819 -0.1039
13231SOL    HW140263   4.442   3.348   3.340  0.2540  0.0487 -0.2975
13231SOL    HW240264   4.391   3.212   3.298  0.5925  0.0702 -0.7850
13232SOL     OW40265   5.064   6.791   4.573  0.1690  0.2124 -0.3137
13232SOL    HW140266   5.142   6.734   4.576 -0.1687 -0.2482 -0.2120
13232SOL    HW240267   5.099   6.879   4.585  0.4262 -0.2019  3.2396
13233SOL     OW40268   5.689   6.762   0.282  0.6979 -0.4621  0.9560
13233SOL    HW140269   5.768   6.734   0.237 -0.0202 -0.7133 -0.1951
13233SOL    HW240270   5.631   6.792   0.212 -0.1793 -0.1610  1.7848
13234SOL     OW40271   0.656   1.307   0.072 -0.0755  0.3414  0.5444
13234SOL    HW140272   0.719   1.242   0.043  0.4060  0.5932  1.0173
13234SOL    HW240273   0.600   1.260   0.134 -1.3652 -0.3111 -1.0383
13235SOL     OW40274   2.520   3.320   5.799  0.0361  0.0942  0.2332
13235SOL    HW140275   2.447   3.350   5.745 -0.7825  0.8360  1.6972
13235SOL    HW240276   2.482   3.302   5.885  1.3364 -0.8544  0.6521
13236SOL     OW40277   6.404   4.269   1.282 -0.1524  0.6068 -0.0757
13236SOL    HW140278   6.380   4.188   1.237  0.4245 -0.3961  1.3452
13236SOL    HW240279   6.467   4.311   1.224  0.8067 -0.8014 -0.0990
13237SOL     OW40280   5.667   0.839   6.897  0.8177  0.3891 -0.3402
13237SOL    HW140281   5.747   0.832   6.949 -0.8433 -2.5231  2.1115
13237SOL    HW240282   5.675   0.770   6.831 -0.0659 -0.6609  0.6128
13238SOL     OW40283   6.027   3.711   4.174 -0.4415  0.6796  0.5563
13238SOL    HW140284   6.033   3.804   4.194 -0.0035  0.8548 -0.3402
13238SOL    HW240285   5.983   3.708   4.089  0.8771  0.1632 -0.1337
13239SOL     OW40286   5.625   5.790   2.870 -0.0452 -0.1827 -0.1415
13239SOL    HW140287   5.615   5.773   2.964 -2.4234  0.4834 -0.2171
13239SOL    HW240288   5.596   5.708   2.828  1.6323 -0.7137 -0.3188
13240SOL     OW40289   2.454   1.240   0.542 -0.1904  0.3122  0.2391
13240SOL    HW140290   2.381   1.282   0.586 -0.4404 -0.6937  0.8067
13240SOL    HW240291   2.416   1.165   0.496  0.2799  0.5595 -0.5971
13241SOL     OW40292   3.782   5.579   3.875 -0.4960  0.5187  0.5847
13241SOL    HW140293   3.870   5.601   3.845  0.0735  0.9247  2.3995
13241SOL    HW240294   3.793   5.495   3.921 -0.6046  1.5398  2.5855
13242SOL     OW40295   5.186   6.184   2.138  0.0084  0.4020  0.2879
13242SOL    HW140296   5.264   6.151   2.184  0.7336 -0.2374 -1.3332
13242SOL    HW240297   5.113   6.141   2.183  0.8457 -2.4930 -0.8437
13243SOL     OW40298   1.221   0.970   4.058 -0.0559  0.1609  0.2251
13243SOL    HW140299   1.251   0.927   3.978  1.7730  1.6465  0.0332
13243SOL    HW240300   1.241   0.907   4.127  0.0411 -0.4088 -0.3113
13244SOL     OW40301   2.861   6.967   6.693  0.3821  0.7449 -0.3809
13244SOL    HW140302   2.885   6.931   6.607 -0.6592  0.6367 -0.6459
13244SOL    HW240303   2.794   6.907   6.725  0.1750  1.2498  0.1427
13245SOL     OW40304   4.075   6.100   2.422  0.5431  0.6988 -0.2673
13245SOL    HW140305   4.037   6.178   2.461  1.1730  1.5424 -1.2779
13245SOL    HW240306   4.008   6.033   2.431 -0.6014  1.7546 -0.6801
13246SOL     OW40307   1.603   2.274   0.820  0.4031 -0.1329  0.1854
13246SOL    HW140308   1.665   2.334   0.779 -0.5756 -0.7935 -2.5206
13246SOL    HW240309   1.616   2.191   0.773 -2.3412 -0.3247 -0.4008
13247SOL     OW40310   2.847   4.859   1.737 -0.3257  0.1805 -0.3152
13247SOL    HW140311   2.811   4.902   1.814 -0.1060  0.7240 -0.5186
13247SOL    HW240312   2.885   4.778   1.771  0.6738  0.8886  0.3006
13248SOL     OW40313   0.948   6.394   3.493 -0.2482  0.0509  0.4569
13248SOL    HW140314   0.859   6.392   3.527  0.1033  0.8227  1.4529
13248SOL    HW240315   0.985   6.475   3.527  0.7541 -0.1338 -0.1624
13249SOL     OW40316   3.869   6.813   4.765  0.2794 -0.0288 -0.5291
13249SOL    HW140317   3.776   6.802   4.785  1.0154 -2.7173  2.2817
13249SOL    HW240318   3.884   6.760   4.687 -0.2199 -1.3456  0.2439
13250SOL     OW40319   2.091   7.069   3.252  0.2849 -0.1949  0.0330
13250SOL    HW140320   2.158   7.129   3.285  0.2742  0.7372 -1.5386
13250SOL    HW240321   2.070   7.102   3.165 -0.2549 -2.0798 -0.6054
13251SOL     OW40322   0.074   3.284   5.143  0.3926 -0.4333 -0.0207
13251SOL    HW140323  -0.008   3.235   5.147 -0.0835  0.2141 -1.3378
13251SOL    HW240324   0.053   3.363   5.093  1.0919  1.2539  2.1772
13252SOL     OW40325   0.447   3.668   6.758 -0.8890  0.6665 -0.9217
13252SOL    HW140326   0.457   3.763   6.754  0.6811  0.5517 -0.3248
13252SOL    HW240327   0.436   3.648   6.851 -0.6449  0.2114 -0.9840
13253SOL     OW40328   5.216   1.645   0.719  0.3511  0.2676 -0.0388
13253SOL    HW140329   5.205   1.581   0.649 -0.0780  0.0892  0.1853
13253SOL    HW240330   5.308   1.669   0.717  0.7612 -1.1894  0.5823
13254SOL     OW40331   4.206   4.813   0.401  0.1562  0.5523 -0.3546
13254SOL    HW140332   4.210   4.719   0.418 -0.7491  0.3311 -1.2475
13254SOL    HW240333   4.198   4.820   0.306 -1.5825  1.4420 -0.1897
13255SOL     OW40334   5.052   3.277   1.097 -0.0144  0.5344 -0.0046
13255SOL    HW140335   5.063   3.249   1.188 -0.3469 -0.2020 -0.1857
13255SOL    HW240336   5.120   3.343   1.084  2.1697 -1.5794 -0.1467
13256SOL     OW40337   5.494   7.209   5.324 -0.0033  0.5319  0.3900
13256SOL    HW140338   5.487   7.246   5.236  2.7585  1.7296  0.5759
13256SOL    HW240339   5.514   7.116   5.310 -0.4843  0.5125 -0.2081
13257SOL     OW40340   3.871   4.942   2.412  0.0911  0.0192 -0.0103
13257SOL    HW140341   3.861   4.944   2.317 -1.1129 -1.0926  0.0599
13257SOL    HW240342   3.966   4.933   2.426  0.3390  0.7835 -1.0673
13258SOL     OW40343   0.484   0.496   2.061 -0.2294  0.2264 -0.5362
13258SOL    HW140344   0.565   0.520   2.107 -0.1524  0.3926 -0.7566
13258SOL    HW240345   0.420   0.484   2.131  0.5843 -2.4805 -0.1402
13259SOL     OW40346   2.335   2.384   5.206 -0.1911 -0.3642 -0.1730
13259SOL    HW140347   2.290   2.467   5.198  0.8707  0.2314 -0.1540
13259SOL    HW240348   2.281   2.332   5.265  0.2769  1.1369  1.6693
13260SOL     OW40349   3.833   4.468   1.195 -0.1371  0.2283  0.1369
13260SOL    HW140350   3.873   4.503   1.115 -1.1644  1.3153  0.0766
13260SOL    HW240351   3.854   4.374   1.194  0.1930  0.3058 -1.1936
13261SOL     OW40352   2.502   0.383   1.200  0.4183 -0.6408 -0.3220
13261SOL    HW140353   2.486   0.463   1.250  0.4261 -1.6716  1.4271
13261SOL    HW240354   2.550   0.326   1.260 -2.6364 -3.3231 -0.1541
13262SOL     OW40355   4.412   2.281   4.308 -0.4547  0.0505 -0.3804
13262SOL    HW140356   4.461   2.359   4.333  2.2364 -1.1328 -1.6006
13262SOL    HW240357   4.426   2.219   4.380 -0.0179 -0.3572 -0.8139
13263SOL     OW40358   4.349   2.998   1.022 -0.4660 -0.0913 -0.0158
13263SOL    HW140359   4.301   2.994   1.105 -0.0545  0.3324  0.2448
13263SOL    HW240360   4.440   2.987   1.046 -0.3236  0.2547 -0.3903
13264SOL     OW40361   5.473   6.375   3.060 -0.4314  0.2955  0.0670
13264SOL    HW140362   5.459   6.445   3.124 -2.5747 -0.6604  0.7239
13264SOL    HW240363   5.539   6.319   3.101  0.5470  1.3554 -0.0096
13265SOL     OW40364   1.626   4.726   0.941 -0.7150  0.0269 -0.0985
13265SOL    HW140365   1.669   4.664   0.882 -0.6735 -1.1372  1.1242
13265SOL    HW240366   1.697   4.768   0.988 -0.8261 -1.4207  1.4457
13266SOL     OW40367   0.084   5.339   5.066  0.3049 -0.3415 -0.0579
13266SOL    HW140368   0.134   5.401   5.013  0.5826  0.2776  0.8935
13266SOL    HW240369   0.108   5.253   5.032  0.9760  0.0102 -0.5035
13267SOL     OW40370   1.492   1.149   1.467  0.0587  0.2749  0.0330
13267SOL    HW140371   1.554   1.092   1.514  0.4799 -0.0580 -0.9019
13267SOL    HW240372   1.454   1.204   1.535  1.5767  0.6604  0.6028
13268SOL     OW40373   0.683   2.607   4.675  0.2826  0.3616 -0.3704
13268SOL    HW140374   0.762   2.554   4.685 -0.3405 -0.8053 -1.3989
13268SOL    HW240375   0.662   2.603   4.581 -0.1170  1.9677 -0.3961
13269SOL     OW40376   5.523   5.758   1.318  0.0177  0.5893 -0.3160
13269SOL    HW140377   5.432   5.743   1.342 -0.4237  1.2717 -1.4638
13269SOL    HW240378   5.526   5.744   1.224  0.9798  1.1201 -0.3819
13270SOL     OW40379   1.663   5.429   4.162  0.1777  0.1913  0.7629
13270SOL    HW140380   1.693   5.388   4.243  1.1217 -0.2402  0.2058
13270SOL    HW240381   1.737   5.483   4.134 -0.1589  0.3701  0.2135
13271SOL     OW40382   6.198   5.353   2.551  0.7580  0.1382  0.2768
13271SOL    HW140383   6.115   5.400   2.562  0.1408 -1.0677  0.9740
13271SOL    HW240384   6.230   5.380   2.465 -1.1160 -0.5262 -0.6692
13272SOL     OW40385   5.116   4.717   0.807  0.2931 -0.2116 -0.2623
13272SOL    HW140386   5.122   4.631   0.766  1.2896 -1.0969  1.6132
13272SOL    HW240387   5.022   4.735   0.814  0.0782 -1.1345 -0.7010
13273SOL     OW40388   3.148   7.310   6.942  0.1747 -0.1776  0.1550
13273SOL    HW140389   3.116   7.262   6.866 -2.8465  1.1929  0.4113
13273SOL    HW240390   3.134   7.251   7.015 -0.5890 -0.0788  0.0945
13274SOL     OW40391   2.946   6.058   3.870 -0.0346  0.0945 -0.2368
13274SOL    HW140392   2.987   6.062   3.784  1.0960 -0.9336  0.2114
13274SOL    HW240393   2.962   6.144   3.908  1.1069 -0.0281 -0.3778
13275SOL     OW40394   2.564   6.025   5.027 -0.4256  0.0638  0.3462
13275SOL    HW140395   2.615   6.009   4.947 -1.1327  0.6936 -0.2521
13275SOL    HW240396   2.597   5.962   5.090 -0.6092 -1.2061 -0.7847
13276SOL     OW40397   1.448   1.106   0.689 -0.3765  0.0507 -0.2582
13276SOL    HW140398   1.377   1.111   0.753  0.1729 -0.2610  0.3859
13276SOL    HW240399   1.438   1.184   0.635 -1.7718 -0.4536 -0.7786
13277SOL     OW40400   6.602   2.169   5.994  0.2524  0.4489  0.2979
13277SOL    HW140401   6.635   2.079   6.006 -0.0072  0.2620 -0.3626
13277SOL    HW240402   6.519   2.170   6.042 -0.4712 -0.1087 -0.9096
13278SOL     OW40403   1.380   7.287   3.255  0.4970 -0.0342 -0.2147
13278SOL    HW140404   1.291   7.282   3.290  0.5785 -0.5802 -0.0753
13278SOL    HW240405   1.380   7.227   3.180  0.7746 -0.1113 -0.1560
13279SOL     OW40406   1.328   2.307   4.297  0.5392 -0.0788  0.0722
13279SOL    HW140407   1.308   2.377   4.236 -0.5276 -1.4144 -1.1996
13279SOL    HW240408   1.402   2.261   4.257  1.7454  0.7415  1.2886
13280SOL     OW40409   4.820   3.248   5.038 -0.2854 -0.2448  0.0213
13280SOL    HW140410   4.798   3.216   4.950 -1.8375 -1.8807  0.9425
13280SOL    HW240411   4.777   3.334   5.044 -0.9453 -0.5285 -0.5078
13281SOL     OW40412   0.295   3.528   6.356 -0.0056 -0.1742  0.3405
13281SOL    HW140413   0.218   3.580   6.333 -0.9757 -1.7039  0.0532
13281SOL    HW240414   0.359   3.594   6.384 -1.0243  1.2150 -0.4338
13282SOL     OW40415   5.332   3.245   7.017 -0.2363 -0.5684 -0.3597
13282SOL    HW140416   5.419   3.232   6.978  0.1682 -0.0855  0.3527
13282SOL    HW240417   5.344   3.221   7.109 -0.6484  0.2767 -0.0739
13283SOL     OW40418   2.884   7.134   3.784 -0.3381 -0.3447 -0.4637
13283SOL    HW140419   2.973   7.167   3.771 -0.4711 -0.4752 -1.9710
13283SOL    HW240420   2.838   7.205   3.829  0.6367 -0.4791  0.7933
13284SOL     OW40421   4.624   4.469   0.656  0.2068  0.3246 -0.0897
13284SOL    HW140422   4.601   4.458   0.748 -1.7268 -0.2219 -0.5717
13284SOL    HW240423   4.655   4.383   0.628  0.8505  0.5056  0.0567
13285SOL     OW40424   4.945   6.642   4.134  0.3496  0.7528 -0.2130
13285SOL    HW140425   4.909   6.699   4.202 -3.0593 -0.9479 -0.3508
13285SOL    HW240426   4.887   6.655   4.059  0.1064 -1.9898 -0.6001
13286SOL     OW40427   1.015   6.204   2.126 -0.2371 -0.2678  0.2196
13286SOL    HW140428   1.083   6.205   2.059  1.0259 -0.7193  1.4255
13286SOL    HW240429   0.937   6.237   2.082  0.6807 -0.0063 -1.2991
13287SOL     OW40430   0.740   1.048   6.536  0.0211 -1.1415  0.3065
13287SOL    HW140431   0.787   1.069   6.617 -0.8701  4.2532 -0.1557
13287SOL    HW240432   0.649   1.072   6.555 -0.3651 -0.5746 -1.9540
13288SOL     OW40433   0.753   1.654   2.371 -0.3029  0.3935  0.3727
13288SOL    HW140434   0.822   1.712   2.338  0.0522  0.5038  1.2767
13288SOL    HW240435   0.764   1.573   2.321 -0.7202  1.0540 -0.8012
13289SOL     OW40436   5.079   1.597   3.652 -0.0480 -0.0630  1.0175
13289SOL    HW140437   5.171   1.608   3.675  0.3988 -0.0170 -0.6625
13289SOL    HW240438   5.051   1.521   3.703  1.7108 -1.8418 -0.4794
13290SOL     OW40439   0.264   5.833   7.133  0.0058 -0.4830 -0.5509
13290SOL    HW140440   0.304   5.805   7.050  0.9758 -0.0122 -0.2540
13290SOL    HW240441   0.296   5.770   7.197 -2.1031 -1.8762 -0.7957
13291SOL     OW40442   6.150   3.238   7.233  0.1224  0.1862  0.1837
13291SOL    HW140443   6.166   3.284   7.150 -2.1536  0.9716  0.1108
13291SOL    HW240444   6.229   3.252   7.284  1.0818  0.7515 -1.3861
13292SOL     OW40445   1.070   7.406   5.994  0.0970  0.6557  0.3635
13292SOL    HW140446   1.018   7.347   5.940  0.4055  0.1702  0.5850
13292SOL    HW240447   1.134   7.349   6.037  1.1252  1.2824 -0.2727
13293SOL     OW40448   1.614   0.342   6.982  0.1218 -0.5795  0.4734
13293SOL    HW140449   1.582   0.321   6.894 -1.5145  1.0999  0.6014
13293SOL    HW240450   1.604   0.261   7.031 -1.0147 -0.9609 -0.3491
13294SOL     OW40451   7.137   3.379   1.220  0.4736  0.2746  0.1419
13294SOL    HW140452   7.069   3.376   1.287 -0.1026 -0.8710 -0.4729
13294SOL    HW240453   7.118   3.459   1.170 -1.0290 -0.5084 -0.6103
13295SOL     OW40454   7.329   0.228   4.659  0.4625  0.5656 -0.3849
13295SOL    HW140455   7.387   0.270   4.595  1.1636  0.5509  0.2281
13295SOL    HW240456   7.373   0.145   4.679 -0.8420 -0.4623 -1.5021
13296SOL     OW40457   6.156   2.477   3.810  0.3084  0.2164  0.0849
13296SOL    HW140458   6.202   2.528   3.743  3.0585 -1.9621  0.1354
13296SOL    HW240459   6.204   2.395   3.814 -2.3285 -1.3647  1.8535
13297SOL     OW40460   4.577   6.041   6.379  0.2391  0.1479 -0.3567
13297SOL    HW140461   4.542   6.106   6.318 -0.8275  1.8661  1.9272
13297SOL    HW240462   4.648   6.086   6.424 -0.4110 -0.2688  1.1573
13298SOL     OW40463   1.143   1.616   6.378  0.1692 -0.9761  0.8348
13298SOL    HW140464   1.145   1.589   6.470  1.5631  1.4327  1.6041
13298SOL    HW240465   1.078   1.687   6.376 -0.8944 -1.9574 -0.3635
13299SOL     OW40466   6.955   4.525   5.605 -0.2944  0.5766 -0.0288
13299SOL    HW140467   6.932   4.534   5.513 -1.5189  2.1031  0.3931
13299SOL    HW240468   7.004   4.442   5.609 -1.3843 -0.2231 -1.8169
13300SOL     OW40469   4.593   0.518   3.352 -0.0688  0.6351  0.4321
13300SOL    HW140470   4.688   0.524   3.348  0.0060 -0.9529 -1.0353
13300SOL    HW240471   4.575   0.433   3.392 -0.8053 -0.1462 -1.4229
13301SOL     OW40472   1.972   1.968   6.197 -0.5491  0.1770  0.5054
13301SOL    HW140473   2.005   1.880   6.179 -0.3194  0.4955 -0.7844
13301SOL    HW240474   1.928   1.994   6.116 -0.5069  1.2880  0.8157
13302SOL     OW40475   6.134   1.873   5.815  0.0556  0.1861 -0.1018
13302SOL    HW140476   6.210   1.898   5.868  0.5668 -0.0579 -0.6925
13302SOL    HW240477   6.066   1.851   5.878  0.2881  0.9731  0.4363
13303SOL     OW40478   5.660   3.567   4.199 -0.6877  0.5436 -0.1440
13303SOL    HW140479   5.578   3.536   4.158  0.7364 -1.1273 -1.9673
13303SOL    HW240480   5.689   3.639   4.143  0.0734 -0.1943 -0.7260
13304SOL     OW40481   6.436   2.853   3.668 -0.2525  0.3520  0.0098
13304SOL    HW140482   6.391   2.883   3.746  0.1784  1.4321 -0.1340
13304SOL    HW240483   6.391   2.772   3.643 -0.1528 -0.2162  1.5804
13305SOL     OW40484   4.874   2.478   4.254 -0.0688 -0.4602 -0.0903
13305SOL    HW140485   4.875   2.464   4.349  0.4504 -0.9435 -0.1549
13305SOL    HW240486   4.784   2.463   4.228  0.5246 -5.2851 -0.3059
13306SOL     OW40487   4.171   0.473   0.847  0.4719 -0.3551 -0.0918
13306SOL    HW140488   4.147   0.393   0.894 -0.7957 -1.1125 -1.9184
13306SOL    HW240489   4.214   0.443   0.768 -0.7675  0.6904 -1.2305
13307SOL     OW40490   1.215   4.655   7.172  0.3285  0.2618  0.1513
13307SOL    HW140491   1.163   4.731   7.144 -0.5627  0.0561  1.1868
13307SOL    HW240492   1.156   4.606   7.229  1.5408 -0.2052  1.0261
13308SOL     OW40493   1.886   0.464   4.446 -0.2242 -0.1208  0.0147
13308SOL    HW140494   1.795   0.486   4.428 -0.4055 -0.1991  0.8369
13308SOL    HW240495   1.901   0.383   4.397 -0.6273 -0.1777 -0.0150
13309SOL     OW40496   1.520   0.560   4.925 -0.2085 -0.0387  0.1057
13309SOL    HW140497   1.530   0.554   4.830 -0.6297 -0.7687  0.1090
13309SOL    HW240498   1.577   0.491   4.960 -0.0180  0.2573  0.3940
13310SOL     OW40499   1.291   5.623   3.804  0.1287 -0.0662 -0.1354
13310SOL    HW140500   1.264   5.534   3.828  1.4872 -0.0406  1.7505
13310SOL    HW240501   1.372   5.611   3.754 -1.0172  0.0514 -2.1361
13311SOL     OW40502   3.449   3.101   0.206 -0.7302 -0.0127  0.0791
13311SOL    HW140503   3.531   3.100   0.157 -0.1756 -0.3653  0.9972
13311SOL    HW240504   3.398   3.029   0.169 -0.7368  0.3637 -0.6659
13312SOL     OW40505   5.621   5.516   0.853 -0.2890  0.4124 -0.8794
13312SOL    HW140506   5.686   5.548   0.790  0.0202  0.4279 -0.5599
13312SOL    HW240507   5.670   5.506   0.934 -0.3660 -0.8946 -0.9702
13313SOL     OW40508   4.388   3.938   2.196 -0.1549  0.0897  0.6187
13313SOL    HW140509   4.310   3.945   2.251  0.3821  1.0591  1.2862
13313SOL    HW240510   4.400   4.026   2.160 -0.5140 -0.5360 -1.0926
13314SOL     OW40511   6.170   1.181   4.733  0.2435 -0.0258  0.3579
13314SOL    HW140512   6.080   1.149   4.742  0.5611 -0.8297  0.8632
13314SOL    HW240513   6.207   1.130   4.661 -0.2059  1.5223 -1.0148
13315SOL     OW40514   6.810   2.600   2.288  0.4815 -0.5387  0.7524
13315SOL    HW140515   6.900   2.612   2.317  0.2735  0.5219  0.9988
13315SOL    HW240516   6.760   2.589   2.368  0.1973  0.2836  0.6879
13316SOL     OW40517   6.522   4.352   2.636 -0.1783 -0.1895 -0.3290
13316SOL    HW140518   6.606   4.316   2.662 -0.2122  0.7909  1.3302
13316SOL    HW240519   6.521   4.440   2.674 -2.9567 -1.0854  2.0327
13317SOL     OW40520   2.017   4.554   1.340 -0.3457  0.7750 -0.1095
13317SOL    HW140521   2.091   4.565   1.400 -0.8155  0.2116  0.5920
13317SOL    HW240522   1.940   4.570   1.394 -0.8816 -1.6571 -0.0302
13318SOL     OW40523   6.913   6.714   4.164  0.0036  0.3949 -0.7029
13318SOL    HW140524   6.990   6.771   4.168  0.3891 -0.1767  1.6446
13318SOL    HW240525   6.948   6.628   4.144 -0.6053  0.8407 -4.5183
13319SOL     OW40526   5.913   4.164   5.953  0.1633  0.1405 -0.2056
13319SOL    HW140527   5.999   4.172   5.992  0.8925 -1.6687 -1.2849
13319SOL    HW240528   5.851   4.179   6.025  1.3962 -0.1626  0.9449
13320SOL     OW40529   1.934   2.154   3.462  0.1952  0.2806 -0.4610
13320SOL    HW140530   1.873   2.163   3.535  1.1793 -1.6095  0.6909
13320SOL    HW240531   2.020   2.144   3.504  0.6246 -2.3897 -1.7311
13321SOL     OW40532   5.060   1.909   6.349 -0.1282  0.3811  0.1478
13321SOL    HW140533   5.042   1.833   6.294  0.1726  0.8448 -0.5912
13321SOL    HW240534   4.991   1.906   6.416 -0.0897 -0.5680  0.1633
13322SOL     OW40535   6.775   0.845   4.726 -0.2051  0.0411 -0.9769
13322SOL    HW140536   6.824   0.814   4.803 -1.1044  1.3716  0.1913
13322SOL    HW240537   6.842   0.876   4.666  0.5181  3.3372  1.2440
13323SOL     OW40538   1.177   2.166   5.623 -0.0028 -0.6186 -1.2917
13323SOL    HW140539   1.252   2.178   5.565 -1.6083 -0.5272 -3.4881
13323SOL    HW240540   1.101   2.165   5.564 -1.6419 -1.8896  0.7001
13324SOL     OW40541   1.339   6.671   6.329 -0.0010  0.1233 -0.1338
13324SOL    HW140542   1.405   6.607   6.305  0.4758  0.6062 -0.1442
13324SOL    HW240543   1.339   6.672   6.425  0.2921  0.4053 -0.1347
13325SOL     OW40544   0.305   2.135   0.729 -0.3225 -0.2484  0.0367
13325SOL    HW140545   0.383   2.114   0.781 -0.9032 -4.0393 -0.3732
13325SOL    HW240546   0.340   2.177   0.650  0.9983  0.5988  1.0210
13326SOL     OW40547   1.056   0.259   1.368 -0.1561 -0.0741  0.1193
13326SOL    HW140548   1.044   0.186   1.429  1.6988  0.0143  0.6487
13326SOL    HW240549   1.080   0.219   1.285 -1.6596 -0.1424 -0.3194
13327SOL     OW40550   0.102   4.385   3.352  0.6414  0.0346 -0.0853
13327SOL    HW140551   0.013   4.418   3.341  0.5888 -0.3708 -0.9919
13327SOL    HW240552   0.149   4.419   3.276  0.2641 -3.0141 -1.8491
13328SOL     OW40553   7.328   4.384   1.156 -0.5313 -0.5151 -0.5606
13328SOL    HW140554   7.252   4.439   1.172  0.6574  1.0811 -0.1129
13328SOL    HW240555   7.382   4.434   1.095  1.1940 -0.5381  0.8396
13329SOL     OW40556   1.466   3.487   3.834  0.7661  0.6213 -0.4008
13329SOL    HW140557   1.475   3.547   3.760  2.4523  1.0475  0.1127
13329SOL    HW240558   1.450   3.401   3.794 -1.4260  1.3063 -1.1494
13330SOL     OW40559   0.437   4.061   0.764 -0.9246  0.1245  0.5045
13330SOL    HW140560   0.353   4.078   0.721 -0.5595 -0.0828 -0.3121
13330SOL    HW240561   0.425   3.977   0.808 -1.0972  0.0175  0.2574
13331SOL     OW40562   3.759   1.330   6.509  0.4838 -0.2342 -0.3973
13331SOL    HW140563   3.746   1.296   6.597  1.0474  0.6735  0.0552
13331SOL    HW240564   3.823   1.271   6.469  0.1499 -0.7055 -0.2372
13332SOL     OW40565   2.671   4.457   5.996  0.0019 -0.2012 -0.0027
13332SOL    HW140566   2.712   4.523   5.941  1.0072  0.2200  1.2200
13332SOL    HW240567   2.741   4.426   6.053 -1.4381  0.9431  2.5432
13333SOL     OW40568   3.108   6.711   0.311 -0.7227  0.0213  0.1489
13333SOL    HW140569   3.027   6.732   0.265 -1.8810 -2.6675  0.7713
13333SOL    HW240570   3.164   6.670   0.245 -0.6385  0.1705  0.1290
13334SOL     OW40571   6.092   7.079   7.029 -0.2785 -0.0177 -0.3513
13334SOL    HW140572   6.157   7.147   7.011  1.0290 -0.2755  2.7290
13334SOL    HW240573   6.075   7.039   6.944  1.4259  1.9764 -1.7237
13335SOL     OW40574   5.251   4.685   3.083 -0.0666  0.6108 -0.8329
13335SOL    HW140575   5.171   4.738   3.084 -0.5767 -0.1204  0.8175
13335SOL    HW240576   5.304   4.721   3.153 -0.7070 -1.3927  0.7803
13336SOL     OW40577   4.406   4.167   6.449 -0.4601  0.3391 -0.1745
13336SOL    HW140578   4.439   4.197   6.534 -0.3452  0.5878 -0.3062
13336SOL    HW240579   4.464   4.208   6.385  1.5470 -2.4307 -0.3054
13337SOL     OW40580   4.657   6.147   2.686  0.3083  0.3547  0.2253
13337SOL    HW140581   4.626   6.209   2.752  0.7873 -0.9022  1.6768
13337SOL    HW240582   4.603   6.069   2.699 -0.7477  0.6252 -2.0242
13338SOL     OW40583   3.866   3.916   5.625  0.1103 -0.2507 -0.1101
13338SOL    HW140584   3.845   3.947   5.537  0.4956  0.0237 -0.1060
13338SOL    HW240585   3.903   3.829   5.612 -1.2165 -0.8494 -0.1027
13339SOL     OW40586   0.695   2.026   2.377  0.0306  0.1188  0.4080
13339SOL    HW140587   0.684   2.038   2.282  1.4850 -0.3177  0.1417
13339SOL    HW240588   0.717   2.113   2.410  2.7364 -0.2228 -0.2302
13340SOL     OW40589   4.194   1.825   0.915  0.4829  0.0634  0.1928
13340SOL    HW140590   4.230   1.808   0.827  0.3771 -0.3801  0.2314
13340SOL    HW240591   4.140   1.748   0.934  0.3243  0.2607  0.5566
13341SOL     OW40592   1.614   5.787   2.096 -0.1126 -0.7929 -0.2240
13341SOL    HW140593   1.600   5.759   2.186  1.7709 -2.5794 -0.4250
13341SOL    HW240594   1.610   5.707   2.044 -0.4872  0.1061 -1.6593
13342SOL     OW40595   4.023   1.315   6.849 -0.0983  0.1184 -0.1925
13342SOL    HW140596   4.023   1.393   6.905  0.0052 -0.2796  0.3673
13342SOL    HW240597   4.009   1.242   6.909  2.1453 -0.5348 -0.3527
13343SOL     OW40598   1.590   5.559   5.459  0.0492  0.1852 -0.2338
13343SOL    HW140599   1.531   5.539   5.386  0.9517 -0.3945 -0.8294
13343SOL    HW240600   1.661   5.496   5.450  0.7992  0.9122  0.4197
13344SOL     OW40601   1.863   2.108   4.507  0.0359  0.3764 -0.0944
13344SOL    HW140602   1.769   2.109   4.525  0.0958  1.6641  0.2264
13344SOL    HW240603   1.900   2.048   4.572 -0.1978  2.2148  1.8371
13345SOL     OW40604   6.395   0.180   7.395  0.1039  0.0208  0.2556
13345SOL    HW140605   6.434   0.125   7.327  0.7709  0.7479  0.0404
13345SOL    HW240606   6.469   0.224   7.436 -0.4350  1.0075  0.1956
13346SOL     OW40607   2.352   5.775   6.558  0.1957  0.1760 -0.4716
13346SOL    HW140608   2.384   5.696   6.513  0.2913 -0.3761  0.5297
13346SOL    HW240609   2.332   5.745   6.647 -0.9726  1.0106 -0.4300
13347SOL     OW40610   6.306   1.138   3.070 -0.0359  0.4626 -0.2005
13347SOL    HW140611   6.363   1.138   2.993  0.7335 -1.6062  0.3062
13347SOL    HW240612   6.262   1.053   3.067 -0.3651  0.5496  1.3640
13348SOL     OW40613   2.028   2.609   2.186  0.2411  0.5631 -0.0701
13348SOL    HW140614   1.936   2.587   2.176  0.8930 -1.8388 -1.7298
13348SOL    HW240615   2.038   2.692   2.138 -0.7367 -0.1703 -1.6359
13349SOL     OW40616   2.819   2.376   5.262  0.3644 -0.2663 -0.3356
13349SOL    HW140617   2.735   2.385   5.308 -0.0765 -0.9537 -0.9905
13349SOL    HW240618   2.852   2.291   5.289  2.0905  1.0046  1.8764
13350SOL     OW40619   5.655   1.950   5.711  0.0286 -0.7777 -0.3101
13350SOL    HW140620   5.732   1.975   5.762  0.4519 -2.1856 -0.2101
13350SOL    HW240621   5.689   1.892   5.642 -0.9095 -1.2780 -0.3759
13351SOL     OW40622   0.672   3.654   1.307 -0.5439 -0.9301  0.8943
13351SOL    HW140623   0.754   3.672   1.351 -0.3947 -1.8387  1.0027
13351SOL    HW240624   0.630   3.586   1.360 -1.2849 -0.5958  0.7492
13352SOL     OW40625   3.577   4.771   7.243 -0.4595 -0.3923 -0.2719
13352SOL    HW140626   3.640   4.839   7.218 -0.9756  1.0024  1.9047
13352SOL    HW240627   3.492   4.807   7.218 -0.6321 -0.8156 -0.2946
13353SOL     OW40628   4.622   4.737   0.749  0.5645  0.6293  0.3318
13353SOL    HW140629   4.624   4.653   0.703 -1.1372  1.0430 -0.5814
13353SOL    HW240630   4.698   4.785   0.716  0.1065  0.4132 -1.0692
13354SOL     OW40631   5.389   5.120   2.011  0.5155  0.3276  0.1615
13354SOL    HW140632   5.335   5.078   2.078  1.1495  0.1317  0.5468
13354SOL    HW240633   5.478   5.119   2.046  0.4355  2.9333  0.6778
13355NA      NA40634   3.581   1.798   5.867  0.7452  0.6040  0.1669
13356NA      NA40635   3.236   0.072   6.901 -0.1053 -0.4547  0.1212
13357NA      NA40636   0.400   3.420   1.062  0.3107  0.0056 -0.7992
13358NA      NA40637   0.723   1.373   3.384 -0.5943  0.2723  0.1538
13359NA      NA40638   3.485   6.694   5.974  0.1294  0.8327 -0.0389
13360NA      NA40639   3.562   0.566   5.526  0.4730 -0.0470 -0.1964
13361NA      NA40640   3.431   0.657   5.302 -0.3932 -0.0318  0.1899
13362NA      NA40641   3.403   3.214   0.379 -0.1706 -1.0226 -0.1484
13363NA      NA40642   3.433   1.501   5.860 -0.2087  0.4374 -0.1010
13364NA      NA40643   0.367   5.930   2.362  0.1826  0.1176 -0.4827
13365NA      NA40644   6.650   2.951   1.345 -0.1581  0.1415 -0.0955
13366NA      NA40645   1.646   6.084   6.260  0.7024 -0.2332 -0.4229
13367NA      NA40646   2.683   7.370   5.768  0.3578  0.6192 -0.4243
13368NA      NA40647   2.754   5.952   3.935  0.2262  0.3050 -0.1801
13369NA      NA40648   3.212   6.964   5.395 -0.1085  0.0688 -0.0348
13370NA      NA40649   1.065   3.334   3.781  0.4724 -0.5370 -0.2743
13371NA      NA40650   1.479   3.851   0.273  0.5175  0.1913  0.1604
13372NA      NA40651   2.808   3.961   6.860 -0.0944  0.5470 -0.0577
13373NA      NA40652   0.928   2.749   6.639  0.4295 -0.2283  0.2495
13374NA      NA40653   5.450   2.074   6.449 -0.1411  0.2101 -0.3107
13375NA      NA40654   1.162   0.881   5.651 -0.1435 -0.0579 -0.5834
13376NA      NA40655   5.112   7.233   6.643  0.0249 -0.2282 -0.4001
13377NA      NA40656   1.601   4.353   6.911 -0.6139  0.0916 -0.1784
13378NA      NA40657   7.427   1.459   5.786 -0.0728 -0.2153 -0.2475
13379NA      NA40658   3.643   0.715   5.746 -0.0981  0.3054 -0.1476
13380NA      NA40659   2.162   0.040   6.095 -0.3497  0.6426 -0.0517
13381NA      NA40660   6.502   4.030   5.432  0.0694  0.5472  0.0997
13382NA      NA40661   2.389   6.613   7.111  0.4924 -0.2675 -0.1299
13383NA      NA40662   3.087   5.991   0.968  0.1491 -0.4031 -0.0525
13384NA      NA40663   1.788   5.140   3.441  0.1393 -0.2456 -0.4487
13385NA      NA40664   3.369   1.719   7.134  0.2905  0.1200  0.1318
13386NA      NA40665   1.578   0.802   6.518 -0.3847 -0.7186 -0.1145
13387NA      NA40666   4.429   3.735   2.124 -0.0914 -0.2327 -0.0367
13388NA      NA40667   3.577   1.242   5.997  0.4687  0.3850 -0.0840
13389NA      NA40668   1.739   0.646   6.725  0.2504  0.2347  0.2870
13390NA      NA40669   2.405   7.344   5.946 -0.4513  0.2187 -0.4896
13391NA      NA40670   1.911   6.817   6.256 -0.0860 -0.0604  0.3942
13392NA      NA40671   3.353   7.137   6.260 -0.2717 -0.0674  0.1442
13393NA      NA40672   0.463   5.014   6.859 -0.4141 -0.1506  0.1035
13394NA      NA40673   3.687   0.543   5.240 -0.3475 -0.1836 -0.3747
13395NA      NA40674   2.408   0.175   6.191  0.4323  0.0654  0.5865
13396NA      NA40675   2.533   6.914   3.852 -0.1393 -0.1796 -0.5054
13397NA      NA40676   1.636   0.927   6.228  0.8088  0.1435  0.2868
13398NA      NA40677   6.426   3.594   1.116 -0.3267  0.0871 -0.0121
13399NA      NA40678   0.193   1.059   1.876 -0.3025 -0.1911 -0.1004
13400NA      NA40679   3.611   2.184   5.859 -0.6823  0.5957 -0.0260
13401NA      NA40680   4.633   6.938   5.602 -0.0647  0.0874 -0.0849
13402NA      NA40681   3.170   2.484   6.065  0.2526 -0.5994 -0.1157
13403NA      NA40682   3.566   7.389   6.201 -0.0249  0.3687 -0.1446
13404NA      NA40683   6.994   7.343   4.568  0.4296  0.5636  0.0520
13405NA      NA40684   5.131   1.515   6.529  0.3058  0.2136 -0.1655
13406NA      NA40685   3.934   0.770   4.343 -0.1622 -0.1470  0.0824
13407NA      NA40686   3.921   1.461   5.252 -0.3259 -0.2211 -0.1333
13408NA      NA40687   4.122   4.052   2.449 -0.3105  0.1539  0.2057
13409NA      NA40688   3.297   0.544   5.063  0.2574  0.5055 -0.1172
13410NA      NA40689   0.535   4.074   2.321 -0.0582  0.1001 -0.5377
13411NA      NA40690   3.446   1.167   6.266 -0.4053 -0.3202 -0.5129
13412NA      NA40691   7.392   5.100   1.625 -0.2218  0.3153  0.5422
13413NA      NA40692   3.433   1.044   4.019  0.2084  0.3191  0.2414
13414NA      NA40693   1.730   0.801   7.047 -0.1317 -0.2365  0.1858
13415NA      NA40694   6.338   2.608   2.410  0.2486 -0.0898 -0.1181
13416NA      NA40695   2.750   7.380   5.464  0.2640 -0.4151  0.2613
13417NA      NA40696   2.445   0.186   5.910 -0.5269  0.2148  0.2800
13418NA      NA40697   6.151   4.447   2.821 -0.0358  0.5629  0.2735
13419CL      CL40698   1.150   0.552   5.946  0.0590  0.1072  0.1204
13420CL      CL40699   3.702   3.970   2.461 -0.2335  0.2814  0.2799
13421CL      CL40700   3.244   6.433   5.067  0.1920  0.1212 -0.2358
13422CL      CL40701   0.307   7.002   0.710 -0.2092  0.2179  0.0634
13423CL      CL40702   5.150   3.259   3.331 -0.0937 -0.0240  0.0609
13424CL      CL40703   3.718   1.136   3.402  0.1538  0.3725 -0.2813
13425CL      CL40704   6.762   0.962   6.463  0.0940 -0.0327  0.1051
13426CL      CL40705   6.178   2.595   2.591 -0.2927 -0.4218 -0.2252
13427CL      CL40706   1.603   3.317   1.283  0.2976 -0.0785 -0.0130
13428CL      CL40707   2.964   6.543   5.682 -0.0436  0.0386  0.1143
13429CL      CL40708   7.440   6.041   1.938  0.1555  0.0517 -0.2057
13430CL      CL40709   3.504   0.819   4.099  0.5774 -0.3116  0.4112
13431CL      CL40710   6.770   7.074   3.119  0.0519 -0.0267 -0.2994
13432CL      CL40711   6.721   3.285   7.367  0.2147  0.0291  0.5810
13433CL      CL40712   1.854   7.061   0.284 -0.2499  0.1089 -0.1904
13434CL      CL40713   5.183   2.342   2.519 -0.2241 -0.0740 -0.0260
13435CL      CL40714   6.624   4.945   1.038  0.3504 -0.3619  0.1643
13436CL      CL40715   5.554   5.638   6.834 -0.3679  0.1085  0.5078
13437CL      CL40716   3.978   3.042   6.818 -0.3041  0.0309 -0.1522
13438CL      CL40717   3.235   7.158   2.941  0.1864 -0.4698 -0.0545
13439CL      CL40718   5.952   5.506   2.489 -0.1431  0.2159 -0.1190
13440CL      CL40719   1.238   3.223   4.208 -0.0617  0.3486 -0.1008
13441CL      CL40720   0.204   5.173   6.116 -0.2150 -0.0078 -0.3126
13442CL      CL40721   0.205   5.567   2.806  0.1724 -0.1010 -0.1224
13443CL      CL40722   4.389   6.341   6.269 -0.1624  0.2451  0.0544
13444CL      CL40723   0.170   1.507   2.287 -0.3030 -0.2048 -0.1511
13445CL      CL40724   2.894   5.298   4.496  0.3646 -0.3318  0.0696
13446CL      CL40725   6.205   4.007   0.838  0.4105  0.1508  0.3845
13447CL      CL40726   3.564   1.223   4.105  0.1429  0.2178  0.3184
13448CL      CL40727   3.124   3.045   2.222 -0.0675  0.4759 -0.0116
13449CL      CL40728   0.259   3.633   7.309  0.0292 -0.0369  0.1113
13450CL      CL40729   7.365   4.359   6.636 -0.2154 -0.5862  0.0342
13451CL      CL40730   3.088   6.069   0.530 -0.0623  0.6632 -0.0155
13452CL      CL40731   2.169   3.736   0.103 -0.1136  0.1117 -0.3275
13453CL      CL40732   0.660   1.831   6.252  0.4351 -0.0102 -0.0893
13454CL      CL40733   2.261   2.415   0.103 -0.1762  0.0152 -0.0757
13455CL      CL40734   0.907   5.389   5.505 -0.0372  0.1098 -0.0573
13456CL      CL40735   2.098   4.716   7.429  0.0325 -0.0103  0.2695
13457CL      CL40736   6.761   7.357   0.297  0.0222  0.2736  0.0016
13458CL      CL40737   5.784   0.703   1.297  0.2933  0.6707  0.1339
   7.44239   7.44239   7.44239
