G4P-PAMAM in water
69310
    1aaa     C1    1   0.591   6.385   5.472 -0.6203 -0.1127 -0.2070
    1aaa     H1    2   0.545   6.464   5.533  0.3856  0.2904  0.0393
    1aaa     H2    3   0.673   6.328   5.518  0.7818  1.6624 -0.4073
    1aaa     C2    4   0.655   6.460   5.346  0.3246  0.1517  0.2284
    1aaa     H3    5   0.717   6.392   5.285 -0.3286  0.2725 -0.5920
    1aaa     H4    6   0.577   6.511   5.288 -0.8851 -1.2324  0.6019
    1aaa     N1    7   0.750   6.574   5.392 -0.2480 -0.0001 -0.3327
    1aaa     N2    8   0.493   6.287   5.421 -0.6975  0.4655  0.1222
    1aaa     C3    9   0.371   6.299   5.502 -0.1412  0.2156 -0.0422
    1aaa     H5   10   0.388   6.321   5.608 -0.1667  3.2976 -0.5995
    1aaa     H6   11   0.319   6.203   5.490  0.4140  0.0671 -1.3671
    1aaa     C4   12   0.548   6.148   5.440  0.2581 -0.5325 -0.2517
    1aaa     H7   13   0.551   6.139   5.549 -0.1094 -1.1155 -0.2863
    1aaa     H8   14   0.471   6.080   5.401 -1.0743 -1.2708  3.2882
    1aaa     C5   15   0.866   6.531   5.466 -0.2497  0.4163  0.7358
    1aaa     H9   16   0.830   6.450   5.531 -2.4945  1.8315  1.3573
    1aaa    H10   17   0.938   6.478   5.403 -2.3867 -2.3148  0.3977
    1aaa     C6   18   0.765   6.672   5.293 -0.0165 -0.6465 -0.3671
    1aaa    H11   19   0.826   6.757   5.328 -0.4094 -0.2670 -0.5930
    1aaa    H12   20   0.668   6.722   5.276  0.2088 -0.3934 -0.9182
    1aaa     C7   21   0.926   6.644   5.556  0.5626  0.2342  0.0333
    1aaa    H13   22   0.955   6.732   5.497 -1.2897  0.0002 -1.3243
    1aaa    H14   23   0.840   6.668   5.620 -1.1068  0.3901 -2.1525
    1aaa     C8   24   0.808   6.612   5.159  0.5736 -0.0462 -0.4278
    1aaa    H15   25   0.889   6.544   5.187  0.2110  0.2839  1.6017
    1aaa    H16   26   0.729   6.544   5.126 -0.9736  2.3985 -2.1515
    1aaa     C9   27   0.689   6.127   5.379  0.0454  0.6203  0.4438
    1aaa    H17   28   0.709   6.181   5.285  3.5180 -1.7812 -0.4013
    1aaa    H18   29   0.768   6.149   5.451 -0.6541  0.6279  1.2267
    1aaa    C10   30   0.289   6.415   5.446  0.0380  0.5276 -0.3184
    1aaa    H19   31   0.337   6.511   5.467 -0.7419  1.1671 -1.3285
    1aaa    H20   32   0.290   6.404   5.336  2.0805  2.4213 -0.5457
    1aaa    C11   33   0.708   5.991   5.343  0.8094  0.4535 -0.1974
    1aaa    C12   34   0.146   6.412   5.488 -0.9466  0.3510  0.6830
    1aaa    C13   35   1.029   6.587   5.645 -0.6737  0.5899 -0.0545
    1aaa    C14   36   0.835   6.718   5.055  0.2939  1.1022  0.4992
    1aaa     O1   37   0.621   5.931   5.278  0.4593  0.0844  0.3927
    1aaa     O2   38   1.023   6.474   5.688  0.0369  0.0275  0.1285
    1aaa     O3   39   0.740   6.776   5.002  0.0261 -0.7502  0.3891
    1aaa     O4   40   0.108   6.435   5.601  0.1859  0.1822  0.2951
    2bbb     C1   41   0.955   5.756   5.519 -0.4931 -0.0885  0.3190
    2bbb     H1   42   0.923   5.804   5.613  1.9122 -0.1844  1.2583
    2bbb     H2   43   1.053   5.792   5.488 -0.9663  0.5918 -0.4320
    2bbb     C2   44   0.843   5.795   5.414 -0.0383 -0.4165 -0.3855
    2bbb     H3   45   0.887   5.752   5.324  0.6432  0.4878 -0.4970
    2bbb     H4   46   0.753   5.742   5.448 -0.4955  1.0810  0.8477
    2bbb     N1   47   0.954   5.611   5.532 -1.0448  0.4971 -0.2518
    2bbb     C3   48   0.911   5.574   5.671 -0.7337 -0.2115 -0.2894
    2bbb     H5   49   0.832   5.644   5.700  0.3818  0.8465  0.2710
    2bbb     H6   50   0.997   5.585   5.739 -1.3694 -0.5899  0.5883
    2bbb     C4   51   1.079   5.553   5.490  0.2305  0.2026 -0.2536
    2bbb     H7   52   1.162   5.598   5.547  0.8175  1.0093 -1.6840
    2bbb     H8   53   1.080   5.450   5.527 -0.2341  0.8323  1.6063
    2bbb     C5   54   1.096   5.569   5.337 -0.8232  0.1233 -0.1539
    2bbb     H9   55   1.010   5.525   5.285 -0.8735  1.0826 -0.8982
    2bbb    H10   56   1.121   5.671   5.307  1.6136 -0.7193 -1.2496
    2bbb     C6   57   0.865   5.425   5.689 -0.2450 -0.0824 -0.7670
    2bbb    H11   58   0.799   5.393   5.607 -0.0154 -0.1054 -0.9415
    2bbb    H12   59   0.957   5.368   5.673 -1.0321 -0.9936 -2.2610
    2bbb     C7   60   1.221   5.493   5.295  0.1808  0.0195  0.0608
    2bbb     C8   61   0.822   5.409   5.836  0.1054 -0.7837 -0.2542
    2bbb     O1   62   1.211   5.386   5.232  0.0084  0.0381  0.0279
    2bbb     O2   63   0.901   5.430   5.928  0.3779  0.1375  0.3236
    2bbb     N4   64   0.829   5.936   5.386 -0.1670  0.6815 -0.1388
    2bbb    H21   65   0.886   6.001   5.439  0.3023 -0.4699  0.8143
    3bbb     C1   66  -0.167   6.456   5.284  0.6340  1.0016  0.4329
    3bbb     H1   67  -0.115   6.395   5.210  3.7483  2.7033  1.0529
    3bbb     H2   68  -0.157   6.564   5.264  1.4829  1.3110  2.2174
    3bbb     C2   69  -0.092   6.440   5.408 -0.2615 -0.2459 -0.2262
    3bbb     H3   70  -0.097   6.535   5.462  2.3772 -0.4945  0.6164
    3bbb     H4   71  -0.140   6.366   5.474  0.5321 -1.5506 -1.0717
    3bbb     N1   72  -0.311   6.423   5.299 -0.2156  0.2487 -0.3281
    3bbb     C3   73  -0.374   6.388   5.170 -0.0775  0.1372 -0.0494
    3bbb     H5   74  -0.353   6.469   5.099  1.2286 -0.2774 -0.1643
    3bbb     H6   75  -0.482   6.382   5.186 -0.3116  1.8610 -0.7327
    3bbb     C4   76  -0.384   6.518   5.384 -1.0340  0.2907 -0.0674
    3bbb     H7   77  -0.313   6.563   5.455 -0.5610  1.2632 -1.1282
    3bbb     H8   78  -0.427   6.600   5.325 -0.3626 -0.9463 -2.3805
    3bbb     C5   79  -0.496   6.453   5.462 -0.3920 -0.0011  0.3748
    3bbb     H9   80  -0.585   6.435   5.401 -1.5912 -3.0344  2.7405
    3bbb    H10   81  -0.474   6.360   5.516 -0.9513 -1.5531 -1.9308
    3bbb     C6   82  -0.334   6.251   5.111 -0.3832 -0.7794 -0.0371
    3bbb    H11   83  -0.346   6.249   5.002  0.7748 -3.0273 -0.1961
    3bbb    H12   84  -0.229   6.224   5.128 -0.4446 -0.6576  0.5469
    3bbb     C7   85  -0.528   6.552   5.577 -0.0776 -0.0415  0.3405
    3bbb     C8   86  -0.417   6.151   5.184  0.6441 -0.1131  0.0100
    3bbb     O1   87  -0.513   6.671   5.572 -0.0804  0.0648  0.2829
    3bbb     O2   88  -0.506   6.090   5.124  0.6591  0.0022 -0.3223
    3bbb     N4   89   0.051   6.413   5.388 -0.3153  0.0270 -0.0768
    3bbb    H21   90   0.089   6.394   5.296  1.1099 -0.2095  0.5231
    4bbb     C1   91   1.368   6.562   5.657 -0.9918 -0.1867  0.1400
    4bbb     H1   92   1.392   6.626   5.572 -1.9558 -0.1706 -0.1257
    4bbb     H2   93   1.336   6.471   5.605 -0.9983  0.0626 -0.2992
    4bbb     C2   94   1.262   6.618   5.743 -1.1248 -0.3506 -0.1619
    4bbb     H3   95   1.232   6.538   5.812  1.9792 -0.7520  0.8588
    4bbb     H4   96   1.299   6.711   5.788 -1.2445  0.7476 -2.1999
    4bbb     N1   97   1.492   6.546   5.733  0.0475 -0.2422  0.4105
    4bbb     C3   98   1.612   6.548   5.652 -0.5050 -0.2669  0.6103
    4bbb     H5   99   1.603   6.494   5.557  1.2241 -0.6964  0.6631
    4bbb     H6  100   1.682   6.499   5.719 -1.3006  1.4903  2.8662
    4bbb     C4  101   1.488   6.427   5.815 -0.2352  0.3031 -1.2837
    4bbb     H7  102   1.393   6.373   5.821 -0.0543 -0.0138 -1.2922
    4bbb     H8  103   1.557   6.352   5.776  0.8443 -0.0576  1.1032
    4bbb     C5  104   1.533   6.469   5.962  0.1342 -0.3593  0.2144
    4bbb     H9  105   1.627   6.525   5.958 -1.2945  2.1213 -1.5444
    4bbb    H10  106   1.455   6.525   6.014 -0.8875 -1.3564 -0.1842
    4bbb     C6  107   1.658   6.688   5.624  0.1119  0.2296  0.4710
    4bbb    H11  108   1.593   6.729   5.546  0.9933 -0.0988 -0.4593
    4bbb    H12  109   1.655   6.762   5.706 -1.2488  0.5800  0.1263
    4bbb     C7  110   1.546   6.350   6.049 -0.2850  0.5115  0.6237
    4bbb     C8  111   1.791   6.686   5.555 -0.0495  0.3422 -0.1876
    4bbb     O1  112   1.512   6.244   6.010 -0.2857 -0.3822 -0.1861
    4bbb     O2  113   1.834   6.583   5.504 -0.5188 -0.5124  0.5777
    4bbb     N4  114   1.139   6.667   5.669  0.0788  0.6614  0.0926
    4bbb    H21  115   1.140   6.759   5.628 -1.1788 -0.6917 -3.3033
    5bbb     C1  116   1.102   6.941   4.965  0.4180  0.4898  0.1752
    5bbb     H1  117   1.152   6.920   5.060  0.6290 -1.1102 -0.2522
    5bbb     H2  118   1.032   7.023   4.977 -1.1488 -0.6808 -0.5509
    5bbb     C2  119   1.033   6.810   4.923 -0.1659 -0.6688  0.5500
    5bbb     H3  120   0.953   6.827   4.850 -0.1405  2.2394  1.0716
    5bbb     H4  121   1.111   6.741   4.886  1.5951  2.3909 -1.9988
    5bbb     N1  122   1.197   6.969   4.858 -0.2386 -0.4067 -0.2549
    5bbb     C3  123   1.333   6.990   4.900  0.0306  0.1552  0.3385
    5bbb     H5  124   1.328   7.063   4.982 -0.6334 -1.6707  2.0189
    5bbb     H6  125   1.390   7.034   4.817 -0.0288  1.8753  1.1640
    5bbb     C4  126   1.144   7.069   4.764  0.5624 -0.3076  0.2815
    5bbb     H7  127   1.036   7.052   4.772 -0.0696  2.5573 -1.0074
    5bbb     H8  128   1.173   7.171   4.790  0.3877 -0.0190 -0.6087
    5bbb     C5  129   1.196   7.029   4.628  0.6270  0.1822  0.9005
    5bbb     H9  130   1.305   7.037   4.618  0.3540  1.6806 -1.9692
    5bbb    H10  131   1.174   6.924   4.604 -2.7825  0.9636 -0.0584
    5bbb     C6  132   1.393   6.868   4.960 -0.1467  0.9945  0.4132
    5bbb    H11  133   1.373   6.861   5.068  1.2862  1.4162  0.7283
    5bbb    H12  134   1.367   6.780   4.900  3.8279  0.3661 -0.6767
    5bbb     C7  135   1.129   7.114   4.519 -0.8566  0.1986 -0.6981
    5bbb     C8  136   1.542   6.878   4.955 -0.8354  0.2899 -0.2636
    5bbb     O1  137   1.095   7.229   4.537 -0.7522 -0.0079  0.1185
    5bbb     O2  138   1.598   6.956   5.027 -0.6891  0.0864 -0.3591
    5bbb     N4  139   0.963   6.734   5.031 -0.7191 -0.5091  0.0159
    5bbb    H21  140   1.012   6.669   5.092 -2.6652 -2.8942 -0.7806
    6bbb     C1  141   1.568   5.439   5.311  0.2130 -0.3731  0.0589
    6bbb     H1  142   1.527   5.390   5.222  1.4740 -0.2668 -0.6005
    6bbb     H2  143   1.641   5.376   5.363  1.2201  0.1872 -0.6447
    6bbb     C2  144   1.446   5.467   5.408 -0.5526  0.0430 -0.2098
    6bbb     H3  145   1.404   5.366   5.423  0.2199 -0.1560  0.6637
    6bbb     H4  146   1.472   5.515   5.503 -1.2129  0.3848 -0.1981
    6bbb     N1  147   1.620   5.570   5.270  0.4328 -0.2029  0.0352
    6bbb     C3  148   1.701   5.641   5.378 -0.0862  0.3769  0.1240
    6bbb     H5  149   1.808   5.630   5.360  0.3509 -0.2986  2.7728
    6bbb     H6  150   1.680   5.604   5.479 -1.2292 -0.2469 -0.3126
    6bbb     C4  151   1.698   5.552   5.141 -0.0558  0.1961  0.3106
    6bbb     H7  152   1.782   5.622   5.134  1.1430 -1.0282  1.8539
    6bbb     H8  153   1.737   5.450   5.138  0.6425  0.4689 -2.5423
    6bbb     C5  154   1.598   5.573   5.028 -0.2391 -0.3066 -0.2551
    6bbb     H9  155   1.537   5.484   5.013  0.4450 -0.8626  0.1941
    6bbb    H10  156   1.547   5.669   5.042  0.8186  0.6114 -2.2695
    6bbb     C6  157   1.663   5.793   5.377 -0.4304 -0.1293 -0.5534
    6bbb    H11  158   1.558   5.801   5.409 -0.4082 -1.4353 -0.0838
    6bbb    H12  159   1.724   5.842   5.453 -0.1789 -2.6941  1.0160
    6bbb     C7  160   1.678   5.579   4.899 -0.7091 -0.5074  0.3178
    6bbb     C8  161   1.693   5.867   5.244  0.0702 -0.4349  0.1154
    6bbb     O1  162   1.712   5.685   4.845  0.4269  0.3524 -0.2899
    6bbb     O2  163   1.611   5.937   5.199 -0.6708  0.2602 -0.2292
    6bbb     N4  164   1.339   5.544   5.343 -0.1456  0.0786  0.1181
    6bbb    H21  165   1.317   5.630   5.393  0.0699  0.3952 -0.3217
    7bbb     C1  166   0.484   5.339   5.996  0.0946 -0.1411 -0.0761
    7bbb     H1  167   0.474   5.233   6.023 -2.4513  0.2491  0.7340
    7bbb     H2  168   0.444   5.351   5.895  0.6343 -1.6408 -0.5000
    7bbb     C2  169   0.639   5.360   5.996  0.4446 -0.1377  0.3931
    7bbb     H3  170   0.663   5.447   6.059 -1.3478 -0.5946  1.7783
    7bbb     H4  171   0.686   5.277   6.049  2.3245  1.2962  1.0796
    7bbb     N1  172   0.409   5.425   6.092 -0.6438  0.3769  0.1068
    7bbb     C3  173   0.426   5.565   6.053  0.6170 -0.4414 -0.6658
    7bbb     H5  174   0.354   5.590   5.974  0.2609 -0.3419 -0.3088
    7bbb     H6  175   0.528   5.592   6.022  1.5673 -0.2125  2.3325
    7bbb     C4  176   0.266   5.376   6.100 -0.0626 -0.5442 -0.5679
    7bbb     H7  177   0.193   5.446   6.142  0.8803  0.1264 -0.0235
    7bbb     H8  178   0.232   5.343   6.001  0.7764 -1.1334 -0.6696
    7bbb     C5  179   0.267   5.255   6.193  0.1562 -0.3415  0.0568
    7bbb     H9  180   0.334   5.171   6.168  0.5101 -0.2770  0.7600
    7bbb    H10  181   0.293   5.292   6.292 -5.6875  1.6860  1.2345
    7bbb     C6  182   0.383   5.639   6.184  0.9364  0.0919  0.1584
    7bbb    H11  183   0.314   5.578   6.244 -0.5696  2.9302  1.4941
    7bbb    H12  184   0.467   5.675   6.245  0.9733  0.0696  0.1208
    7bbb     C7  185   0.132   5.200   6.202  0.5570  0.0055 -0.2593
    7bbb     C8  186   0.312   5.767   6.152 -0.3312  0.0575 -0.1183
    7bbb     O1  187   0.081   5.152   6.101 -0.4154 -0.1435 -0.0331
    7bbb     O2  188   0.367   5.873   6.166 -0.1336  0.5592 -0.2707
    7bbb     N4  189   0.690   5.386   5.861 -0.6074  0.0731  0.6266
    7bbb    H21  190   0.625   5.388   5.783  0.3915  0.9034 -0.2138
    8bbb     C1  191  -0.652   6.468   5.916 -0.2842 -0.3862  0.2703
    8bbb     H1  192  -0.601   6.443   6.010  0.1161 -0.1135  0.1309
    8bbb     H2  193  -0.677   6.374   5.864 -1.4574  0.4997 -0.8269
    8bbb     C2  194  -0.537   6.530   5.831 -0.5227  0.0058  0.3728
    8bbb     H3  195  -0.534   6.639   5.834 -0.4179  0.0924 -1.8175
    8bbb     H4  196  -0.446   6.484   5.872  0.3215  0.2608 -1.1665
    8bbb     N1  197  -0.760   6.569   5.923  0.8329  0.6034 -0.4145
    8bbb     C3  198  -0.764   6.653   6.042  0.2725 -0.1034 -0.3549
    8bbb     H5  199  -0.778   6.587   6.128  2.0997 -0.3660 -0.2103
    8bbb     H6  200  -0.848   6.721   6.024  0.0017 -0.2187  0.4668
    8bbb     C4  201  -0.888   6.493   5.910 -0.4414 -0.4804  0.2563
    8bbb     H7  202  -0.886   6.404   5.974 -0.2963 -2.1740 -1.9896
    8bbb     H8  203  -0.972   6.553   5.946  0.8367  0.3641  1.9813
    8bbb     C5  204  -0.916   6.450   5.770  0.7293 -0.1798  0.0585
    8bbb     H9  205  -0.910   6.531   5.696  0.3172  1.1446  1.4361
    8bbb    H10  206  -0.841   6.378   5.734  1.5778  1.3462 -1.3679
    8bbb     C6  207  -0.646   6.752   6.041 -0.5496  0.3187  0.3540
    8bbb    H11  208  -0.546   6.711   6.058 -0.6309  0.6103  1.6984
    8bbb    H12  209  -0.623   6.806   5.949  3.1443  1.4676  1.7934
    8bbb     C7  210  -1.047   6.376   5.765  0.1138 -0.0636  0.5003
    8bbb     C8  211  -0.659   6.852   6.158 -0.0026 -0.0691 -0.7573
    8bbb     O1  212  -1.081   6.284   5.832 -0.3844 -0.6693 -0.6471
    8bbb     O2  213  -0.713   6.963   6.156 -0.7495  0.2196  0.1892
    8bbb     N4  214  -0.574   6.491   5.688 -0.0466 -0.5945  0.1982
    8bbb    H21  215  -0.580   6.390   5.674 -0.1904 -0.6833  0.8796
    9bbb     C1  216  -0.372   6.015   5.523 -0.3548 -0.3718 -0.2491
    9bbb     H1  217  -0.378   5.916   5.570 -1.1631 -0.1490  0.1313
    9bbb     H2  218  -0.446   6.081   5.569  2.2995  1.5898  1.5831
    9bbb     C2  219  -0.404   5.999   5.377  0.0141  0.2463 -0.4292
    9bbb     H3  220  -0.348   5.921   5.324  0.8713  1.4837 -1.4105
    9bbb     H4  221  -0.508   5.968   5.364  0.1959 -1.2217  1.2128
    9bbb     N1  222  -0.238   6.071   5.549  0.2564 -0.3930  0.5268
    9bbb     C3  223  -0.221   6.099   5.691 -0.0554 -0.7134  0.1823
    9bbb     H5  224  -0.120   6.083   5.729  0.1738 -1.2101 -0.6171
    9bbb     H6  225  -0.269   6.023   5.753 -0.6644 -0.1502  0.4207
    9bbb     C4  226  -0.136   5.979   5.498 -0.1193 -0.1160 -0.3443
    9bbb     H7  227  -0.097   5.914   5.577  0.3924  0.5998  0.0054
    9bbb     H8  228  -0.178   5.911   5.423 -1.7265 -0.0409  0.4314
    9bbb     C5  229  -0.022   6.061   5.431  0.8630 -0.1019  0.0287
    9bbb     H9  230  -0.068   6.108   5.343 -0.6129 -0.3764  0.6335
    9bbb    H10  231   0.019   6.136   5.499 -1.2152  1.3969 -0.2837
    9bbb     C6  232  -0.276   6.238   5.728  0.5613 -0.5557  0.3605
    9bbb    H11  233  -0.199   6.309   5.697 -1.7479  2.0014  0.1553
    9bbb    H12  234  -0.364   6.280   5.677  0.3203 -0.6609  0.6846
    9bbb     C7  235   0.087   5.981   5.387 -0.1994  0.8216 -0.1022
    9bbb     C8  236  -0.308   6.242   5.873  0.5647 -0.4768 -0.1418
    9bbb     O1  237   0.092   5.921   5.284  0.5640  0.7370  0.1313
    9bbb     O2  238  -0.221   6.253   5.960  0.3792  0.5046 -0.3907
    9bbb     N4  239  -0.381   6.125   5.310 -0.0764 -0.2869 -0.1666
    9bbb    H21  240  -0.309   6.192   5.334 -0.7206  0.2156  0.3923
   10bbb     C1  241   1.771   6.308   6.353  0.8014 -0.1823 -0.4886
   10bbb     H1  242   1.850   6.316   6.276 -0.1462  0.4953 -1.4157
   10bbb     H2  243   1.804   6.233   6.426 -2.3815  0.9177  2.3384
   10bbb     C2  244   1.660   6.266   6.261 -0.0232 -0.1704  0.1205
   10bbb     H3  245   1.692   6.181   6.199 -1.0438 -0.3047 -0.2362
   10bbb     H4  246   1.573   6.232   6.318  0.3215  1.1946  1.5363
   10bbb     N1  247   1.753   6.441   6.420 -0.8394  0.1465  0.3131
   10bbb     C3  248   1.681   6.420   6.546  0.4960  0.2097  0.1115
   10bbb     H5  249   1.753   6.403   6.627  0.8467 -0.8742 -0.4182
   10bbb     H6  250   1.616   6.332   6.540 -1.1480  1.4801 -2.2993
   10bbb     C4  251   1.885   6.496   6.438 -0.5083 -0.4245  0.3077
   10bbb     H7  252   1.860   6.586   6.496  0.4938 -0.8542  1.4402
   10bbb     H8  253   1.946   6.430   6.500  1.3494  0.3819 -0.5754
   10bbb     C5  254   1.943   6.540   6.306 -0.7876 -0.8907 -1.0338
   10bbb     H9  255   2.003   6.476   6.240  1.8067  1.1535 -0.8062
   10bbb    H10  256   1.860   6.585   6.250 -1.5234  1.6597  1.8182
   10bbb     C6  257   1.603   6.545   6.588  0.2030 -1.2334  0.0052
   10bbb    H11  258   1.673   6.628   6.603 -1.2473  0.8662 -3.5737
   10bbb    H12  259   1.524   6.564   6.515  1.0579  0.1405 -0.5957
   10bbb     C7  260   2.047   6.647   6.338  0.1193  0.2953 -0.6950
   10bbb     C8  261   1.526   6.516   6.718 -0.1073 -0.3049 -0.0633
   10bbb     O1  262   2.135   6.624   6.423 -0.5242 -0.2504  0.1192
   10bbb     O2  263   1.540   6.406   6.773 -0.4851 -0.7800 -0.3115
   10bbb     N4  264   1.618   6.374   6.171  0.9422  0.2843 -0.1788
   10bbb    H21  265   1.647   6.470   6.188 -1.6962  0.9283  1.2628
   11bbb     C1  266   2.079   6.848   5.690 -0.0878  0.2077 -0.4190
   11bbb     H1  267   2.078   6.955   5.716  0.1240  0.3475 -0.9612
   11bbb     H2  268   2.185   6.824   5.681  0.4542  1.7038  1.4403
   11bbb     C2  269   2.008   6.812   5.554 -0.1005  0.3618 -0.0992
   11bbb     H3  270   2.039   6.890   5.484 -1.0154  0.5900 -0.2644
   11bbb     H4  271   2.040   6.717   5.509  1.4228  0.5257  0.5843
   11bbb     N1  272   2.017   6.755   5.792  0.1905  0.0739  0.3465
   11bbb     C3  273   2.036   6.812   5.929  0.0937  0.1587  0.0651
   11bbb     H5  274   2.134   6.860   5.931  0.3528 -0.3159 -0.7491
   11bbb     H6  275   2.026   6.729   6.001 -2.7668  0.8679  0.6413
   11bbb     C4  276   2.061   6.616   5.779  0.0035  0.1715  0.0183
   11bbb     H7  277   2.049   6.588   5.673 -1.9106 -0.5421  0.3746
   11bbb     H8  278   2.165   6.596   5.805  1.1409  2.7757 -2.0960
   11bbb     C5  279   1.955   6.529   5.857  0.2555 -0.4146  0.4885
   11bbb     H9  280   1.965   6.535   5.966  1.4750 -2.1758  0.5136
   11bbb    H10  281   1.857   6.569   5.825  0.7574  1.0149  0.6557
   11bbb     C6  282   1.941   6.929   5.958 -0.3911  0.3993  0.1517
   11bbb    H11  283   1.975   6.986   6.045 -0.1714 -0.0312  0.3523
   11bbb    H12  284   1.936   6.995   5.871 -0.4387 -2.8307 -2.5222
   11bbb     C7  285   1.977   6.383   5.836 -0.1933  0.1403 -0.0930
   11bbb     C8  286   1.807   6.876   6.000  0.1806 -0.5375 -0.2327
   11bbb     O1  287   2.059   6.320   5.903  0.0269  0.2486 -0.0967
   11bbb     O2  288   1.792   6.801   6.092 -0.5047 -0.2208  0.4415
   11bbb     N4  289   1.862   6.804   5.558  0.4797  0.0676 -0.1414
   11bbb    H21  290   1.813   6.871   5.614 -0.9072 -2.5379  1.9864
   12bbb     C1  291   0.963   7.064   4.184  0.3728 -0.4971  0.3517
   12bbb     H1  292   0.866   7.114   4.187  0.9403  0.6696  0.0571
   12bbb     H2  293   0.956   6.962   4.223  1.1985 -0.4324  0.7041
   12bbb     C2  294   1.073   7.126   4.270  0.0862 -0.5253 -0.4410
   12bbb     H3  295   1.166   7.118   4.211  0.3283 -2.5874  0.1412
   12bbb     H4  296   1.045   7.232   4.276 -0.5351 -0.7113  0.0260
   12bbb     N1  297   1.006   7.064   4.040 -0.5340 -0.4845 -0.1823
   12bbb     C3  298   1.039   7.193   3.987 -0.2662 -0.6833  0.1521
   12bbb     H5  299   1.100   7.246   4.061  2.3158 -0.9470 -1.6798
   12bbb     H6  300   0.956   7.261   3.964  0.2650  0.6066  1.8079
   12bbb     C4  301   0.908   6.998   3.957  0.0397 -0.3456  0.0440
   12bbb     H7  302   0.822   7.067   3.949 -0.3774 -0.8208  0.3793
   12bbb     H8  303   0.947   6.986   3.855 -1.5176 -0.5800 -0.5531
   12bbb     C5  304   0.860   6.856   4.009 -0.4674 -0.0952  1.2607
   12bbb     H9  305   0.944   6.795   4.043  0.5747 -0.4302 -1.6177
   12bbb    H10  306   0.786   6.863   4.089  1.3421 -2.1226  3.2516
   12bbb     C6  307   1.125   7.187   3.867 -0.0904  0.0613 -0.3569
   12bbb    H11  308   1.219   7.132   3.882 -0.4075 -0.9833 -1.9543
   12bbb    H12  309   1.058   7.137   3.796 -0.1218 -2.2457  1.2050
   12bbb     C7  310   0.792   6.782   3.898  0.3162  0.2804  0.1186
   12bbb     C8  311   1.166   7.326   3.826  0.1847  0.3698 -0.1013
   12bbb     O1  312   0.852   6.712   3.813  0.3959 -0.2422  0.3829
   12bbb     O2  313   1.222   7.400   3.904  0.5412  0.1851  0.1179
   12bbb     N4  314   1.101   7.052   4.401  0.3961 -0.4919 -0.0060
   12bbb    H21  315   1.130   6.956   4.387 -0.7309 -1.1419  1.7984
   13bbb     C1  316   1.804   6.836   4.734  0.3095  0.3894  0.4628
   13bbb     H1  317   1.820   6.943   4.753 -3.2861  1.0028  0.6741
   13bbb     H2  318   1.735   6.825   4.650  0.7912 -0.1147  0.1297
   13bbb     C2  319   1.752   6.769   4.866 -0.4439  0.1431  0.4069
   13bbb     H3  320   1.774   6.662   4.855 -0.5189  0.2367 -0.7525
   13bbb     H4  321   1.806   6.813   4.950  1.6132 -1.8288  0.1842
   13bbb     N1  322   1.930   6.774   4.690 -0.5384  0.4157 -0.0947
   13bbb     C3  323   1.987   6.801   4.560  0.1257 -0.5199 -0.1964
   13bbb     H5  324   2.061   6.720   4.549 -1.5405 -2.2933  0.8944
   13bbb     H6  325   2.021   6.904   4.548  1.7043 -0.8734  0.8422
   13bbb     C4  326   2.044   6.760   4.793 -0.3499  0.9828 -0.0191
   13bbb     H7  327   2.007   6.694   4.873  0.6668 -0.1563 -0.4663
   13bbb     H8  328   2.117   6.694   4.745 -0.2054  0.6733  0.6160
   13bbb     C5  329   2.112   6.892   4.836  0.6693  0.5248  0.3881
   13bbb     H9  330   2.174   6.924   4.751  0.2987  0.2159 -0.0005
   13bbb    H10  331   2.030   6.963   4.852  1.2262  1.8754 -2.1791
   13bbb     C6  332   1.886   6.781   4.450  0.6632 -0.4433  0.1225
   13bbb    H11  333   1.828   6.688   4.460  1.5079 -0.8793  1.0571
   13bbb    H12  334   1.809   6.859   4.458  0.1573 -0.9449  0.1908
   13bbb     C7  335   2.196   6.869   4.950  0.3350 -1.1497 -0.0363
   13bbb     C8  336   1.945   6.799   4.313 -0.3299 -0.0858 -0.2073
   13bbb     O1  337   2.148   6.896   5.058 -0.0459 -0.2474  0.2398
   13bbb     O2  338   2.065   6.815   4.295  0.1859  0.1636 -0.0328
   13bbb     N4  339   1.604   6.782   4.876 -0.4901  0.1214 -0.0270
   13bbb    H21  340   1.542   6.712   4.838 -1.0720  0.8895 -0.5221
   14bbb     C1  341   1.980   5.455   4.870 -0.7884  0.5655  0.1132
   14bbb     H1  342   1.982   5.555   4.915 -0.3805  0.5296  0.1760
   14bbb     H2  343   2.071   5.453   4.808 -0.3083 -1.6085  0.8098
   14bbb     C2  344   1.857   5.448   4.781  0.1566 -0.3857  0.6083
   14bbb     H3  345   1.867   5.523   4.701 -0.0118 -2.4810 -1.4933
   14bbb     H4  346   1.859   5.352   4.729 -0.4921 -0.8622  1.4418
   14bbb     N1  347   1.988   5.357   4.976 -0.1880  0.5446 -0.6094
   14bbb     C3  348   2.098   5.402   5.058  0.3394 -0.3001 -0.5175
   14bbb     H5  349   2.175   5.461   5.008 -0.7760 -1.4039 -3.7375
   14bbb     H6  350   2.162   5.317   5.087  0.1767 -0.7013 -1.3201
   14bbb     C4  351   2.009   5.224   4.918  0.0606  0.1610  0.3246
   14bbb     H7  352   1.939   5.208   4.835 -0.9590  1.1312  0.9629
   14bbb     H8  353   2.112   5.223   4.883 -0.6038 -0.9334 -1.7342
   14bbb     C5  354   1.989   5.114   5.026 -0.1418  0.1845  0.0023
   14bbb     H9  355   2.067   5.122   5.102  0.7146 -0.2002 -0.8148
   14bbb    H10  356   1.892   5.126   5.074  0.7723  2.0376  1.5117
   14bbb     C6  357   2.037   5.485   5.169 -0.4838 -0.1967  0.2338
   14bbb    H11  358   1.982   5.572   5.130  0.3827  0.5017  0.5497
   14bbb    H12  359   1.962   5.418   5.215 -0.0319 -0.6171  0.3625
   14bbb     C7  360   1.979   4.975   4.963 -0.1097 -0.4254  0.0224
   14bbb     C8  361   2.124   5.534   5.280 -0.1722 -0.1039 -0.1488
   14bbb     O1  362   1.937   4.958   4.849  0.4457 -0.1598  0.3805
   14bbb     O2  363   2.209   5.616   5.259 -0.1397 -0.3232  0.7650
   14bbb     N4  364   1.730   5.459   4.861 -0.0706 -0.6618  0.3050
   14bbb    H21  365   1.700   5.383   4.921  0.9219 -0.2724  1.3532
   15bbb     C1  366   2.020   5.900   5.040  0.2097 -0.1799 -0.3151
   15bbb     H1  367   2.027   5.803   4.989  3.8666  0.1388 -0.7291
   15bbb     H2  368   2.069   5.886   5.138  0.9728  0.0020 -0.6651
   15bbb     C2  369   1.876   5.930   5.079  0.2144 -0.3202 -0.2168
   15bbb     H3  370   1.870   6.039   5.087 -2.1609 -0.0744 -3.1042
   15bbb     H4  371   1.813   5.929   4.989 -1.7392  2.3528  0.9986
   15bbb     N1  372   2.086   6.000   4.954 -0.5253 -0.7036 -0.0619
   15bbb     C3  373   2.235   5.983   4.974 -0.3082  0.1639  0.7247
   15bbb     H5  374   2.264   5.886   4.933 -2.3276 -0.9862  1.8363
   15bbb     H6  375   2.263   5.988   5.080  0.9607  1.2856  0.3616
   15bbb     C4  376   2.036   6.012   4.812  0.4354 -0.8597 -0.1632
   15bbb     H7  377   1.927   6.018   4.826  0.0822 -2.7657 -1.7488
   15bbb     H8  378   2.069   6.101   4.757  0.4084  0.5425  1.9286
   15bbb     C5  379   2.050   5.887   4.728  0.5745 -0.2013  0.1157
   15bbb     H9  380   2.143   5.839   4.760  1.2911  1.9549  1.4935
   15bbb    H10  381   1.968   5.824   4.764 -0.5361  0.6909 -0.7721
   15bbb     C6  382   2.316   6.088   4.901 -0.0115 -0.3111 -0.2342
   15bbb    H11  383   2.279   6.096   4.798  2.1908  1.4390 -0.9544
   15bbb    H12  384   2.313   6.186   4.949  0.3359  0.1721 -1.1723
   15bbb     C7  385   2.038   5.929   4.582  0.1063  0.2377 -0.6541
   15bbb     C8  386   2.452   6.062   4.918 -0.3416 -0.2316  0.5715
   15bbb     O1  387   1.936   5.986   4.547 -0.2355  0.5831 -0.1394
   15bbb     O2  388   2.507   6.065   5.025  0.0042 -0.6536 -0.0762
   15bbb     N4  389   1.819   5.860   5.197 -0.3383  0.1318  0.0616
   15bbb    H21  390   1.881   5.814   5.264 -0.7154  1.7712  1.6160
   16bbb     C1  391  -0.181   5.237   6.302 -0.1069 -0.2658  0.0982
   16bbb     H1  392  -0.165   5.254   6.194 -3.1316 -0.8140 -0.5301
   16bbb     H2  393  -0.174   5.334   6.353 -0.3485 -0.5017  0.5731
   16bbb     C2  394  -0.059   5.147   6.348  0.1570 -0.7986  0.7284
   16bbb     H3  395  -0.077   5.125   6.454 -0.4663 -0.7786  0.6282
   16bbb     H4  396  -0.064   5.055   6.288 -2.9634  0.6245 -1.4563
   16bbb     N1  397  -0.310   5.178   6.309  0.8951  0.2364  0.0457
   16bbb     C3  398  -0.415   5.273   6.274  0.2951  0.7082  0.1110
   16bbb     H5  399  -0.422   5.287   6.166 -2.9201 -2.0089 -0.2104
   16bbb     H6  400  -0.397   5.371   6.322 -0.8185  1.0553 -0.1406
   16bbb     C4  401  -0.327   5.053   6.231  0.8046  0.1162 -0.5001
   16bbb     H7  402  -0.415   5.068   6.168 -1.3364  1.0368  2.4913
   16bbb     H8  403  -0.246   5.035   6.159  1.2122 -0.7848  0.1587
   16bbb     C5  404  -0.339   4.929   6.321 -0.3296 -0.6560 -0.2079
   16bbb     H9  405  -0.246   4.904   6.373  1.0706  1.7520 -1.3836
   16bbb    H10  406  -0.414   4.939   6.401  2.3728  0.1075  2.4173
   16bbb     C6  407  -0.545   5.215   6.322  0.4287  0.1989  0.1894
   16bbb    H11  408  -0.548   5.105   6.329  0.9048  0.2877  2.4140
   16bbb    H12  409  -0.567   5.233   6.428  0.3313  1.7185 -0.0688
   16bbb     C7  410  -0.362   4.818   6.229 -0.7974  0.3587 -1.0516
   16bbb     C8  411  -0.664   5.257   6.239  0.5553  0.0399 -0.5056
   16bbb     O1  412  -0.414   4.834   6.119  0.4121  0.1557  0.6392
   16bbb     O2  413  -0.671   5.353   6.161 -0.0667 -0.2368  0.0673
   16bbb     N4  414   0.068   5.201   6.325  0.2806 -0.0571 -0.1412
   16bbb    H21  415   0.111   5.252   6.402 -0.6431 -0.8975  0.9776
   17bbb     C1  416  -0.004   5.858   5.951 -1.2241  0.4295  0.3491
   17bbb     H1  417   0.041   5.871   5.851 -0.0886  2.3526  1.0575
   17bbb     H2  418  -0.081   5.936   5.946 -0.7720  0.8203 -1.3355
   17bbb     C2  419   0.102   5.889   6.061 -1.2127 -0.5448  0.0689
   17bbb     H3  420   0.164   5.972   6.026 -0.2532 -1.3294 -0.1557
   17bbb     H4  421   0.047   5.927   6.148 -2.4218  1.6417 -1.5600
   17bbb     N1  422  -0.062   5.723   5.967 -0.2015  0.2041 -0.0061
   17bbb     C3  423  -0.103   5.682   5.835  0.2762 -0.9669  0.7100
   17bbb     H5  424  -0.163   5.756   5.779 -0.2550 -2.2149 -0.4275
   17bbb     H6  425  -0.183   5.608   5.845 -1.5610  0.6449 -1.0651
   17bbb     C4  426  -0.167   5.727   6.068  0.3807  0.2788  0.6762
   17bbb     H7  427  -0.139   5.791   6.153  0.3449 -0.9195  1.6158
   17bbb     H8  428  -0.265   5.769   6.039  0.1719  0.5050  1.6571
   17bbb     C5  429  -0.177   5.588   6.125  0.4636 -0.3052 -0.3871
   17bbb     H9  430  -0.215   5.508   6.061  3.1178 -1.3349 -0.8197
   17bbb    H10  431  -0.079   5.560   6.167  0.0082 -1.8943 -0.3452
   17bbb     C6  432   0.023   5.644   5.753 -0.0520  0.9933  0.5339
   17bbb    H11  433   0.080   5.734   5.730  0.1855  1.0053  1.1495
   17bbb    H12  434   0.086   5.567   5.801 -2.0829 -1.6321 -0.7736
   17bbb     C7  435  -0.270   5.585   6.243  0.0155 -0.4118 -0.5293
   17bbb     C8  436  -0.026   5.583   5.621 -0.3160  0.2877 -0.2216
   17bbb     O1  437  -0.239   5.570   6.361  0.5225 -0.4705  0.4259
   17bbb     O2  438  -0.054   5.653   5.529  0.5520 -0.4373  0.5689
   17bbb     N4  439   0.179   5.761   6.098 -0.0624 -0.3982  0.5411
   17bbb    H21  440   0.129   5.674   6.085 -0.4474 -0.2122  0.7456
   18bbb     C1  441  -1.311   6.385   5.484  0.0486  0.0338 -0.0127
   18bbb     H1  442  -1.363   6.303   5.434 -1.6662  1.7930 -1.2918
   18bbb     H2  443  -1.263   6.428   5.395  2.8167 -3.2098 -0.3132
   18bbb     C2  444  -1.204   6.324   5.573  0.2831 -0.3753 -0.1551
   18bbb     H3  445  -1.260   6.250   5.631  1.9923 -0.6400  1.2429
   18bbb     H4  446  -1.137   6.270   5.506 -0.5460 -1.2840 -0.2645
   18bbb     N1  447  -1.412   6.470   5.551 -0.9690 -0.4294  0.1588
   18bbb     C3  448  -1.464   6.422   5.681 -0.3378 -0.0948  0.6401
   18bbb     H5  449  -1.534   6.497   5.718 -0.1663  1.2025 -1.5295
   18bbb     H6  450  -1.376   6.409   5.745  2.1129  1.2053 -2.2289
   18bbb     C4  451  -1.507   6.524   5.455  0.4978  0.3775 -0.2007
   18bbb     H7  452  -1.471   6.500   5.354  1.0189 -1.7450  0.4348
   18bbb     H8  453  -1.603   6.474   5.474  0.8137 -0.2533 -0.2338
   18bbb     C5  454  -1.524   6.668   5.482  0.7058 -0.3791  0.3219
   18bbb     H9  455  -1.551   6.694   5.585 -1.5185 -2.7139  0.4184
   18bbb    H10  456  -1.430   6.720   5.459  0.0249  0.0076 -1.7941
   18bbb     C6  457  -1.536   6.284   5.667 -0.1901 -0.5935  0.2180
   18bbb    H11  458  -1.607   6.291   5.584  2.5199 -0.0447 -2.2351
   18bbb    H12  459  -1.457   6.217   5.630  0.2717  0.1335 -0.1301
   18bbb     C7  460  -1.629   6.710   5.382 -0.7017 -0.7259  0.5861
   18bbb     C8  461  -1.599   6.240   5.796  0.1303 -0.0702  0.3118
   18bbb     O1  462  -1.595   6.779   5.285 -0.2715  0.0498 -0.0696
   18bbb     O2  463  -1.545   6.257   5.906  0.2639 -0.4159 -0.1439
   18bbb     N4  464  -1.132   6.422   5.663  0.0947  0.5575 -0.0970
   18bbb    H21  465  -1.140   6.521   5.644  0.2980  0.6592  0.3383
   19bbb     C1  466  -0.764   6.772   6.460 -0.0482 -0.2908  0.4482
   19bbb     H1  467  -0.755   6.756   6.568  1.4153 -0.4978  0.3169
   19bbb     H2  468  -0.760   6.671   6.418 -1.2398  0.1026 -0.6845
   19bbb     C2  469  -0.637   6.846   6.414  0.6180 -0.6945  0.4691
   19bbb     H3  470  -0.655   6.954   6.412 -0.7253 -0.8894  0.8689
   19bbb     H4  471  -0.551   6.822   6.478 -0.7292 -0.1485  2.5826
   19bbb     N1  472  -0.890   6.839   6.418 -0.0260  0.3362  0.0577
   19bbb     C3  473  -0.927   6.957   6.497 -0.4826 -0.3679 -0.4207
   19bbb     H5  474  -0.834   7.012   6.518 -1.5210  1.7968 -1.1659
   19bbb     H6  475  -0.980   6.930   6.589  1.6277 -1.2612  0.5903
   19bbb     C4  476  -1.001   6.738   6.419  0.0063  0.2860  0.2573
   19bbb     H7  477  -0.984   6.669   6.503 -1.6065  1.5756  1.7351
   19bbb     H8  478  -1.101   6.783   6.425 -0.5909 -1.0768  1.0024
   19bbb     C5  479  -0.996   6.663   6.292 -0.1616 -0.1921  0.0445
   19bbb     H9  480  -0.991   6.731   6.206  1.8186 -2.4485 -1.7720
   19bbb    H10  481  -0.909   6.595   6.288  2.2299  2.7158 -2.9905
   19bbb     C6  482  -0.998   7.057   6.408  0.6268  0.1206 -0.1485
   19bbb    H11  483  -0.953   7.058   6.308 -2.0977 -0.9656 -1.4738
   19bbb    H12  484  -1.101   7.025   6.388  0.1850  1.8702 -0.7828
   19bbb     C7  485  -1.115   6.570   6.285 -0.0644  0.1981  0.4125
   19bbb     C8  486  -1.009   7.182   6.481 -0.1510  0.8918 -0.2214
   19bbb     O1  487  -1.155   6.508   6.384  0.5848 -0.3436 -0.2823
   19bbb     O2  488  -1.089   7.190   6.572 -0.1504  0.2597 -0.6394
   19bbb     N4  489  -0.603   6.804   6.269  0.2820  0.2503 -0.2205
   19bbb    H21  490  -0.557   6.716   6.251  2.4998  1.2753  0.0684
   20bbb     C1  491   0.363   5.853   5.621  0.7104 -0.3980  0.8684
   20bbb     H1  492   0.293   5.818   5.699  2.1256 -2.2959  1.3676
   20bbb     H2  493   0.416   5.947   5.644 -0.0212  0.5200 -0.9819
   20bbb     C2  494   0.300   5.868   5.481  0.7268 -0.5350  0.5438
   20bbb     H3  495   0.376   5.915   5.416  0.2804  2.3915  1.9605
   20bbb     H4  496   0.267   5.774   5.435 -0.9150  0.4701 -0.4449
   20bbb     N1  497   0.475   5.756   5.623  0.8294  0.4077  0.1788
   20bbb     C3  498   0.419   5.620   5.615  0.6761  0.5293 -0.4775
   20bbb     H5  499   0.319   5.622   5.570  0.3576  1.7050  0.2517
   20bbb     H6  500   0.405   5.570   5.712  1.0123 -1.3485 -1.3551
   20bbb     C4  501   0.545   5.773   5.751 -0.1070  0.6608 -0.0308
   20bbb     H7  502   0.468   5.790   5.828 -0.7422 -0.3302 -0.4285
   20bbb     H8  503   0.601   5.681   5.771 -2.5670 -0.8045  0.6578
   20bbb     C5  504   0.649   5.889   5.756  0.5537  0.2404  0.4086
   20bbb     H9  505   0.717   5.869   5.673 -1.4639 -1.1640 -0.9916
   20bbb    H10  506   0.600   5.984   5.733  0.2090 -0.3160 -1.2564
   20bbb     C6  507   0.511   5.529   5.537 -0.8371  0.1056  0.3753
   20bbb    H11  508   0.535   5.573   5.439  2.3341 -2.0100  0.0372
   20bbb    H12  509   0.611   5.522   5.582 -0.5263 -1.1866 -0.4558
   20bbb     C7  510   0.718   5.898   5.892  0.3467 -0.1611  0.5875
   20bbb     C8  511   0.450   5.390   5.527  0.2030 -0.4006  0.3355
   20bbb     O1  512   0.692   5.817   5.983 -0.1662 -0.1951  0.4804
   20bbb     O2  513   0.416   5.323   5.628  0.2838  0.2180  0.5918
   20bbb     N4  514   0.182   5.961   5.484 -0.1310 -0.1110  0.1261
   20bbb    H21  515   0.165   6.010   5.570  0.2346 -1.2141  0.8421
   21bbb     C1  516  -0.636   6.098   5.998 -0.4118 -0.0084 -0.1062
   21bbb     H1  517  -0.717   6.172   5.996 -0.0452  0.4746  1.4424
   21bbb     H2  518  -0.663   6.053   6.095  0.0666  1.1969  0.6208
   21bbb     C2  519  -0.493   6.160   6.019  0.0481  0.5141  0.2178
   21bbb     H3  520  -0.502   6.245   6.089 -2.9869  1.8455 -1.5512
   21bbb     H4  521  -0.431   6.083   6.066 -0.1067  0.6935  0.7272
   21bbb     N1  522  -0.632   5.991   5.892 -0.5640 -0.4565 -0.2237
   21bbb     C3  523  -0.767   5.971   5.848  0.1926  0.5367  0.2423
   21bbb     H5  524  -0.826   5.944   5.937  0.5984 -0.5287  0.2024
   21bbb     H6  525  -0.766   5.887   5.778  0.8823  0.5900  0.1866
   21bbb     C4  526  -0.564   5.863   5.934  0.2415 -0.0102 -0.5476
   21bbb     H7  527  -0.476   5.877   5.998 -0.2129 -1.4496  0.4620
   21bbb     H8  528  -0.644   5.807   5.985 -2.0243 -0.3510 -4.1283
   21bbb     C5  529  -0.527   5.790   5.814  0.4733  0.1976 -0.0444
   21bbb     H9  530  -0.608   5.779   5.741  1.5183  0.5585 -1.2949
   21bbb    H10  531  -0.462   5.852   5.751 -0.5257  0.1765 -1.1154
   21bbb     C6  532  -0.820   6.096   5.775 -0.3750 -0.1771  0.1938
   21bbb    H11  533  -0.919   6.060   5.743 -0.9755 -0.0671  1.8372
   21bbb    H12  534  -0.843   6.184   5.835 -1.7567  1.3017 -2.3484
   21bbb     C7  535  -0.480   5.654   5.841 -0.8186  0.4452 -0.2870
   21bbb     C8  536  -0.733   6.134   5.661 -0.5465  0.2747 -0.6088
   21bbb     O1  537  -0.487   5.599   5.951 -0.4292 -0.0955 -0.2569
   21bbb     O2  538  -0.643   6.218   5.664  0.2284 -0.5337 -0.4280
   21bbb     N4  539  -0.440   6.207   5.897 -0.0530  0.3815  0.3651
   21bbb    H21  540  -0.494   6.190   5.814 -2.1066  0.5055  1.6040
   22bbb     C1  541   1.934   6.971   6.406  0.3006 -0.5036  0.2611
   22bbb     H1  542   1.858   6.983   6.328 -0.6992  0.0053  1.2854
   22bbb     H2  543   1.965   7.074   6.431 -2.2737  0.5813 -0.7179
   22bbb     C2  544   2.058   6.903   6.351 -0.1365  0.0710 -0.1762
   22bbb     H3  545   2.094   6.969   6.272 -3.0176  1.2131 -0.6600
   22bbb     H4  546   2.142   6.895   6.421  1.7101  1.4571 -2.1116
   22bbb     N1  547   1.886   6.898   6.523 -1.1389  0.2871 -0.0889
   22bbb     C3  548   1.761   6.960   6.565  0.6239  0.4847 -0.2658
   22bbb     H5  549   1.775   7.068   6.573  1.3043  0.3533  0.3401
   22bbb     H6  550   1.726   6.916   6.659  0.3012 -1.2719 -1.1626
   22bbb     C4  551   1.977   6.899   6.641 -0.2065 -0.3980  0.2498
   22bbb     H7  552   2.084   6.907   6.617 -0.0831  0.7817  1.0686
   22bbb     H8  553   1.958   6.992   6.697  0.1363 -0.7465  0.9435
   22bbb     C5  554   1.957   6.771   6.720 -0.2206  0.6468  1.0142
   22bbb     H9  555   1.853   6.753   6.751 -0.4947 -0.1404 -0.3108
   22bbb    H10  556   1.995   6.680   6.672 -0.8304  1.1474 -0.4778
   22bbb     C6  557   1.645   6.926   6.479  0.2205 -0.0371  0.1717
   22bbb    H11  558   1.639   6.985   6.387  0.6054 -0.7805 -0.3312
   22bbb    H12  559   1.646   6.820   6.452 -1.3932 -0.0942  0.2525
   22bbb     C7  560   2.032   6.789   6.848 -0.3947 -0.5476  0.3748
   22bbb     C8  561   1.516   6.948   6.550 -0.2009  0.1139  0.2163
   22bbb     O1  562   1.988   6.866   6.933  1.0728  0.1271  0.1219
   22bbb     O2  563   1.452   6.865   6.612 -0.3366  0.2739  0.5313
   22bbb     N4  564   2.014   6.776   6.294 -0.0843  0.4398 -0.1046
   22bbb    H21  565   1.932   6.771   6.235 -1.9584  1.5386  2.2149
   23bbb     C1  566   1.297   6.570   6.964  0.1439  0.3335 -0.0603
   23bbb     H1  567   1.293   6.464   6.937  0.0219  0.3710 -0.1882
   23bbb     H2  568   1.224   6.615   6.896 -0.0215  1.3120  0.7420
   23bbb     C2  569   1.436   6.627   6.922 -0.0304  0.1660  0.6104
   23bbb     H3  570   1.452   6.729   6.959  1.6396 -0.3815  1.5002
   23bbb     H4  571   1.512   6.565   6.971 -0.7460  0.7589  2.5661
   23bbb     N1  572   1.256   6.597   7.098  0.0491  0.5974 -0.3229
   23bbb     C3  573   1.359   6.559   7.199  0.1230 -0.5814 -0.1925
   23bbb     H5  574   1.451   6.611   7.171 -0.4094  0.0312 -0.8219
   23bbb     H6  575   1.385   6.452   7.197 -1.3234 -0.9416 -1.5667
   23bbb     C4  576   1.117   6.551   7.126 -0.0449 -0.4459 -0.5747
   23bbb     H7  577   1.081   6.478   7.052 -0.6572  0.3169 -1.0485
   23bbb     H8  578   1.107   6.511   7.228  0.6963  1.3973  0.2507
   23bbb     C5  579   1.029   6.672   7.113 -0.3321 -0.3014 -0.2558
   23bbb     H9  580   1.039   6.709   7.010  0.3319 -1.2826 -0.5594
   23bbb    H10  581   0.926   6.637   7.127 -1.6268  3.0383 -0.5297
   23bbb     C6  582   1.325   6.601   7.338  0.3301  0.1080  0.6764
   23bbb    H11  583   1.312   6.710   7.342  1.8112  0.5150 -2.5506
   23bbb    H12  584   1.238   6.546   7.376  0.6695  0.0890  1.4350
   23bbb     C7  585   1.057   6.774   7.220  0.3152  0.5877 -0.1645
   23bbb     C8  586   1.444   6.583   7.424 -0.6324 -0.3504 -0.3060
   23bbb     O1  587   1.131   6.871   7.205  0.8551  0.5181  0.6200
   23bbb     O2  588   1.531   6.664   7.433 -0.1182  0.4215 -0.3118
   23bbb     N4  589   1.463   6.626   6.777 -0.3164  0.1262  0.1755
   23bbb    H21  590   1.462   6.710   6.721  0.7217  0.7481  1.0513
   24bbb     C1  591   1.734   6.137   5.667  0.0544  0.8220 -0.0871
   24bbb     H1  592   1.653   6.145   5.741 -0.7498 -0.0530 -0.8376
   24bbb     H2  593   1.739   6.031   5.638 -0.4494  0.7280  0.1584
   24bbb     C2  594   1.863   6.173   5.737 -0.2686 -0.1511  0.7154
   24bbb     H3  595   1.856   6.138   5.840 -2.0037  1.6458  1.2547
   24bbb     H4  596   1.937   6.124   5.672 -0.3898  1.7394 -0.9387
   24bbb     N1  597   1.697   6.218   5.539 -0.4791 -0.5322 -0.1698
   24bbb     C3  598   1.585   6.162   5.459 -0.5010 -0.1751 -0.0921
   24bbb     H5  599   1.604   6.059   5.426  0.0330  0.0559 -0.5161
   24bbb     H6  600   1.566   6.223   5.370  0.5196 -0.0146 -0.2100
   24bbb     C4  601   1.815   6.257   5.456  0.4270 -0.2605 -0.1231
   24bbb     H7  602   1.789   6.319   5.369  3.5500  1.2915 -0.0928
   24bbb     H8  603   1.879   6.325   5.513 -1.5088  0.3580  1.3752
   24bbb     C5  604   1.888   6.141   5.400 -0.3204 -0.3344 -0.4377
   24bbb     H9  605   1.896   6.065   5.478  1.3376  1.1028  0.8496
   24bbb    H10  606   1.838   6.092   5.315 -1.2733  1.7994 -1.1934
   24bbb     C6  607   1.448   6.159   5.532 -0.9292  0.1232 -0.7251
   24bbb    H11  608   1.436   6.076   5.602  0.7156  0.8909  0.5374
   24bbb    H12  609   1.441   6.252   5.590  0.3865 -0.3904  0.3208
   24bbb     C7  610   2.027   6.185   5.366  0.4140  0.4041  0.2788
   24bbb     C8  611   1.334   6.135   5.442  0.1141  1.2932 -0.4823
   24bbb     O1  612   2.044   6.282   5.296 -0.1390 -0.1933 -0.2292
   24bbb     O2  613   1.238   6.208   5.432  0.0869  0.5608 -0.1801
   24bbb     N4  614   1.890   6.322   5.744  0.4730  0.0648 -0.7059
   24bbb    H21  615   1.823   6.385   5.702  1.3762  1.0697 -0.6651
   25bbb     C1  616   1.482   6.933   6.056  0.4234  0.7269 -0.6504
   25bbb     H1  617   1.527   6.909   6.153  0.6292 -0.5630 -1.0459
   25bbb     H2  618   1.389   6.875   6.058  0.8947 -0.0263  0.9777
   25bbb     C2  619   1.559   6.879   5.933 -0.0807 -0.5086 -0.1519
   25bbb     H3  620   1.557   6.770   5.936 -1.0779 -0.4650  1.3009
   25bbb     H4  621   1.508   6.912   5.841 -1.5548 -1.5248  0.2720
   25bbb     N1  622   1.446   7.076   6.054 -0.5497  0.1789  0.5878
   25bbb     C3  623   1.530   7.152   6.151  0.2408  0.0956  0.0629
   25bbb     H5  624   1.633   7.119   6.132  0.7164  0.7171  1.4631
   25bbb     H6  625   1.506   7.129   6.256  1.8851 -1.9579  0.0489
   25bbb     C4  626   1.306   7.088   6.090 -0.0530  0.8580 -0.0439
   25bbb     H7  627   1.274   7.004   6.153  2.7337 -0.4986 -0.2729
   25bbb     H8  628   1.293   7.178   6.150 -1.9751  1.7385 -1.6361
   25bbb     C5  629   1.223   7.089   5.967  0.2379  0.0272 -0.0834
   25bbb     H9  630   1.257   7.176   5.909  1.0203 -0.1311  0.1267
   25bbb    H10  631   1.223   6.996   5.908 -0.0598  0.9424 -1.5955
   25bbb     C6  632   1.528   7.304   6.128 -0.1613  0.9411  0.7481
   25bbb    H11  633   1.584   7.315   6.034 -3.2516  0.6680 -1.2484
   25bbb    H12  634   1.430   7.348   6.105 -0.1221  1.0590  0.8042
   25bbb     C7  635   1.075   7.106   6.010 -0.0364 -0.9332  0.7070
   25bbb     C8  636   1.586   7.380   6.240  0.0650  0.3149  0.3810
   25bbb     O1  637   0.997   7.012   6.008 -0.2914 -0.0638  0.1900
   25bbb     O2  638   1.517   7.400   6.339  0.1544  0.1006  0.0251
   25bbb     N4  639   1.704   6.921   5.924 -0.0064 -0.4801 -0.8019
   25bbb    H21  640   1.729   6.973   5.841  1.5074  1.8591  0.9964
   26bbb     C1  641   0.591   6.899   3.672 -0.2664 -0.8431  0.1352
   26bbb     H1  642   0.688   6.949   3.680 -0.5900 -0.4004  1.6912
   26bbb     H2  643   0.511   6.969   3.698  0.0310 -0.4532  0.0079
   26bbb     C2  644   0.577   6.786   3.770  0.2406  0.6320  0.8361
   26bbb     H3  645   0.470   6.781   3.797 -0.1104  1.4960 -0.3253
   26bbb     H4  646   0.608   6.689   3.731 -1.2025  0.4148  0.1535
   26bbb     N1  647   0.575   6.845   3.534  0.5278  0.4249 -0.0347
   26bbb     C3  648   0.631   6.933   3.427 -0.2748 -0.7280 -0.2745
   26bbb     H5  649   0.620   7.040   3.448  2.0318 -0.6900  0.9941
   26bbb     H6  650   0.565   6.923   3.339 -1.7201  1.5480  0.4637
   26bbb     C4  651   0.434   6.807   3.505 -0.0761 -0.0900 -0.3431
   26bbb     H7  652   0.393   6.767   3.599  0.3984  0.3329  0.0524
   26bbb     H8  653   0.380   6.902   3.493  0.3001  0.0195 -1.1702
   26bbb     C5  654   0.414   6.706   3.391  0.0741 -0.3645 -0.0110
   26bbb     H9  655   0.421   6.762   3.297 -3.1212  0.0938 -0.0839
   26bbb    H10  656   0.494   6.631   3.400  1.3090  0.8120 -0.9023
   26bbb     C6  657   0.774   6.886   3.400  0.0058 -0.1626 -0.6587
   26bbb    H11  658   0.837   6.965   3.359  1.5915 -0.6495  0.7074
   26bbb    H12  659   0.821   6.852   3.493  0.9844 -1.3568 -1.5587
   26bbb     C7  660   0.287   6.627   3.413  0.3979  0.1319  0.5433
   26bbb     C8  661   0.774   6.774   3.299  0.2432 -0.3157 -0.3203
   26bbb     O1  662   0.240   6.590   3.519 -0.2689 -0.4616 -0.3951
   26bbb     O2  663   0.728   6.797   3.187 -0.3915  0.2407  0.4873
   26bbb     N4  664   0.659   6.810   3.887  0.5853  0.2011  0.5741
   26bbb    H21  665   0.621   6.875   3.955 -2.1513 -1.3732  0.7372
   27bbb     C1  666   1.117   7.508   3.485 -0.5993  0.6982 -0.1220
   27bbb     H1  667   1.164   7.591   3.431 -2.7384  3.0821  1.4494
   27bbb     H2  668   1.015   7.545   3.496 -1.7185 -2.5163  1.4609
   27bbb     C2  669   1.183   7.492   3.626  0.1469 -0.3779  0.5511
   27bbb     H3  670   1.292   7.494   3.613 -0.0538  0.5267 -1.3088
   27bbb     H4  671   1.151   7.582   3.679 -1.8693 -0.7804  0.0720
   27bbb     N1  672   1.129   7.371   3.409  0.4848 -0.1789 -0.0134
   27bbb     C3  673   1.262   7.328   3.369  0.0824  0.3705  0.1773
   27bbb     H5  674   1.315   7.341   3.464 -1.5331 -0.8856  1.3027
   27bbb     H6  675   1.300   7.394   3.290 -0.3637  0.2561 -0.1384
   27bbb     C4  676   1.041   7.371   3.295 -0.5196 -0.4260  0.4044
   27bbb     H7  677   0.971   7.455   3.297  0.1866  0.1614  1.0932
   27bbb     H8  678   1.097   7.381   3.201 -2.1059 -1.4723 -0.6971
   27bbb     C5  679   0.951   7.248   3.303 -0.2490  0.7148 -0.0298
   27bbb     H9  680   0.870   7.254   3.230 -1.2369 -1.1898  0.8490
   27bbb    H10  681   1.020   7.164   3.283  0.0951  1.2080 -0.9495
   27bbb     C6  682   1.275   7.180   3.327 -0.3270 -0.1187 -0.7784
   27bbb    H11  683   1.207   7.123   3.391 -0.6909  0.1094 -0.9602
   27bbb    H12  684   1.246   7.184   3.221 -3.5477  1.9839  0.0461
   27bbb     C7  685   0.900   7.243   3.443 -0.1467  0.9087  0.4682
   27bbb     C8  686   1.423   7.155   3.344  0.1401 -0.2841  0.0056
   27bbb     O1  687   0.952   7.161   3.519 -0.0919 -0.3463  0.6479
   27bbb     O2  688   1.496   7.204   3.261 -0.0377  0.4459 -0.3200
   27bbb     N4  689   1.141   7.368   3.701  0.4163  0.0577  0.1856
   27bbb    H21  690   1.109   7.291   3.644 -0.1431  1.0970 -0.9518
   28bbb     C1  691   2.408   6.636   5.089  0.0772 -0.3533 -0.6252
   28bbb     H1  692   2.319   6.622   5.152  0.3585  0.9967  0.1219
   28bbb     H2  693   2.494   6.621   5.156 -0.8594  0.0820  0.7124
   28bbb     C2  694   2.418   6.779   5.028  0.6442 -0.7167 -0.2391
   28bbb     H3  695   2.417   6.863   5.099  0.2732  0.7749 -1.9333
   28bbb     H4  696   2.515   6.790   4.979  1.1469 -1.2076  0.6250
   28bbb     N1  697   2.407   6.526   4.991 -1.1284 -0.0415  0.5963
   28bbb     C3  698   2.542   6.517   4.922  0.0771 -0.5191  0.1109
   28bbb     H5  699   2.623   6.548   4.989  1.6450 -1.0552 -1.4985
   28bbb     H6  700   2.545   6.587   4.838 -0.2149  1.5762  1.7247
   28bbb     C4  701   2.287   6.502   4.911 -1.1590 -0.3526  0.5896
   28bbb     H7  702   2.271   6.591   4.848  2.9348  1.4822  1.7902
   28bbb     H8  703   2.297   6.418   4.842  0.0818  0.4571 -0.2646
   28bbb     C5  704   2.171   6.470   5.000  0.1122 -0.3543  0.0892
   28bbb     H9  705   2.195   6.402   5.083  0.0721  0.1223  0.4966
   28bbb    H10  706   2.140   6.568   5.039  1.5127  0.0881  0.1332
   28bbb     C6  707   2.585   6.383   4.873  0.0226 -0.4984  0.4783
   28bbb    H11  708   2.577   6.307   4.953 -2.9179  0.9485  1.6934
   28bbb    H12  709   2.528   6.354   4.784 -0.1138 -0.4421  0.5481
   28bbb     C7  710   2.064   6.393   4.925 -0.7994 -0.9668  0.3441
   28bbb     C8  711   2.725   6.404   4.814  0.1626  0.0823 -1.0626
   28bbb     O1  712   2.052   6.388   4.805 -0.1570 -0.0723  0.1118
   28bbb     O2  713   2.745   6.461   4.712  1.3961  0.3296  0.0201
   28bbb     N4  714   2.320   6.811   4.920  0.3533  0.3380  0.4217
   28bbb    H21  715   2.350   6.802   4.824  0.8504 -0.4755  0.6345
   29bbb     C1  716   1.975   6.693   4.019  0.0479  0.8186  0.8141
   29bbb     H1  717   2.065   6.686   4.080  2.5069 -0.6518 -2.7034
   29bbb     H2  718   2.008   6.740   3.926  0.7053 -1.1871 -0.0090
   29bbb     C2  719   1.882   6.793   4.074 -0.2003 -0.2743 -0.3767
   29bbb     H3  720   1.941   6.885   4.063 -0.2920 -0.0106  1.0779
   29bbb     H4  721   1.789   6.806   4.016 -0.3765 -0.5637 -0.1615
   29bbb     N1  722   1.917   6.560   3.982  0.6919  0.1665  0.2371
   29bbb     C3  723   1.804   6.544   3.890  0.4493  0.0098  0.4222
   29bbb     H5  724   1.720   6.591   3.942  0.1147 -2.1527  2.0000
   29bbb     H6  725   1.781   6.438   3.875  1.4332 -0.2757  0.7942
   29bbb     C4  726   1.890   6.479   4.105 -0.5892 -0.8555  0.5835
   29bbb     H7  727   1.817   6.533   4.167 -2.2703 -1.0078 -1.1438
   29bbb     H8  728   1.844   6.388   4.064  2.6578 -1.6584 -1.7036
   29bbb     C5  729   2.023   6.449   4.167 -0.4995 -0.5356  0.3511
   29bbb     H9  730   2.088   6.391   4.100  0.0580  0.8155 -0.3212
   29bbb    H10  731   2.070   6.541   4.206  0.3442  1.3590 -4.4313
   29bbb     C6  732   1.818   6.623   3.762  0.0623  0.1400 -0.4367
   29bbb    H11  733   1.805   6.729   3.787  1.3834  0.4983 -1.1661
   29bbb    H12  734   1.920   6.602   3.728  0.3942  0.6982  0.2023
   29bbb     C7  735   2.001   6.355   4.287 -0.6495 -0.6424  0.1395
   29bbb     C8  736   1.716   6.580   3.663  0.0469 -0.5325  0.1463
   29bbb     O1  737   1.891   6.315   4.331 -0.4559 -0.2502  0.2042
   29bbb     O2  738   1.611   6.522   3.684  0.1607  0.1181 -0.5573
   29bbb     N4  739   1.851   6.782   4.217 -0.5355 -0.1429 -0.2280
   29bbb    H21  740   1.755   6.779   4.249 -0.3774  1.3871  0.4761
   30bbb     C1  741   2.090   4.665   4.944  0.2368  0.5337 -0.1019
   30bbb     H1  742   2.181   4.684   5.001  0.0790 -0.1835  0.4048
   30bbb     H2  743   2.105   4.714   4.847  1.5918 -0.7555 -0.5881
   30bbb     C2  744   1.979   4.731   5.030 -0.8796 -1.0256  0.1544
   30bbb     H3  745   1.881   4.722   4.981 -0.6672 -0.4978 -0.3792
   30bbb     H4  746   1.973   4.674   5.123  0.5658  0.5743  1.2879
   30bbb     N1  747   2.071   4.519   4.939 -0.4162  0.8944  0.3147
   30bbb     C3  748   2.204   4.454   4.909  0.1716 -0.6012 -0.0863
   30bbb     H5  749   2.282   4.517   4.862 -0.5469  0.2692 -0.1339
   30bbb     H6  750   2.191   4.359   4.856  1.8640 -1.0170  0.1677
   30bbb     C4  751   1.976   4.489   4.837 -0.5584  0.4791  0.5808
   30bbb     H7  752   1.901   4.569   4.834 -1.8591 -0.7063 -1.8480
   30bbb     H8  753   2.023   4.506   4.739 -1.8677  0.7036 -0.0338
   30bbb     C5  754   1.920   4.349   4.841  0.2417 -0.0416 -0.2719
   30bbb     H9  755   1.998   4.275   4.864  0.0012  0.0081  0.7419
   30bbb    H10  756   1.853   4.349   4.927  0.0589 -1.1334 -0.4003
   30bbb     C6  757   2.250   4.410   5.050  0.2444  0.6791 -0.1998
   30bbb    H11  758   2.262   4.490   5.124 -2.8345  1.3117 -0.2822
   30bbb    H12  759   2.178   4.344   5.098  0.8090  0.5360  0.4693
   30bbb     C7  760   1.833   4.318   4.721  0.1516 -0.1187 -0.2456
   30bbb     C8  761   2.374   4.330   5.029 -0.4730 -0.3586 -1.0224
   30bbb     O1  762   1.879   4.334   4.606  0.6950 -0.5930  0.0104
   30bbb     O2  763   2.445   4.340   4.932  0.5259  0.3205  0.3622
   30bbb     N4  764   2.004   4.870   5.055  0.2578  0.2691  0.4564
   30bbb    H21  765   2.033   4.896   5.149  1.4610  1.8241 -0.3059
   31bbb     C1  766   2.126   5.430   5.647 -0.4587 -0.0529 -1.4649
   31bbb     H1  767   2.122   5.325   5.614  1.4881 -1.3095  1.7605
   31bbb     H2  768   2.032   5.469   5.688  1.1936  1.2741  1.3784
   31bbb     C2  769   2.167   5.525   5.527  0.6876 -0.3766  0.2123
   31bbb     H3  770   2.159   5.627   5.565 -0.4563 -0.3537 -0.0359
   31bbb     H4  771   2.272   5.509   5.499  0.2920 -1.8448 -0.5688
   31bbb     N1  772   2.214   5.432   5.762  0.2713 -0.0317 -0.4068
   31bbb     C3  773   2.186   5.316   5.843  0.1880 -0.5224 -0.1846
   31bbb     H5  774   2.176   5.224   5.784 -0.5275 -0.9886  0.6428
   31bbb     H6  775   2.092   5.329   5.897  0.4972 -2.6297  0.9945
   31bbb     C4  776   2.211   5.557   5.834  0.0590 -0.4234 -0.1604
   31bbb     H7  777   2.137   5.629   5.797  0.8356  1.1248  1.1092
   31bbb     H8  778   2.196   5.545   5.942 -1.1751 -1.1558 -0.4058
   31bbb     C5  779   2.342   5.629   5.806 -0.4805 -0.0544 -0.5736
   31bbb     H9  780   2.432   5.577   5.842 -0.1332  1.1083  0.2708
   31bbb    H10  781   2.360   5.644   5.699 -0.9605  3.9381 -0.2097
   31bbb     C6  782   2.294   5.298   5.956  0.2955 -0.0065  0.0845
   31bbb    H11  783   2.380   5.247   5.911  1.0487  1.3208 -0.0114
   31bbb    H12  784   2.334   5.392   5.996 -2.2521  1.7218 -1.1181
   31bbb     C7  785   2.327   5.771   5.859 -0.3128  0.1534  0.1136
   31bbb     C8  786   2.254   5.198   6.056  0.0233  0.7336 -0.2641
   31bbb     O1  787   2.272   5.847   5.782 -0.4911 -0.1849 -0.5713
   31bbb     O2  788   2.151   5.132   6.052  0.7066 -0.4226 -0.1279
   31bbb     N4  789   2.096   5.491   5.404 -0.2615 -0.1245  0.1596
   31bbb    H21  790   2.029   5.415   5.404 -0.3580 -0.0399  0.3743
   32bbb     C1  791   2.073   5.823   4.278 -0.2764 -0.5978 -0.2566
   32bbb     H1  792   2.076   5.843   4.170 -0.0179 -1.2083 -0.3646
   32bbb     H2  793   1.974   5.845   4.319 -0.1427  0.5289 -0.4964
   32bbb     C2  794   2.150   5.933   4.356  0.1362  0.1745  0.2747
   32bbb     H3  795   2.254   5.919   4.324  0.0668 -0.9233  0.4710
   32bbb     H4  796   2.101   6.028   4.331 -2.1795 -1.0794 -0.1727
   32bbb     N1  797   2.105   5.681   4.306  0.2102 -0.0966 -0.3268
   32bbb     C3  798   2.023   5.588   4.241  0.3258  0.5659  0.1203
   32bbb     H5  799   2.071   5.489   4.237  1.6563  1.0874  1.9067
   32bbb     H6  800   2.002   5.621   4.138  1.1450  2.4625  0.5197
   32bbb     C4  801   2.243   5.658   4.283 -0.3284  0.1626 -0.2016
   32bbb     H7  802   2.309   5.717   4.348 -0.1316  1.2628 -1.3631
   32bbb     H8  803   2.260   5.552   4.305  0.9655  0.5758  0.9737
   32bbb     C5  804   2.279   5.681   4.132 -0.1869  0.2625 -1.6438
   32bbb     H9  805   2.209   5.623   4.071 -0.0586 -0.3997 -1.1737
   32bbb    H10  806   2.269   5.787   4.105  1.6637  0.6749 -0.9150
   32bbb     C6  807   1.899   5.574   4.323  0.1454 -0.4917  0.4831
   32bbb    H11  808   1.932   5.530   4.418 -0.0516  0.1690  0.8633
   32bbb    H12  809   1.853   5.673   4.335  0.4212 -0.0739 -1.6072
   32bbb     C7  810   2.421   5.628   4.119 -0.1510  0.5485 -0.3090
   32bbb     C8  811   1.798   5.493   4.259  0.1487  0.3172 -0.0200
   32bbb     O1  812   2.512   5.695   4.159 -0.0693 -0.6147  0.2997
   32bbb     O2  813   1.798   5.373   4.272 -0.0656 -0.6410 -0.2376
   32bbb     N4  814   2.149   5.906   4.500 -0.2640 -0.1140  0.3122
   32bbb    H21  815   2.226   5.867   4.552 -0.1456  2.0182  1.9058
   33bbb     C1  816   2.749   6.007   4.666 -0.2563 -0.2524 -0.3528
   33bbb     H1  817   2.729   6.097   4.607  1.2580  0.8622  0.7493
   33bbb     H2  818   2.703   5.915   4.626  2.4520 -1.0817 -1.7971
   33bbb     C2  819   2.681   6.041   4.800 -0.8018  0.2021  0.4426
   33bbb     H3  820   2.716   5.970   4.877 -1.1524 -1.3887 -0.8004
   33bbb     H4  821   2.730   6.136   4.824 -0.2178  0.2216 -0.7147
   33bbb     N1  822   2.891   5.973   4.687 -0.4408  0.7168  0.3318
   33bbb     C3  823   2.916   5.838   4.738 -1.4206 -0.0170  0.1101
   33bbb     H5  824   2.924   5.769   4.653 -3.3211 -0.5184  0.2919
   33bbb     H6  825   2.831   5.808   4.800 -0.3483  2.4258  3.0121
   33bbb     C4  826   2.976   5.991   4.559  0.3605 -0.0463 -0.2026
   33bbb     H7  827   3.069   5.934   4.568  0.6565  0.4349 -0.2104
   33bbb     H8  828   2.907   5.954   4.482 -2.7812  2.5132  1.1379
   33bbb     C5  829   3.020   6.127   4.536  0.2675 -0.1089 -0.1148
   33bbb     H9  830   2.939   6.195   4.566  1.0388  0.1526  1.5068
   33bbb    H10  831   3.104   6.151   4.602 -0.1961 -0.8440  0.7809
   33bbb     C6  832   3.043   5.828   4.819 -0.2719 -0.5040  0.6300
   33bbb    H11  833   3.123   5.890   4.779 -0.9247  1.1114  1.7300
   33bbb    H12  834   3.016   5.863   4.920 -3.5933 -1.2266  0.1142
   33bbb     C7  835   3.057   6.146   4.391  0.1669 -0.8167  0.0711
   33bbb     C8  836   3.092   5.680   4.821 -0.5583  0.0305 -0.0965
   33bbb     O1  837   3.110   6.062   4.326  0.3127 -0.2726 -0.2992
   33bbb     O2  838   3.109   5.622   4.719 -0.3759  0.2279  0.3469
   33bbb     N4  839   2.532   6.058   4.803 -0.4612  0.2310  0.3142
   33bbb    H21  840   2.482   6.050   4.715 -0.7621  1.5643  0.3353
   34bbb     C1  841  -0.482   4.487   6.268 -0.2893 -0.1563  0.1050
   34bbb     H1  842  -0.490   4.393   6.211 -0.1255 -0.0646 -0.0715
   34bbb     H2  843  -0.575   4.545   6.274 -0.2749 -0.3007  2.2797
   34bbb     C2  844  -0.368   4.564   6.198 -0.1843 -0.4057 -0.3487
   34bbb     H3  845  -0.281   4.498   6.184 -0.0452 -0.2695 -0.1309
   34bbb     H4  846  -0.401   4.592   6.097 -2.0098  0.1393  0.3624
   34bbb     N1  847  -0.438   4.455   6.402 -0.2276 -0.3775  0.4773
   34bbb     C3  848  -0.331   4.349   6.416  0.3921 -0.5062 -0.7183
   34bbb     H5  849  -0.268   4.360   6.327  4.5167  1.1861  2.0949
   34bbb     H6  850  -0.370   4.247   6.420 -2.2576  0.4559  2.2869
   34bbb     C4  851  -0.546   4.430   6.494 -0.0892 -0.1084  0.0909
   34bbb     H7  852  -0.627   4.375   6.446  0.1293  2.0631 -3.0941
   34bbb     H8  853  -0.511   4.366   6.575  0.9443 -1.4100 -1.3320
   34bbb     C5  854  -0.598   4.561   6.549 -0.4232 -0.8174 -0.6580
   34bbb     H9  855  -0.512   4.621   6.583 -1.1277  0.0057 -0.3029
   34bbb    H10  856  -0.650   4.622   6.474 -3.0523 -1.4980  0.5086
   34bbb     C6  857  -0.256   4.371   6.546 -0.1241  0.7911  0.3392
   34bbb    H11  858  -0.219   4.473   6.562  0.2938  0.5095  1.2463
   34bbb    H12  859  -0.315   4.347   6.636  1.2899 -0.3481  1.0169
   34bbb     C7  860  -0.694   4.536   6.657  0.2996  0.1432  0.5845
   34bbb     C8  861  -0.133   4.280   6.549  0.3787 -1.0518  0.0120
   34bbb     O1  862  -0.664   4.560   6.774 -0.3118 -0.8264  1.2864
   34bbb     O2  863  -0.095   4.224   6.447  0.0153 -0.7112 -0.1604
   34bbb     N4  864  -0.339   4.691   6.273  0.0155 -0.0567  0.0011
   34bbb    H21  865  -0.305   4.680   6.368  2.0408  2.2607 -0.3501
   35bbb     C1  866  -1.031   5.195   6.290 -1.7750  0.0522  0.2859
   35bbb     H1  867  -1.120   5.206   6.228 -0.5712  1.5883 -1.2728
   35bbb     H2  868  -1.015   5.295   6.332  2.4328 -0.6174  0.7463
   35bbb     C2  869  -0.906   5.180   6.194 -0.0303 -0.0005  0.2105
   35bbb     H3  870  -0.910   5.085   6.139  0.9602  1.0763 -1.8266
   35bbb     H4  871  -0.908   5.266   6.125 -2.5300  0.8177  1.1770
   35bbb     N1  872  -1.036   5.092   6.391 -0.5595  0.1530  0.4788
   35bbb     C3  873  -1.133   5.119   6.492 -0.0666  0.0243 -0.1507
   35bbb     H5  874  -1.114   5.046   6.572  1.8084  0.0193 -0.5565
   35bbb     H6  875  -1.235   5.107   6.453 -0.6276 -1.1834  1.5810
   35bbb     C4  876  -1.035   4.957   6.335  0.7730  0.0778 -0.5523
   35bbb     H7  877  -1.135   4.922   6.308  1.1322 -2.3898  1.0069
   35bbb     H8  878  -0.970   4.939   6.249 -1.4005 -0.9084 -2.0802
   35bbb     C5  879  -0.986   4.866   6.446 -0.6224 -0.0117  0.5892
   35bbb     H9  880  -1.042   4.866   6.540 -0.9109  3.1177  0.5206
   35bbb    H10  881  -0.982   4.765   6.401  1.8731  0.7081 -1.0336
   35bbb     C6  882  -1.120   5.258   6.560  0.2238  0.0391  0.1389
   35bbb    H11  883  -1.016   5.268   6.594  0.0623  0.6891  0.4507
   35bbb    H12  884  -1.142   5.340   6.491  1.1183  2.6692  2.7859
   35bbb     C7  885  -0.840   4.908   6.475  0.2947  0.0488  0.1450
   35bbb     C8  886  -1.222   5.257   6.676  0.5274  0.6186  0.4370
   35bbb     O1  887  -0.760   4.922   6.384 -0.4875 -0.1171 -0.2555
   35bbb     O2  888  -1.344   5.227   6.665 -0.0149 -0.2453 -0.0636
   35bbb     N4  889  -0.776   5.180   6.257  0.2788 -0.0662  0.4872
   35bbb    H21  890  -0.759   5.100   6.316 -3.2723 -0.9058  0.5512
   36bbb     C1  891  -0.543   5.761   6.351 -0.0919 -0.0808  0.2549
   36bbb     H1  892  -0.553   5.834   6.269 -2.0431 -2.2546 -1.5780
   36bbb     H2  893  -0.455   5.802   6.401  1.0672 -1.4850 -0.5713
   36bbb     C2  894  -0.514   5.621   6.299 -0.6360 -0.1048  0.8066
   36bbb     H3  895  -0.478   5.560   6.384  0.1957 -1.9772 -0.8103
   36bbb     H4  896  -0.603   5.582   6.249 -1.1520  2.5199 -0.4587
   36bbb     N1  897  -0.660   5.778   6.439 -0.7630  0.7987  0.2231
   36bbb     C3  898  -0.788   5.766   6.369  0.1564  0.0285  0.5198
   36bbb     H5  899  -0.875   5.745   6.433 -0.3252 -1.1504 -0.4772
   36bbb     H6  900  -0.784   5.688   6.291 -1.8516  0.2359  0.1543
   36bbb     C4  901  -0.659   5.692   6.554 -0.5567 -0.4189 -0.3387
   36bbb     H7  902  -0.740   5.734   6.614  0.8721  1.7804  0.1834
   36bbb     H8  903  -0.672   5.590   6.516 -1.8207 -0.3941 -0.0310
   36bbb     C5  904  -0.542   5.705   6.644  0.6553 -0.1043  0.4088
   36bbb     H9  905  -0.452   5.671   6.593 -0.6258 -0.5786 -1.6363
   36bbb    H10  906  -0.520   5.812   6.657  0.6288  0.1427 -1.3774
   36bbb     C6  907  -0.814   5.904   6.299 -0.5843  0.9425 -0.0484
   36bbb    H11  908  -0.796   5.986   6.369 -0.8200  2.7398 -1.9946
   36bbb    H12  909  -0.747   5.905   6.212  1.4787 -1.5287  1.3650
   36bbb     C7  910  -0.570   5.637   6.776 -0.5774  0.4141  0.1319
   36bbb     C8  911  -0.954   5.906   6.248 -1.1260 -0.6313 -0.5741
   36bbb     O1  912  -0.612   5.524   6.794 -0.4419 -0.3400  0.1275
   36bbb     O2  913  -0.975   5.910   6.127 -0.0228 -0.0684  0.7065
   36bbb     N4  914  -0.403   5.611   6.208  0.0772 -0.4687 -0.1983
   36bbb    H21  915  -0.428   5.621   6.110 -2.1376 -0.2670  0.3317
   37bbb     C1  916   0.081   5.279   5.462  0.0345 -0.4810 -0.2290
   37bbb     H1  917   0.143   5.234   5.541  1.0052 -0.1282 -0.7749
   37bbb     H2  918   0.153   5.356   5.433 -0.8092  1.3281  2.1046
   37bbb     C2  919  -0.051   5.355   5.510 -0.3939  0.7826 -0.1948
   37bbb     H3  920  -0.095   5.414   5.429  1.0787  3.7154  0.9706
   37bbb     H4  921  -0.122   5.275   5.533  2.7502 -2.3070 -0.3724
   37bbb     N1  922   0.063   5.183   5.349 -0.2099 -0.3064  0.4024
   37bbb     C3  923  -0.024   5.065   5.382  0.2003 -0.7138 -0.2493
   37bbb     H5  924  -0.039   5.001   5.294 -0.1654  0.1815 -0.8595
   37bbb     H6  925  -0.117   5.096   5.431  1.2689 -0.8164  1.9200
   37bbb     C4  926   0.021   5.231   5.220 -0.2245 -0.3926 -0.0090
   37bbb     H7  927   0.019   5.148   5.149  1.3394 -0.1102 -0.4340
   37bbb     H8  928  -0.076   5.281   5.231  0.4203  0.9427 -0.0890
   37bbb     C5  929   0.127   5.333   5.168  0.4049  0.1523  0.0382
   37bbb     H9  930   0.099   5.429   5.214 -0.8855 -0.3785  0.3866
   37bbb    H10  931   0.233   5.315   5.190  1.1792  1.2642 -2.5037
   37bbb     C6  932   0.045   4.978   5.487  0.2390  0.1089  0.5623
   37bbb    H11  933   0.146   4.951   5.453  0.6134 -1.1603  2.4888
   37bbb    H12  934   0.044   5.032   5.583 -1.6940  1.9287 -0.4032
   37bbb     C7  935   0.112   5.357   5.015  0.2268 -0.4586 -0.2398
   37bbb     C8  936  -0.041   4.856   5.504 -0.8474  0.6995  0.5551
   37bbb     O1  937   0.022   5.312   4.955 -0.0030 -0.2608 -0.4789
   37bbb     O2  938  -0.128   4.852   5.585 -0.0845  0.1305  0.2758
   37bbb     N4  939  -0.029   5.443   5.623 -0.1142  0.1540 -0.0024
   37bbb    H21  940  -0.019   5.393   5.710  1.3452 -2.2297 -1.4094
   38bbb     C1  941  -2.007   6.669   5.383 -0.1045 -0.0691 -0.2134
   38bbb     H1  942  -2.094   6.714   5.333  0.8897  1.8687 -0.2808
   38bbb     H2  943  -2.018   6.697   5.488 -2.5682  0.1391 -0.4592
   38bbb     C2  944  -1.878   6.740   5.331 -0.2621  0.2484  0.4349
   38bbb     H3  945  -1.854   6.735   5.224 -1.4536  2.1313  0.0322
   38bbb     H4  946  -1.882   6.846   5.358 -0.6586  0.1512  0.7696
   38bbb     N1  947  -2.006   6.526   5.376 -0.2937 -0.0201  0.3064
   38bbb     C3  948  -2.134   6.460   5.418 -0.1686  0.5892  0.4145
   38bbb     H5  949  -2.111   6.358   5.450  2.3463  1.0317  0.1718
   38bbb     H6  950  -2.205   6.471   5.335 -1.3281  0.8340  1.4093
   38bbb     C4  951  -1.968   6.473   5.241 -0.4026  0.0609 -0.1938
   38bbb     H7  952  -2.049   6.487   5.169 -0.4039 -1.5179 -0.5273
   38bbb     H8  953  -1.876   6.519   5.201  0.1566 -2.1903 -1.6994
   38bbb     C5  954  -1.932   6.322   5.235 -0.1614 -0.3432 -0.2279
   38bbb     H9  955  -1.833   6.301   5.278 -0.7429 -0.3044  1.1656
   38bbb    H10  956  -2.008   6.272   5.296 -1.7976  1.7584 -0.4197
   38bbb     C6  957  -2.200   6.531   5.536 -0.2288 -0.1719  0.1047
   38bbb    H11  958  -2.119   6.556   5.606 -0.1015 -0.9357  0.2328
   38bbb    H12  959  -2.241   6.628   5.506 -2.1008 -1.1087 -0.5167
   38bbb     C7  960  -1.937   6.271   5.091 -0.1249  0.4446 -0.3542
   38bbb     C8  961  -2.292   6.448   5.609 -0.1852  0.2201  0.3796
   38bbb     O1  962  -1.850   6.296   5.007 -0.0039 -0.1553  0.2030
   38bbb     O2  963  -2.263   6.383   5.705 -0.3413  0.5792  0.5621
   38bbb     N4  964  -1.760   6.680   5.401  0.5008  0.0510 -0.6428
   38bbb    H21  965  -1.780   6.627   5.486  2.1273  1.5027  0.7177
   39bbb     C1  966  -1.938   6.054   5.838 -0.5320  0.7535  0.1328
   39bbb     H1  967  -1.920   6.016   5.737  2.0433  2.9581 -0.3598
   39bbb     H2  968  -2.009   6.137   5.826  0.2436  1.5134  0.6492
   39bbb     C2  969  -1.804   6.111   5.883  0.3904  0.0606  0.0558
   39bbb     H3  970  -1.817   6.171   5.974 -1.1486  1.5373 -1.0978
   39bbb     H4  971  -1.745   6.023   5.914  1.0464  0.7342  0.7576
   39bbb     N1  972  -1.995   5.947   5.927 -0.0482 -0.3283 -0.3557
   39bbb     C3  973  -2.072   6.016   6.031 -0.4561  0.3454 -0.3367
   39bbb     H5  974  -2.174   6.036   5.995 -1.4969 -1.8382  1.1363
   39bbb     H6  975  -2.014   6.106   6.056  1.8685 -1.3279  0.5499
   39bbb     C4  976  -2.078   5.846   5.866  0.2895 -0.5043 -0.7944
   39bbb     H7  977  -2.122   5.780   5.942 -0.0185 -0.7452 -1.1785
   39bbb     H8  978  -2.164   5.891   5.814 -1.6233 -2.2893  0.6422
   39bbb     C5  979  -1.986   5.760   5.782  0.8110  0.1854  0.7021
   39bbb     H9  980  -1.919   5.816   5.716 -1.7125  2.4496 -0.1135
   39bbb    H10  981  -1.920   5.696   5.843  2.7770 -0.2977 -1.7814
   39bbb     C6  982  -2.068   5.938   6.163  0.1786 -0.5267 -0.5783
   39bbb    H11  983  -2.092   5.831   6.153  0.5519 -0.7041  0.3778
   39bbb    H12  984  -1.964   5.932   6.199  0.1610  1.4950 -0.0955
   39bbb     C7  985  -2.073   5.665   5.696 -0.1263 -0.0456 -0.0018
   39bbb     C8  986  -2.158   5.995   6.268 -0.4737  0.3189 -0.5555
   39bbb     O1  987  -2.167   5.707   5.638  0.1741  0.5560  0.0372
   39bbb     O2  988  -2.271   5.950   6.290  0.1539  0.2466 -0.2850
   39bbb     N4  989  -1.720   6.175   5.782  0.4329  0.1269 -0.0371
   39bbb    H21  990  -1.757   6.175   5.688  0.3513 -2.1172 -0.0505
   40bbb     C1  991  -1.389   6.575   6.012  0.4893 -0.3341  0.5152
   40bbb     H1  992  -1.482   6.523   5.987  1.1487 -1.0925 -0.4699
   40bbb     H2  993  -1.320   6.564   5.927  0.7008  3.4151  0.0228
   40bbb     C2  994  -1.315   6.518   6.135 -0.2302 -0.2993  0.6964
   40bbb     H3  995  -1.368   6.538   6.229 -0.9884  0.8889  0.0404
   40bbb     H4  996  -1.312   6.410   6.117 -2.2425 -0.1197 -1.1669
   40bbb     N1  997  -1.406   6.725   6.021 -0.2484  0.4183  0.6168
   40bbb     C3  998  -1.501   6.766   6.127 -0.0072  0.1942  0.8687
   40bbb     H5  999  -1.555   6.690   6.185 -0.6367 -0.0215  0.0091
   40bbb     H6 1000  -1.577   6.834   6.087 -1.1744 -2.6531 -2.1896
   40bbb     C4 1001  -1.450   6.771   5.890 -0.2895  0.0329  0.4015
   40bbb     H7 1002  -1.384   6.722   5.817  0.3895  1.0303  0.3203
   40bbb     H8 1003  -1.554   6.744   5.868  0.2840 -2.0529  0.0811
   40bbb     C5 1004  -1.422   6.918   5.874 -0.2940 -0.6969 -0.8726
   40bbb     H9 1005  -1.502   6.977   5.921  0.5694  0.9398 -1.3921
   40bbb    H10 1006  -1.332   6.940   5.933 -0.2951 -0.2173 -1.0442
   40bbb     C6 1007  -1.406   6.831   6.231 -0.1384  0.4228 -0.9358
   40bbb    H11 1008  -1.341   6.749   6.266 -0.8401  0.3493  0.2503
   40bbb    H12 1009  -1.347   6.908   6.180  0.1428  1.4640  0.8542
   40bbb     C7 1010  -1.397   6.958   5.734  0.1644  0.0546  1.0547
   40bbb     C8 1011  -1.464   6.874   6.365 -0.3901 -0.0944  0.1165
   40bbb     O1 1012  -1.289   6.941   5.690  0.1300  0.3202  0.2452
   40bbb     O2 1013  -1.514   6.790   6.440  0.0908 -0.1809 -0.2704
   40bbb     N4 1014  -1.175   6.577   6.157 -0.0468  0.6332 -0.8198
   40bbb    H21 1015  -1.121   6.618   6.082  0.0807 -2.0008 -2.2809
   41bbb     C1 1016  -0.739   7.370   6.574  0.1800  0.0379  0.7094
   41bbb     H1 1017  -0.674   7.377   6.486  0.3151  2.2903  0.9380
   41bbb     H2 1018  -0.736   7.266   6.606 -1.9083 -0.0116  0.8385
   41bbb     C2 1019  -0.876   7.388   6.511 -0.2686 -0.8819  0.2236
   41bbb     H3 1020  -0.939   7.410   6.598  1.7233 -0.3510  1.5941
   41bbb     H4 1021  -0.868   7.466   6.434 -0.3924 -0.3774  0.7159
   41bbb     N1 1022  -0.708   7.459   6.687 -0.4627 -0.3699 -0.5554
   41bbb     C3 1023  -0.569   7.498   6.682  0.4547  0.1310  0.6510
   41bbb     H5 1024  -0.519   7.401   6.673 -0.7029 -0.2576 -3.2245
   41bbb     H6 1025  -0.538   7.553   6.773 -1.4644  0.2576  1.2610
   41bbb     C4 1026  -0.745   7.402   6.816 -0.4122  0.4958 -0.1197
   41bbb     H7 1027  -0.839   7.346   6.808 -0.9842  1.2348  1.0761
   41bbb     H8 1028  -0.678   7.323   6.850 -0.7632 -1.0338 -2.7417
   41bbb     C5 1029  -0.771   7.507   6.927 -0.2587  0.6210 -0.1808
   41bbb     H9 1030  -0.695   7.586   6.934 -0.6768  0.9101  1.5982
   41bbb    H10 1031  -0.873   7.545   6.912 -1.8236 -2.7710  0.9538
   41bbb     C6 1032  -0.547   7.584   6.556  0.5319  0.1637 -0.1201
   41bbb    H11 1033  -0.520   7.521   6.470 -1.2677 -0.7980 -0.0402
   41bbb    H12 1034  -0.632   7.648   6.527  0.5769 -1.1674 -3.7174
   41bbb     C7 1035  -0.788   7.448   7.061 -0.1695 -0.1954  0.3516
   41bbb     C8 1036  -0.425   7.665   6.587  0.6327  0.7421 -0.5825
   41bbb     O1 1037  -0.888   7.385   7.087 -0.0465 -0.0380  0.0372
   41bbb     O2 1038  -0.316   7.608   6.594  0.1935 -0.5219 -0.5455
   41bbb     N4 1039  -0.914   7.271   6.437 -0.1208 -0.0142  0.9360
   41bbb    H21 1040  -0.850   7.240   6.365 -1.9477  0.6711 -1.1154
   42bbb     C1 1041   1.001   6.104   6.021 -0.3994  0.4091  0.7930
   42bbb     H1 1042   0.976   6.187   5.954 -0.3383  0.1744  0.4769
   42bbb     H2 1043   1.072   6.047   5.959 -1.4618 -0.7473  0.6114
   42bbb     C2 1044   0.880   6.023   6.040  0.5723 -0.7472  0.0526
   42bbb     H3 1045   0.899   5.925   6.086 -1.4581 -0.4176  1.7567
   42bbb     H4 1046   0.811   6.078   6.105  1.9310  1.4429 -0.2880
   42bbb     N1 1047   1.067   6.167   6.141  0.4206 -0.1537  0.0467
   42bbb     C3 1048   1.142   6.288   6.099 -0.2176 -0.1019 -0.1733
   42bbb     H5 1049   1.138   6.313   5.992  0.5804 -0.1413 -0.2151
   42bbb     H6 1050   1.247   6.276   6.127 -0.4868 -0.1544  0.8460
   42bbb     C4 1051   1.150   6.061   6.194 -0.7138  0.3181 -0.6381
   42bbb     H7 1052   1.092   5.969   6.205 -2.3409  1.0341 -2.6040
   42bbb     H8 1053   1.243   6.044   6.138  0.2783  1.0270  0.7464
   42bbb     C5 1054   1.193   6.103   6.336 -0.5245  0.0188 -0.3622
   42bbb     H9 1055   1.277   6.172   6.327  0.7538 -1.6098 -1.7100
   42bbb    H10 1056   1.106   6.144   6.389 -0.6152  3.2949 -2.7610
   42bbb     C6 1057   1.073   6.403   6.169 -0.7856  0.3719 -0.5801
   42bbb    H11 1058   0.973   6.374   6.205 -0.1670 -1.4521 -0.2258
   42bbb    H12 1059   1.136   6.428   6.255 -1.8849  0.3112  0.2695
   42bbb     C7 1060   1.239   5.977   6.408 -0.2870 -0.0670 -0.7023
   42bbb     C8 1061   1.085   6.533   6.087 -0.8850  0.9824 -0.5214
   42bbb     O1 1062   1.340   5.914   6.380  0.5908  0.8432 -0.1221
   42bbb     O2 1063   1.187   6.590   6.074 -0.3462  0.3644  0.3537
   42bbb     N4 1064   0.811   5.994   5.909 -0.0682 -0.2089  0.8564
   42bbb    H21 1065   0.825   6.056   5.830 -0.3894 -1.3637 -0.1405
   43bbb     C1 1066   0.609   5.114   5.362  0.0127 -0.5401 -0.4403
   43bbb     H1 1067   0.681   5.174   5.419 -2.5955  2.1466  0.2897
   43bbb     H2 1068   0.623   5.139   5.256 -0.4026 -2.4938 -0.9895
   43bbb     C2 1069   0.467   5.176   5.393  0.2685  0.1417 -0.0359
   43bbb     H3 1070   0.392   5.142   5.321  1.2377  1.4598 -1.7220
   43bbb     H4 1071   0.435   5.133   5.489  1.0613  0.7460  0.5060
   43bbb     N1 1072   0.622   4.969   5.386 -0.6456 -0.1489  0.3472
   43bbb     C3 1073   0.766   4.936   5.350 -0.2481 -0.4290  0.3469
   43bbb     H5 1074   0.831   5.008   5.401  2.0377 -2.1454 -0.0035
   43bbb     H6 1075   0.791   4.935   5.243  0.3865 -0.5344  0.4918
   43bbb     C4 1076   0.524   4.892   5.312 -0.2536  0.4040 -0.6963
   43bbb     H7 1077   0.472   4.950   5.235 -0.6522  0.8329 -0.1216
   43bbb     H8 1078   0.564   4.800   5.269 -1.4351 -0.8339  0.7014
   43bbb     C5 1079   0.424   4.836   5.409  0.3913  0.0305  0.0209
   43bbb     H9 1080   0.471   4.795   5.500 -0.0655  4.9079  2.8601
   43bbb    H10 1081   0.358   4.919   5.437  0.9343  1.0087 -1.5031
   43bbb     C6 1082   0.801   4.802   5.395  0.2571  0.1889  0.3712
   43bbb    H11 1083   0.759   4.784   5.495 -2.2958 -0.7444 -0.7754
   43bbb    H12 1084   0.749   4.726   5.335 -0.4707  1.3924 -0.5631
   43bbb     C7 1085   0.342   4.731   5.335 -0.0123 -0.6934 -0.1709
   43bbb     C8 1086   0.957   4.780   5.391  0.2484 -0.2472  0.1811
   43bbb     O1 1087   0.236   4.765   5.285 -0.1649  0.4827 -0.2311
   43bbb     O2 1088   1.044   4.868   5.381  0.3068  0.2466  0.4228
   43bbb     N4 1089   0.466   5.324   5.410  0.6267 -0.6132  0.0937
   43bbb    H21 1090   0.504   5.383   5.337  3.2928  0.5790  2.2789
   44bbb     C1 1091  -0.515   5.364   5.760 -0.5396  0.6600 -0.2491
   44bbb     H1 1092  -0.595   5.400   5.695  1.9170  0.7026 -3.4801
   44bbb     H2 1093  -0.529   5.376   5.868  1.0616  3.4058 -0.2590
   44bbb     C2 1094  -0.391   5.452   5.717 -0.0224 -0.0003 -0.0110
   44bbb     H3 1095  -0.306   5.429   5.781 -0.0654  0.7087  0.3151
   44bbb     H4 1096  -0.370   5.415   5.616 -3.1148  1.5834 -1.4080
   44bbb     N1 1097  -0.491   5.220   5.738  0.3327 -0.4267  0.0071
   44bbb     C3 1098  -0.621   5.147   5.736  0.5732  0.1061 -0.0384
   44bbb     H5 1099  -0.616   5.040   5.713 -1.7395 -0.1961  0.5870
   44bbb     H6 1100  -0.670   5.192   5.649  2.1733 -1.2180 -1.7045
   44bbb     C4 1101  -0.386   5.160   5.827 -0.1360  0.1142 -0.2794
   44bbb     H7 1102  -0.290   5.212   5.819  0.9060 -1.4387  1.4371
   44bbb     H8 1103  -0.398   5.169   5.936  2.4804 -2.0755  0.2868
   44bbb     C5 1104  -0.356   5.021   5.786  0.0286 -0.3673 -0.4944
   44bbb     H9 1105  -0.435   4.954   5.822  1.1270 -0.7864  1.2974
   44bbb    H10 1106  -0.346   5.039   5.678  1.8707  0.6869 -0.2027
   44bbb     C6 1107  -0.699   5.163   5.873 -0.2427 -0.0055  0.4193
   44bbb    H11 1108  -0.658   5.115   5.962  1.2491  0.5168  0.0475
   44bbb    H12 1109  -0.717   5.270   5.890  2.0062  0.9803 -2.4222
   44bbb     C7 1110  -0.220   4.975   5.842  0.3092  0.4298  0.4441
   44bbb     C8 1111  -0.838   5.108   5.853  0.1004 -0.4100 -0.2614
   44bbb     O1 1112  -0.118   5.044   5.821  0.1859  0.1384 -0.7962
   44bbb     O2 1113  -0.924   5.176   5.804 -0.3105 -0.3159  0.1045
   44bbb     N4 1114  -0.422   5.598   5.728  0.2825  0.2315 -0.2707
   44bbb    H21 1115  -0.432   5.652   5.643  1.7979 -0.5470 -0.9640
   45bbb     C1 1116  -0.851   6.286   5.401 -0.2986 -0.2285 -0.3066
   45bbb     H1 1117  -0.876   6.327   5.500 -2.7634  1.7982 -1.6486
   45bbb     H2 1118  -0.948   6.246   5.370  0.1793 -1.3989 -0.3538
   45bbb     C2 1119  -0.756   6.161   5.413 -0.0505  0.1985  0.0200
   45bbb     H3 1120  -0.778   6.095   5.328 -1.1224  1.0173 -0.3704
   45bbb     H4 1121  -0.648   6.182   5.416  0.2649 -1.4336  2.6814
   45bbb     N1 1122  -0.810   6.375   5.292  0.1207 -0.0982 -0.2572
   45bbb     C3 1123  -0.845   6.512   5.324  0.2737 -0.2419 -0.1272
   45bbb     H5 1124  -0.781   6.583   5.270  0.4453 -0.6033 -0.3993
   45bbb     H6 1125  -0.828   6.521   5.432 -2.1646  0.5191  0.2470
   45bbb     C4 1126  -0.837   6.319   5.158  0.3102  0.1740 -0.4503
   45bbb     H7 1127  -0.816   6.214   5.137 -1.1264  0.0184 -1.2626
   45bbb     H8 1128  -0.943   6.331   5.129  0.3568 -1.1794 -1.2404
   45bbb     C5 1129  -0.781   6.405   5.041 -0.1486 -0.5054 -0.5440
   45bbb     H9 1130  -0.849   6.489   5.020 -0.2403  0.0122  1.5732
   45bbb    H10 1131  -0.675   6.429   5.057 -0.2625 -0.1621 -0.2945
   45bbb     C6 1132  -0.986   6.551   5.302  0.2143 -0.0790 -0.3512
   45bbb    H11 1133  -1.014   6.523   5.200  2.4729  0.9401 -1.3226
   45bbb    H12 1134  -1.047   6.506   5.382 -2.5857  1.0624 -1.7187
   45bbb     C7 1135  -0.789   6.331   4.912 -0.2510  0.2376 -0.1532
   45bbb     C8 1136  -0.997   6.696   5.302 -0.4099 -0.4002 -0.3014
   45bbb     O1 1137  -0.822   6.212   4.899 -0.7906 -0.6591 -0.0464
   45bbb     O2 1138  -0.941   6.775   5.221  0.6187  0.6628 -0.5102
   45bbb     N4 1139  -0.782   6.091   5.539  0.1895 -0.2606 -0.2582
   45bbb    H21 1140  -0.856   6.023   5.550  0.5975 -0.6201  0.3134
   46bbb     C1 1141   2.368   6.647   6.970  0.0761  0.0655  0.1987
   46bbb     H1 1142   2.349   6.567   7.043  3.1462  0.9135  2.1162
   46bbb     H2 1143   2.459   6.693   7.010  1.7039 -0.6570 -2.4398
   46bbb     C2 1144   2.249   6.746   6.972 -0.4647  0.2557  0.3659
   46bbb     H3 1145   2.194   6.746   7.068 -1.9048  2.6647 -0.3512
   46bbb     H4 1146   2.288   6.848   6.959  3.0354 -1.0455 -0.3411
   46bbb     N1 1147   2.399   6.604   6.834 -0.8788 -0.0631  0.6366
   46bbb     C3 1148   2.480   6.709   6.766  0.6397  0.4736 -0.8955
   46bbb     H5 1149   2.577   6.723   6.815  0.4584 -0.9605 -0.0561
   46bbb     H6 1150   2.422   6.802   6.780  0.8615  0.5220 -0.2913
   46bbb     C4 1151   2.471   6.483   6.836 -0.3278  0.1799 -0.3301
   46bbb     H7 1152   2.496   6.458   6.732  0.6984 -2.9201  0.5455
   46bbb     H8 1153   2.567   6.490   6.890  0.1007 -0.6782 -0.9599
   46bbb     C5 1154   2.389   6.367   6.882 -0.1000  0.3182  0.0524
   46bbb     H9 1155   2.361   6.377   6.988  0.1821  0.1181  0.1469
   46bbb    H10 1156   2.290   6.363   6.834 -1.0199 -2.8228  1.8666
   46bbb     C6 1157   2.497   6.684   6.615  0.3152  0.4222  0.0329
   46bbb    H11 1158   2.578   6.613   6.597 -1.5871 -1.1929 -2.8223
   46bbb    H12 1159   2.406   6.633   6.580  0.7700 -1.9731  2.0368
   46bbb     C7 1160   2.469   6.243   6.858 -0.7499 -0.8839  0.0605
   46bbb     C8 1161   2.507   6.813   6.546 -0.8219  0.0572  0.4227
   46bbb     O1 1162   2.450   6.160   6.770 -0.2755 -0.1272 -0.2099
   46bbb     O2 1163   2.439   6.912   6.576  0.1018  0.3491  0.4306
   46bbb     N4 1164   2.151   6.717   6.867  0.0721 -0.1639  0.1983
   46bbb    H21 1165   2.177   6.650   6.795 -1.0428 -0.2053 -0.1971
   47bbb     C1 1166   1.253   7.216   6.476  0.2729 -0.6245  0.2407
   47bbb     H1 1167   1.260   7.190   6.370 -0.4098 -3.1207  0.7382
   47bbb     H2 1168   1.320   7.301   6.496 -0.5198  0.1193 -0.2456
   47bbb     C2 1169   1.305   7.096   6.555 -0.1489  0.4963  0.1432
   47bbb     H3 1170   1.295   7.119   6.661 -1.7041 -2.2874  0.7002
   47bbb     H4 1171   1.250   7.001   6.553  0.5904 -0.1526  4.0074
   47bbb     N1 1172   1.113   7.248   6.504  0.2262 -0.3206 -0.2335
   47bbb     C3 1173   1.084   7.390   6.473 -0.3153  0.7724 -0.2471
   47bbb     H5 1174   0.993   7.406   6.414  0.9973  3.2418 -1.8092
   47bbb     H6 1175   1.167   7.430   6.413 -0.3144 -1.1671 -1.6198
   47bbb     C4 1176   1.018   7.150   6.451  0.4588  0.1115 -0.6817
   47bbb     H7 1177   1.018   7.156   6.342  0.6016 -0.8096 -0.7456
   47bbb     H8 1178   1.053   7.052   6.487 -0.3287  0.0081 -0.1642
   47bbb     C5 1179   0.877   7.174   6.511 -0.3932  0.3880  0.1908
   47bbb     H9 1180   0.886   7.146   6.616 -2.0411 -1.1022 -0.0106
   47bbb    H10 1181   0.839   7.277   6.505 -1.7313 -0.1128 -0.3838
   47bbb     C6 1182   1.064   7.455   6.601  1.0491 -0.0715  0.0703
   47bbb    H11 1183   1.025   7.556   6.585  0.4590 -0.3840 -0.4730
   47bbb    H12 1184   1.000   7.394   6.665 -1.2103 -0.1767 -2.1437
   47bbb     C7 1185   0.763   7.094   6.438 -0.0259 -0.3033 -0.4646
   47bbb     C8 1186   1.192   7.487   6.672 -0.0894  0.8877 -0.0820
   47bbb     O1 1187   0.781   7.036   6.335 -0.2774 -0.6729  0.0880
   47bbb     O2 1188   1.272   7.572   6.638  0.3864 -0.2633  0.1723
   47bbb     N4 1189   1.453   7.069   6.523 -0.1051  1.0060  0.2649
   47bbb    H21 1190   1.507   7.139   6.474  1.8912 -0.7715 -0.2621
   48bbb     C1 1191   0.885   6.846   7.550 -0.0555  0.4387  0.1665
   48bbb     H1 1192   0.890   6.926   7.625 -2.0373  2.6775 -1.9226
   48bbb     H2 1193   0.878   6.751   7.605 -0.2938  0.1328 -0.3866
   48bbb     C2 1194   1.006   6.835   7.458 -0.3055  0.2573 -0.3647
   48bbb     H3 1195   1.024   6.937   7.422  1.3623 -0.1445 -0.7890
   48bbb     H4 1196   1.093   6.794   7.512 -0.5812 -0.6399 -0.5809
   48bbb     N1 1197   0.759   6.878   7.476 -0.0222 -0.4035  0.9707
   48bbb     C3 1198   0.764   7.015   7.418  0.1073 -0.3659  0.4369
   48bbb     H5 1199   0.833   7.014   7.333 -3.3915 -1.4344 -2.6652
   48bbb     H6 1200   0.795   7.080   7.501 -1.6259 -1.1472  1.7727
   48bbb     C4 1201   0.650   6.852   7.566  0.1239 -0.6364 -0.3618
   48bbb     H7 1202   0.681   6.811   7.663 -1.8835  2.7672  1.9501
   48bbb     H8 1203   0.600   6.945   7.598 -0.5601 -1.2676  0.4351
   48bbb     C5 1204   0.544   6.756   7.519 -0.4321 -0.8389  0.5424
   48bbb     H9 1205   0.488   6.809   7.441  0.4317  0.1596  0.5925
   48bbb    H10 1206   0.584   6.662   7.478  0.6322  0.2538 -1.0570
   48bbb     C6 1207   0.627   7.065   7.359  0.4409  0.6076  0.2096
   48bbb    H11 1208   0.587   6.989   7.292  0.9762  0.2142  0.3313
   48bbb    H12 1209   0.559   7.082   7.443  0.5268  1.0552  0.1961
   48bbb     C7 1210   0.454   6.735   7.636  0.4069 -1.5442  0.0646
   48bbb     C8 1211   0.636   7.194   7.279 -0.0333  0.3298  0.4070
   48bbb     O1 1212   0.379   6.827   7.671  0.0061  0.2697  0.6051
   48bbb     O2 1213   0.741   7.215   7.215 -0.0329 -0.1130 -0.7059
   48bbb     N4 1214   0.986   6.752   7.338  0.6077  0.2133 -0.3822
   48bbb    H21 1215   0.910   6.685   7.331  0.1339  0.8572 -1.4531
   49bbb     C1 1216   1.620   6.462   7.692  0.0383  0.0440  0.5957
   49bbb     H1 1217   1.529   6.468   7.752 -0.1722 -0.9081  0.3819
   49bbb     H2 1218   1.649   6.568   7.685  2.6876 -0.4416  2.4417
   49bbb     C2 1219   1.584   6.407   7.549 -0.2456 -0.6467 -0.6561
   49bbb     H3 1220   1.666   6.428   7.479 -0.1642 -1.2452 -0.7420
   49bbb     H4 1221   1.573   6.299   7.559  2.4744 -0.9354  0.0803
   49bbb     N1 1222   1.722   6.382   7.757 -0.1272 -0.1140 -0.3272
   49bbb     C3 1223   1.849   6.403   7.689  0.1453 -0.0939  0.4754
   49bbb     H5 1224   1.877   6.505   7.718  1.6902 -0.5587  0.7334
   49bbb     H6 1225   1.833   6.400   7.581  1.0678  2.0756  0.2276
   49bbb     C4 1226   1.737   6.425   7.901 -0.5033 -0.1538  0.4632
   49bbb     H7 1227   1.833   6.397   7.946 -0.5153 -0.6712  0.1683
   49bbb     H8 1228   1.724   6.532   7.919 -0.7131 -0.1703  0.4117
   49bbb     C5 1229   1.631   6.347   7.983  0.5119 -0.3085  0.0990
   49bbb     H9 1230   1.604   6.411   8.068 -0.2839 -1.9514  1.1245
   49bbb    H10 1231   1.539   6.337   7.923  0.6658  0.5830 -0.3067
   49bbb     C6 1232   1.957   6.307   7.723  0.0648 -0.8036  0.2087
   49bbb    H11 1233   2.010   6.348   7.809  0.3677  0.0362 -0.3639
   49bbb    H12 1234   1.936   6.203   7.749  2.1882 -1.6530 -1.2087
   49bbb     C7 1235   1.686   6.220   8.034 -0.3557 -1.0412  0.6983
   49bbb     C8 1236   2.062   6.311   7.619 -0.0068  0.9803  0.7221
   49bbb     O1 1237   1.725   6.209   8.150 -0.2700  0.0731 -0.1672
   49bbb     O2 1238   2.040   6.289   7.500 -0.5405 -0.2694  0.2704
   49bbb     N4 1239   1.457   6.459   7.483  0.1168  0.2705 -0.4516
   49bbb    H21 1240   1.375   6.402   7.466  0.2046 -0.1121  0.3712
   50bbb     C1 1241   2.350   5.996   5.355 -0.1611  0.1171  0.7694
   50bbb     H1 1242   2.418   6.021   5.273 -1.1995  0.3293 -0.0554
   50bbb     H2 1243   2.285   5.917   5.313 -0.3049  2.5845 -4.4307
   50bbb     C2 1244   2.266   6.123   5.372 -0.5358 -1.2641 -0.2714
   50bbb     H3 1245   2.320   6.198   5.430  0.7296 -1.7079 -0.8354
   50bbb     H4 1246   2.264   6.164   5.270 -1.3985 -0.0180  0.2153
   50bbb     N1 1247   2.421   5.959   5.477  0.0719 -0.1863 -0.3912
   50bbb     C3 1248   2.532   6.042   5.514  0.3520  0.5124  0.0844
   50bbb     H5 1249   2.520   6.148   5.488 -0.5926  0.2013 -0.8388
   50bbb     H6 1250   2.627   6.001   5.479  0.6596  1.1896  0.1130
   50bbb     C4 1251   2.438   5.821   5.484  0.2731  0.2130 -0.5956
   50bbb     H7 1252   2.465   5.794   5.586 -0.5389  0.1037 -0.4055
   50bbb     H8 1253   2.338   5.781   5.466 -1.4215  3.8207 -0.1909
   50bbb     C5 1254   2.542   5.761   5.388  0.1963  0.2399 -0.2248
   50bbb     H9 1255   2.538   5.808   5.289  0.6368  0.2329 -0.2457
   50bbb    H10 1256   2.641   5.782   5.428  1.2552 -0.4557 -2.3045
   50bbb     C6 1257   2.546   6.037   5.666  0.8000  0.8969  0.0544
   50bbb    H11 1258   2.444   6.061   5.698 -0.1466 -1.0780 -1.2868
   50bbb    H12 1259   2.577   5.938   5.699 -2.0612  0.0270  0.4148
   50bbb     C7 1260   2.518   5.611   5.372 -0.4569 -0.4271 -0.3830
   50bbb     C8 1261   2.639   6.140   5.722  0.4372  0.4805 -0.4346
   50bbb     O1 1262   2.501   5.538   5.466  0.1396 -0.9641 -0.2063
   50bbb     O2 1263   2.712   6.211   5.659  0.2121 -0.0237 -0.1542
   50bbb     N4 1264   2.131   6.107   5.421  0.5702 -0.1050  0.0159
   50bbb    H21 1265   2.102   6.027   5.476 -0.4211 -1.2708 -2.0644
   51bbb     C1 1266   1.316   5.879   5.168  0.2590 -0.5208 -0.3538
   51bbb     H1 1267   1.378   5.802   5.216 -0.1429  0.9808  2.7867
   51bbb     H2 1268   1.380   5.945   5.108 -1.4616  2.1133  0.5040
   51bbb     C2 1269   1.245   5.964   5.279 -0.5288  0.1384  0.1364
   51bbb     H3 1270   1.180   6.042   5.238  0.6221  0.8114 -0.4685
   51bbb     H4 1271   1.181   5.904   5.344  1.0365 -1.0217  0.6517
   51bbb     N1 1272   1.209   5.815   5.092  0.5770  0.5383 -0.5248
   51bbb     C3 1273   1.264   5.693   5.022 -0.0790 -0.3358  0.9103
   51bbb     H5 1274   1.330   5.630   5.083  1.7593  1.2101  0.6066
   51bbb     H6 1275   1.325   5.729   4.938 -2.6067 -2.8030 -2.2358
   51bbb     C4 1276   1.124   5.907   5.017  0.4236  0.1070 -0.2360
   51bbb     H7 1277   1.163   6.007   5.040 -0.8813  0.2230  1.6884
   51bbb     H8 1278   1.139   5.887   4.910 -1.6775  1.3814 -0.8303
   51bbb     C5 1279   0.974   5.885   5.056 -0.2712 -0.2728 -0.3987
   51bbb     H9 1280   0.925   5.801   5.005  1.6920 -0.6043 -1.8571
   51bbb    H10 1281   0.969   5.870   5.165  0.0155  0.8361 -0.2177
   51bbb     C6 1282   1.151   5.610   4.963  0.3768  0.1932 -0.1955
   51bbb    H11 1283   1.087   5.574   5.045 -0.1340  0.5165 -0.4435
   51bbb    H12 1284   1.086   5.659   4.889  0.7176  0.3151 -0.4131
   51bbb     C7 1285   0.906   6.011   5.038 -0.2061 -0.0751 -0.0821
   51bbb     C8 1286   1.211   5.500   4.879 -0.5237 -0.4134 -0.7238
   51bbb     O1 1287   0.962   6.117   5.054  0.0766  0.5698 -0.2194
   51bbb     O2 1288   1.285   5.517   4.784 -0.1825  0.2888 -0.0177
   51bbb     N4 1289   1.343   6.023   5.364  0.1435 -0.6759 -0.0640
   51bbb    H21 1290   1.430   5.971   5.368 -0.3460 -1.4436  2.0899
   52bbb     C1 1291   0.868   7.419   6.071 -0.5160  1.0028  0.0588
   52bbb     H1 1292   0.841   7.426   5.965  1.2040  0.2875 -0.4699
   52bbb     H2 1293   0.952   7.485   6.097  0.1265 -0.8046  3.0630
   52bbb     C2 1294   0.907   7.267   6.095 -0.4643  0.2635  0.6484
   52bbb     H3 1295   0.917   7.253   6.204  0.4655  1.0023  0.6705
   52bbb     H4 1296   0.830   7.197   6.060  1.6777 -1.3530 -1.0523
   52bbb     N1 1297   0.759   7.468   6.157 -0.1328 -0.2215  0.0956
   52bbb     C3 1298   0.749   7.613   6.154  0.3157 -0.3058 -0.8192
   52bbb     H5 1299   0.646   7.646   6.174  1.2299  2.9850 -0.9786
   52bbb     H6 1300   0.779   7.653   6.056  0.0211  3.5341  0.4841
   52bbb     C4 1301   0.635   7.402   6.119  0.2184  0.0438 -0.0070
   52bbb     H7 1302   0.600   7.431   6.019  1.6031 -0.1626 -0.5807
   52bbb     H8 1303   0.647   7.293   6.116 -3.4170 -0.4719 -1.6345
   52bbb     C5 1304   0.528   7.423   6.227  0.3880  0.7121  0.1641
   52bbb     H9 1305   0.558   7.389   6.328  1.4701  1.2986  0.0539
   52bbb    H10 1306   0.499   7.528   6.243 -3.3769  0.0344 -1.3336
   52bbb     C6 1307   0.835   7.675   6.263 -0.4768  0.4340 -0.5825
   52bbb    H11 1308   0.802   7.653   6.366 -1.2971 -0.6817 -1.0630
   52bbb    H12 1309   0.939   7.642   6.262 -0.4381  0.4027  1.1554
   52bbb     C7 1310   0.416   7.331   6.186 -0.2537 -0.4192 -0.1523
   52bbb     C8 1311   0.836   7.820   6.237 -0.0974  0.2004  0.2827
   52bbb     O1 1312   0.419   7.215   6.219  0.1156 -0.0225  0.5217
   52bbb     O2 1313   0.934   7.869   6.179 -0.0006  0.5708 -0.1779
   52bbb     N4 1314   1.045   7.239   6.043  0.5624 -0.1613  0.1504
   52bbb    H21 1315   1.118   7.308   6.044 -0.2526  0.7410 -0.8060
   53bbb     C1 1316   1.921   7.518   6.343  0.0017 -0.3434 -0.5265
   53bbb     H1 1317   1.922   7.423   6.396 -1.8643 -0.2824 -0.3251
   53bbb     H2 1318   1.935   7.595   6.420  0.5860  0.8173 -1.7330
   53bbb     C2 1319   1.774   7.544   6.292 -0.9938 -0.1874  0.2636
   53bbb     H3 1320   1.715   7.576   6.378  1.1913  1.9945  1.0762
   53bbb     H4 1321   1.781   7.636   6.232 -0.7707 -0.9429 -0.9080
   53bbb     N1 1322   2.033   7.538   6.243 -0.0045  0.0196  0.4571
   53bbb     C3 1323   2.087   7.675   6.243 -0.0811 -0.0864  0.0416
   53bbb     H5 1324   2.190   7.677   6.280 -0.1550  1.8692  0.2279
   53bbb     H6 1325   2.028   7.742   6.307 -0.0031  0.2274 -0.2146
   53bbb     C4 1326   2.128   7.439   6.241 -0.1919 -0.5317 -0.0061
   53bbb     H7 1327   2.213   7.461   6.175  0.6831  3.7144  2.1566
   53bbb     H8 1328   2.164   7.412   6.341 -2.2200 -0.8481  0.6828
   53bbb     C5 1329   2.069   7.309   6.187  0.8576 -0.5186 -0.4334
   53bbb     H9 1330   2.154   7.241   6.170  1.7162  1.0850 -3.0752
   53bbb    H10 1331   2.002   7.266   6.263 -1.7900  1.8191 -1.2516
   53bbb     C6 1332   2.082   7.746   6.108 -0.4835  0.6425 -0.1834
   53bbb    H11 1333   2.149   7.696   6.037 -0.6881 -0.3982  0.3474
   53bbb    H12 1334   1.978   7.737   6.074 -0.7814 -1.2358  1.1069
   53bbb     C7 1335   2.007   7.337   6.051 -0.1393  0.8262  0.3530
   53bbb     C8 1336   2.136   7.882   6.120 -0.0719 -0.0728 -0.1052
   53bbb     O1 1337   1.881   7.319   6.033  0.4789  0.3423 -0.0438
   53bbb     O2 1338   2.167   7.944   6.220  0.0717  0.2788  0.3715
   53bbb     N4 1339   1.707   7.438   6.215  0.5479 -0.6254  0.1328
   53bbb    H21 1340   1.762   7.403   6.137 -0.4013  1.8808 -1.8118
   54bbb     C1 1341   0.091   6.408   3.295  0.4605 -0.2410  0.0265
   54bbb     H1 1342   0.141   6.397   3.392  0.9576  3.6488  0.3829
   54bbb     H2 1343   0.162   6.376   3.219  0.0091  0.5284 -0.7403
   54bbb     C2 1344   0.089   6.559   3.274  0.2345 -0.0806 -0.1972
   54bbb     H3 1345   0.058   6.567   3.169  1.2995 -1.2564 -0.6162
   54bbb     H4 1346   0.018   6.602   3.346  2.3241 -1.6112  3.0058
   54bbb     N1 1347  -0.032   6.333   3.277 -0.2283  0.0306  0.4310
   54bbb     C3 1348   0.002   6.195   3.267 -0.2913  0.6767 -0.0785
   54bbb     H5 1349  -0.077   6.132   3.311 -0.6734  0.5308 -0.9370
   54bbb     H6 1350   0.089   6.173   3.330 -1.0349 -1.2584  0.3310
   54bbb     C4 1351  -0.130   6.367   3.385 -1.0542  0.2415  0.1035
   54bbb     H7 1352  -0.093   6.352   3.488 -0.7666  1.7502  0.2412
   54bbb     H8 1353  -0.160   6.472   3.377 -0.2260  0.4539 -0.3617
   54bbb     C5 1354  -0.260   6.288   3.374  0.3174  0.6647 -0.8233
   54bbb     H9 1355  -0.291   6.290   3.268  0.0318  1.5836 -0.7396
   54bbb    H10 1356  -0.255   6.189   3.419  0.2316  1.3678  0.8117
   54bbb     C6 1357   0.010   6.162   3.117 -0.7048 -0.4465  0.1033
   54bbb    H11 1358  -0.097   6.165   3.096 -0.3982  1.0912 -1.5532
   54bbb    H12 1359   0.067   6.240   3.064 -3.0246  0.2315 -1.5414
   54bbb     C7 1360  -0.366   6.340   3.464  0.0036  0.8088  0.0966
   54bbb     C8 1361   0.069   6.027   3.085 -0.0966 -0.2861  0.4394
   54bbb     O1 1362  -0.335   6.410   3.560  0.6629  0.3249 -0.1910
   54bbb     O2 1363   0.190   6.011   3.077 -1.0772 -0.5855  0.4804
   54bbb     N4 1364   0.224   6.614   3.287 -0.1188 -0.1888 -0.0623
   54bbb    H21 1365   0.274   6.647   3.206 -0.3227  2.0112  0.6425
   55bbb     C1 1366   0.972   6.609   3.123  0.1259  0.0723 -0.2041
   55bbb     H1 1367   1.050   6.668   3.174  0.8645 -1.3419  0.3559
   55bbb     H2 1368   0.917   6.673   3.052  0.0036 -1.4491 -1.5314
   55bbb     C2 1369   0.877   6.549   3.232  0.5115  0.3913  0.1949
   55bbb     H3 1370   0.785   6.508   3.189  0.4821 -0.0637  0.6900
   55bbb     H4 1371   0.929   6.472   3.290 -2.7348 -1.9216  0.3117
   55bbb     N1 1372   1.034   6.492   3.049  0.3723 -0.5884 -0.4699
   55bbb     C3 1373   1.153   6.534   2.976  0.1780  0.9555  0.4319
   55bbb     H5 1374   1.135   6.636   2.940  1.2611  0.9484 -0.1576
   55bbb     H6 1375   1.176   6.470   2.890  0.1762 -0.9583  1.7770
   55bbb     C4 1376   0.937   6.449   2.944 -0.0710  0.1177  0.4435
   55bbb     H7 1377   0.829   6.441   2.964 -0.0438  0.0618  0.5697
   55bbb     H8 1378   0.940   6.522   2.862  2.9136 -0.1901  0.1886
   55bbb     C5 1379   0.975   6.308   2.887 -0.0597  0.8982 -0.1294
   55bbb     H9 1380   1.069   6.309   2.831  0.3381  0.2197  0.5015
   55bbb    H10 1381   0.980   6.235   2.970  0.0572 -0.5124 -1.3356
   55bbb     C6 1382   1.276   6.519   3.058  0.1137  0.4761 -0.0770
   55bbb    H11 1383   1.367   6.544   3.002  0.9787 -0.5014  0.8460
   55bbb    H12 1384   1.283   6.580   3.149 -0.7572 -0.8931  0.9577
   55bbb     C7 1385   0.874   6.252   2.792 -1.0173 -0.1720 -0.0929
   55bbb     C8 1386   1.297   6.369   3.098 -0.8969 -0.8387 -0.3920
   55bbb     O1 1387   0.909   6.235   2.677 -0.2653  0.7393  0.3970
   55bbb     O2 1388   1.361   6.290   3.034  0.2508  0.3879  0.0766
   55bbb     N4 1389   0.844   6.659   3.330 -0.5224 -0.3896  0.1211
   55bbb    H21 1390   0.892   6.655   3.419  0.3220 -1.2726 -0.3517
   56bbb     C1 1391   0.652   7.467   3.624 -0.8183 -0.8912 -0.4146
   56bbb     H1 1392   0.705   7.546   3.569  2.0471 -1.7264  0.9800
   56bbb     H2 1393   0.631   7.516   3.719  0.6456  0.7199 -0.8708
   56bbb     C2 1394   0.767   7.361   3.614 -0.2728  0.1903 -0.1644
   56bbb     H3 1395   0.857   7.403   3.660 -0.5482  2.0125 -1.1973
   56bbb     H4 1396   0.724   7.269   3.655 -0.6162  0.6297  0.4677
   56bbb     N1 1397   0.534   7.427   3.550 -0.0945 -0.0785 -0.1940
   56bbb     C3 1398   0.452   7.542   3.506 -0.5001  0.5516 -0.6336
   56bbb     H5 1399   0.444   7.613   3.590  1.5391 -0.0284  0.1113
   56bbb     H6 1400   0.349   7.514   3.482 -0.5880 -0.1821  0.4922
   56bbb     C4 1401   0.443   7.326   3.624  0.2620 -0.0013 -0.0692
   56bbb     H7 1402   0.492   7.250   3.686 -0.5335 -0.3064  0.2016
   56bbb     H8 1403   0.356   7.370   3.674  0.1540  1.9437 -1.8343
   56bbb     C5 1404   0.383   7.242   3.513 -0.0616 -0.6327  0.4627
   56bbb     H9 1405   0.326   7.313   3.451 -0.7731  0.2895  2.1124
   56bbb    H10 1406   0.456   7.185   3.454 -0.3585  1.0085 -1.6434
   56bbb     C6 1407   0.510   7.611   3.381 -0.3478  0.0546 -0.2177
   56bbb    H11 1408   0.612   7.642   3.407  0.5826 -2.0890 -1.0790
   56bbb    H12 1409   0.518   7.539   3.299 -4.1526  0.1120 -0.8268
   56bbb     C7 1410   0.281   7.146   3.577 -0.6811 -0.1657  0.4200
   56bbb     C8 1411   0.428   7.728   3.335 -0.1736  1.3250 -0.0521
   56bbb     O1 1412   0.293   7.111   3.689 -0.0197  0.1861  0.4781
   56bbb     O2 1413   0.311   7.708   3.315  0.0022  0.8608  0.3443
   56bbb     N4 1414   0.805   7.339   3.475 -0.0445  0.2386  0.5547
   56bbb    H21 1415   0.769   7.393   3.397 -1.2978 -1.1791  0.0956
   57bbb     C1 1416   1.598   6.969   3.624  0.1841 -0.3768  0.3723
   57bbb     H1 1417   1.696   6.955   3.672 -1.0058  2.8081  4.3428
   57bbb     H2 1418   1.572   6.868   3.591 -0.7971 -0.3031  0.8588
   57bbb     C2 1419   1.601   7.064   3.506  0.4583  0.2323 -0.2171
   57bbb     H3 1420   1.640   7.164   3.528 -0.6398  0.8841 -1.1208
   57bbb     H4 1421   1.667   7.032   3.425 -2.1350 -1.7813 -1.6947
   57bbb     N1 1422   1.508   7.011   3.728 -0.0229  0.1832  0.4668
   57bbb     C3 1423   1.536   7.149   3.775 -0.1014 -0.4278 -0.0867
   57bbb     H5 1424   1.451   7.182   3.835 -0.8576 -1.7590 -0.3947
   57bbb     H6 1425   1.527   7.216   3.688 -0.1097 -1.4393 -0.8829
   57bbb     C4 1426   1.494   6.912   3.836 -0.1739 -0.0318  0.5822
   57bbb     H7 1427   1.584   6.852   3.852  1.3113  2.3103  1.3844
   57bbb     H8 1428   1.470   6.967   3.928 -2.2559 -2.0201  1.3340
   57bbb     C5 1429   1.385   6.817   3.796  0.3085  1.1514  0.2801
   57bbb     H9 1430   1.293   6.874   3.778 -1.7086 -2.3757 -1.8280
   57bbb    H10 1431   1.404   6.760   3.703 -0.4424 -0.0015  0.8119
   57bbb     C6 1432   1.664   7.162   3.864 -0.3372  0.2114 -0.7888
   57bbb    H11 1433   1.664   7.113   3.962 -1.7982  3.1687  0.8234
   57bbb    H12 1434   1.752   7.125   3.811 -0.4308 -2.1983  0.6131
   57bbb     C7 1435   1.364   6.717   3.906  0.0051 -0.5896 -0.3066
   57bbb     C8 1436   1.685   7.304   3.903  0.2784 -0.3944  0.2234
   57bbb     O1 1437   1.452   6.684   3.982  0.1873 -0.1830 -0.7861
   57bbb     O2 1438   1.773   7.372   3.853  0.4840  0.1430  0.1266
   57bbb     N4 1439   1.465   7.077   3.453 -0.2825 -0.1696  0.7321
   57bbb    H21 1440   1.393   7.042   3.516 -1.5837 -0.0016 -0.6063
   58bbb     C1 1441   1.757   6.362   5.096 -0.7017 -0.3270  0.1606
   58bbb     H1 1442   1.819   6.443   5.137  0.9041 -0.9119 -1.0136
   58bbb     H2 1443   1.741   6.282   5.170 -1.7098 -1.3756 -1.1424
   58bbb     C2 1444   1.843   6.300   4.984 -0.6325  0.5660  0.8559
   58bbb     H3 1445   1.811   6.195   4.977  0.5160  0.1941  0.8483
   58bbb     H4 1446   1.816   6.351   4.891 -2.6773 -1.5434  0.2114
   58bbb     N1 1447   1.636   6.426   5.047  0.7018  0.5233  0.5967
   58bbb     C3 1448   1.554   6.320   4.983 -0.4709  0.1836  1.2066
   58bbb     H5 1449   1.498   6.260   5.055 -3.6061  1.8893  0.3654
   58bbb     H6 1450   1.615   6.253   4.921 -0.1940  0.8348  0.7584
   58bbb     C4 1451   1.556   6.497   5.152 -0.0084  0.8892 -0.2116
   58bbb     H7 1452   1.465   6.535   5.103 -0.4443 -0.1300 -0.2173
   58bbb     H8 1453   1.524   6.424   5.227  0.1783  1.7951  0.7629
   58bbb     C5 1454   1.641   6.617   5.197  0.0994  0.7073 -0.4058
   58bbb     H9 1455   1.707   6.576   5.274 -2.4822  1.3468  2.3595
   58bbb    H10 1456   1.702   6.652   5.114 -0.0223 -0.3474 -0.9617
   58bbb     C6 1457   1.441   6.371   4.892  0.0892  0.0055 -0.1129
   58bbb    H11 1458   1.397   6.288   4.836  2.7134 -1.7988  0.2916
   58bbb    H12 1459   1.369   6.433   4.946  1.3512  0.3332  1.2755
   58bbb     C7 1460   1.559   6.725   5.270 -1.2198 -0.0968 -0.9358
   58bbb     C8 1461   1.504   6.451   4.786  0.1200  0.1921  0.6864
   58bbb     O1 1462   1.442   6.718   5.297  0.3753  0.0538  0.0090
   58bbb     O2 1463   1.460   6.563   4.751 -0.1302  0.1273 -0.0691
   58bbb     N4 1464   1.985   6.321   5.006  0.2564  0.0400 -0.1054
   58bbb    H21 1465   2.019   6.290   5.096 -0.4561  1.2973  0.6278
   59bbb     C1 1466   3.070   6.276   4.915  0.0107 -0.8900  0.0152
   59bbb     H1 1467   3.025   6.191   4.863 -0.3989 -0.9731  0.4969
   59bbb     H2 1468   3.062   6.264   5.023 -1.4810 -0.7658 -0.0604
   59bbb     C2 1469   2.974   6.396   4.886  0.1392 -0.0316 -0.7728
   59bbb     H3 1470   2.999   6.487   4.943 -2.7237 -0.3633  1.2125
   59bbb     H4 1471   2.994   6.407   4.779  1.0550 -0.7758 -0.6885
   59bbb     N1 1472   3.206   6.290   4.863  0.6504  0.0890  0.7838
   59bbb     C3 1473   3.264   6.155   4.850 -0.1131 -0.6557  0.1397
   59bbb     H5 1474   3.187   6.082   4.822 -0.0701 -0.8222  0.4486
   59bbb     H6 1475   3.310   6.120   4.943  0.7957  0.7890  0.2723
   59bbb     C4 1476   3.297   6.380   4.935  0.8509  0.2337  0.0219
   59bbb     H7 1477   3.276   6.365   5.042  0.4328 -0.1359 -0.1073
   59bbb     H8 1478   3.402   6.358   4.914  1.1778  3.3512 -2.4351
   59bbb     C5 1479   3.272   6.528   4.910 -0.5409  0.1717 -0.4299
   59bbb     H9 1480   3.245   6.539   4.804 -2.0877  3.0201  0.1669
   59bbb    H10 1481   3.196   6.565   4.979  0.1920  1.4050 -0.2487
   59bbb     C6 1482   3.381   6.149   4.754 -0.1081 -0.3358  0.2872
   59bbb    H11 1483   3.364   6.211   4.665 -1.3134 -1.1490 -0.0777
   59bbb    H12 1484   3.480   6.177   4.791 -0.9003  0.8118  1.6354
   59bbb     C7 1485   3.405   6.603   4.934  0.1958  0.0081  0.4360
   59bbb     C8 1486   3.387   6.013   4.691 -0.9235 -0.1610  0.2562
   59bbb     O1 1487   3.466   6.601   5.041 -0.1307  0.1213 -0.1712
   59bbb     O2 1488   3.373   5.911   4.754 -0.1108  0.4388 -0.1098
   59bbb     N4 1489   2.825   6.368   4.903  0.1131 -0.2567  0.2034
   59bbb    H21 1490   2.794   6.337   4.995 -0.1139  1.3261  0.7128
   60bbb     C1 1491   2.270   6.257   4.543 -0.2745  0.0635 -0.0681
   60bbb     H1 1492   2.299   6.159   4.504  3.3774  0.2625  1.7619
   60bbb     H2 1493   2.283   6.257   4.652  0.1030  0.6035 -0.1114
   60bbb     C2 1494   2.129   6.282   4.493  0.0416  0.0709  0.3953
   60bbb     H3 1495   2.072   6.188   4.499  0.7192 -0.5279 -1.7631
   60bbb     H4 1496   2.092   6.353   4.567  0.4563 -1.5945  2.2976
   60bbb     N1 1497   2.358   6.356   4.497 -0.9545 -0.9119 -0.1073
   60bbb     C3 1498   2.494   6.303   4.485 -0.2380  0.2902  0.2863
   60bbb     H5 1499   2.533   6.281   4.585 -1.5952  1.1200  1.0395
   60bbb     H6 1500   2.553   6.382   4.438  0.1962  1.2298  2.3342
   60bbb     C4 1501   2.355   6.483   4.558 -0.0549  0.1017  0.5280
   60bbb     H7 1502   2.276   6.481   4.633  0.5673 -3.1236  1.2570
   60bbb     H8 1503   2.450   6.498   4.612  1.3987  1.9199 -2.2906
   60bbb     C5 1504   2.341   6.587   4.452  0.2273  0.1455 -0.6163
   60bbb     H9 1505   2.412   6.566   4.372  1.2876  1.7365 -0.1448
   60bbb    H10 1506   2.240   6.583   4.409  0.4883  0.4247 -1.2546
   60bbb     C6 1507   2.513   6.183   4.384 -0.3349 -0.1359  0.0360
   60bbb    H11 1508   2.483   6.084   4.421 -0.9659  0.2588  0.5840
   60bbb    H12 1509   2.447   6.202   4.298  0.4113  1.2318 -0.2586
   60bbb     C7 1510   2.378   6.721   4.514 -0.3262  0.5770 -0.0721
   60bbb     C8 1511   2.654   6.167   4.341 -0.7209 -0.5453 -0.3170
   60bbb     O1 1512   2.390   6.736   4.638 -0.5443  0.2475  0.2522
   60bbb     O2 1513   2.744   6.238   4.377 -0.3718 -0.6645  0.2787
   60bbb     N4 1514   2.122   6.335   4.355 -0.7974  0.1252 -0.3288
   60bbb    H21 1515   2.204   6.377   4.311 -1.1945  0.9055 -0.3471
   61bbb     C1 1516   1.713   6.674   3.299 -0.2912  0.1200 -0.3798
   61bbb     H1 1517   1.688   6.780   3.312  0.4213  0.1676  0.8560
   61bbb     H2 1518   1.659   6.650   3.207  0.6877  2.3508 -1.6343
   61bbb     C2 1519   1.658   6.600   3.417  1.0485 -0.2287  0.6710
   61bbb     H3 1520   1.556   6.630   3.443  0.8558 -0.7283  0.5052
   61bbb     H4 1521   1.656   6.496   3.382 -0.7721 -0.1238  0.3771
   61bbb     N1 1522   1.857   6.657   3.282 -0.0773 -0.4880  0.5280
   61bbb     C3 1523   1.915   6.764   3.203  0.3071 -0.2354  0.6515
   61bbb     H5 1524   1.846   6.805   3.128  0.3910  0.7619  1.1041
   61bbb     H6 1525   2.004   6.722   3.156 -0.2452  1.9237 -2.6644
   61bbb     C4 1526   1.889   6.531   3.211 -0.6659  0.7748  0.4637
   61bbb     H7 1527   1.810   6.455   3.207  2.2939 -2.6616  1.3492
   61bbb     H8 1528   1.923   6.553   3.109 -1.8543 -1.9648 -0.6269
   61bbb     C5 1529   2.008   6.458   3.284  0.1176 -0.7728  0.3268
   61bbb     H9 1530   2.094   6.525   3.273  1.5124 -2.7999 -1.6716
   61bbb    H10 1531   1.992   6.444   3.392  2.1561  0.2989  0.8175
   61bbb     C6 1532   1.940   6.867   3.304 -0.4654 -0.3440  0.1901
   61bbb    H11 1533   1.852   6.926   3.333 -0.7860 -0.0756 -1.2940
   61bbb    H12 1534   1.973   6.825   3.400  1.2923  0.1289 -0.1686
   61bbb     C7 1535   2.038   6.323   3.226  0.2755  0.4742  0.0886
   61bbb     C8 1536   2.060   6.951   3.270  0.5394  0.1016  0.5581
   61bbb     O1 1537   2.025   6.219   3.290  0.1711 -0.0438 -0.5290
   61bbb     O2 1538   2.165   6.917   3.320  0.1952 -0.3710 -1.0117
   61bbb     N4 1539   1.742   6.622   3.534  0.1280 -0.4482  0.2378
   61bbb    H21 1540   1.824   6.677   3.512  0.7649 -2.1792 -2.0168
   62ccc     N1 1541   1.704   4.286   4.745  0.1816 -0.2947  0.1552
   62ccc     H4 1542   1.665   4.277   4.838  1.2344 -0.6403  0.5795
   62ccc     C3 1543   1.613   4.264   4.640  0.3701  0.4338  0.9016
   62ccc     C4 1544   1.506   4.376   4.600  0.6707 -0.0021  0.0262
   62ccc     H5 1545   1.562   4.170   4.663  1.3502 -0.3707 -0.0814
   62ccc     H6 1546   1.664   4.251   4.543 -0.9826 -0.5300  0.2822
   62ccc     H7 1547   1.447   4.348   4.512 -0.1676 -1.4000  0.9878
   62ccc     H8 1548   1.442   4.399   4.686  0.6378 -2.4910  0.7399
   62ccc     N2 1549   1.580   4.507   4.571  0.2039  0.4748 -0.9120
   62ccc     H9 1550   1.660   4.488   4.509 -0.5565 -1.0546 -1.4746
   62ccc    H10 1551   1.527   4.579   4.518  1.8758  2.0219 -0.5647
   62ccc    H11 1552   1.626   4.547   4.654  0.8872 -0.2198 -0.9533
   63ccc     N1 1553   2.407   4.252   5.135  0.3515  0.0655 -0.4369
   63ccc     H4 1554   2.343   4.257   5.213  2.2521  1.3237  1.1460
   63ccc     C3 1555   2.534   4.186   5.155 -0.2449  0.3993  0.0592
   63ccc     C4 1556   2.535   4.097   5.282 -0.8576 -0.2683  0.2332
   63ccc     H5 1557   2.612   4.264   5.163  0.6391 -0.5432  0.8482
   63ccc     H6 1558   2.555   4.124   5.067 -0.6237 -2.6760  1.9975
   63ccc     H7 1559   2.533   4.162   5.370  0.0435  0.1183 -0.0119
   63ccc     H8 1560   2.442   4.042   5.288 -1.1292  0.1905  0.3036
   63ccc     N2 1561   2.654   4.000   5.289 -0.2842 -0.0835  0.3640
   63ccc     H9 1562   2.744   4.049   5.280 -0.1531 -0.6265 -1.7874
   63ccc    H10 1563   2.648   3.950   5.379 -2.1598 -1.2838 -0.3636
   63ccc    H11 1564   2.649   3.923   5.222  0.7081  0.1971 -0.0442
   64ccc     N1 1565   2.382   5.791   5.979 -0.8220 -0.2039 -0.1537
   64ccc     H4 1566   2.426   5.708   6.016 -1.0761 -0.1862  0.1979
   64ccc     C3 1567   2.346   5.899   6.065 -0.4757  0.3005 -0.2414
   64ccc     C4 1568   2.431   5.911   6.189 -0.0336 -0.3403 -0.6583
   64ccc     H5 1569   2.241   5.884   6.095 -0.1615  0.8691  1.2288
   64ccc     H6 1570   2.350   5.993   6.009  2.3684 -1.4292 -3.2694
   64ccc     H7 1571   2.535   5.942   6.171  0.5498 -1.0267  1.3095
   64ccc     H8 1572   2.387   5.985   6.255  3.8293  0.5262  1.2452
   64ccc     N2 1573   2.435   5.779   6.266 -0.1303  0.1341  0.6408
   64ccc     H9 1574   2.357   5.716   6.242  1.0841 -0.7775 -1.2300
   64ccc    H10 1575   2.518   5.722   6.242 -0.1088  0.0561  0.8987
   64ccc    H11 1576   2.445   5.807   6.364  1.6201  0.9244  0.2836
   65ccc     N1 1577   2.346   5.178   6.153  0.0243  0.6989 -0.2520
   65ccc     H4 1578   2.434   5.229   6.153  1.0688 -1.0030 -0.2511
   65ccc     C3 1579   2.330   5.085   6.266  0.9196 -0.0239  0.2533
   65ccc     C4 1580   2.391   4.947   6.237 -0.1665 -0.2819  0.4554
   65ccc     H5 1581   2.225   5.070   6.292 -0.0766  2.2446 -2.0409
   65ccc     H6 1582   2.379   5.115   6.360  0.0220 -1.0776  1.0879
   65ccc     H7 1583   2.384   4.878   6.322  1.1846 -2.2975 -0.9695
   65ccc     H8 1584   2.339   4.894   6.157  1.5682  0.3215 -1.1420
   65ccc     N2 1585   2.534   4.947   6.198 -0.1320  0.0348 -0.4873
   65ccc     H9 1586   2.573   4.852   6.205  0.3329  0.0605 -2.1391
   65ccc    H10 1587   2.555   4.979   6.102 -1.2468  0.6592 -0.5446
   65ccc    H11 1588   2.584   5.011   6.261 -2.4228  1.2592  0.1851
   66ccc     N1 1589   2.432   5.503   4.064 -0.0237 -0.8705  0.2703
   66ccc     H4 1590   2.341   5.473   4.031 -0.3032 -0.6103  0.8045
   66ccc     C3 1591   2.552   5.436   4.016 -0.2469 -0.5401 -0.3169
   66ccc     C4 1592   2.523   5.321   3.915 -0.6398  0.1970 -0.2808
   66ccc     H5 1593   2.600   5.400   4.108 -1.2031  0.5569  0.6463
   66ccc     H6 1594   2.620   5.511   3.972 -1.6692  1.3213  0.5320
   66ccc     H7 1595   2.464   5.359   3.831  0.1624  0.6724 -0.6481
   66ccc     H8 1596   2.613   5.295   3.859 -1.5542  0.3630 -1.8878
   66ccc     N2 1597   2.440   5.212   3.981 -0.3462  0.7000  0.0177
   66ccc     H9 1598   2.354   5.254   4.018  0.8194  2.1826  1.1777
   66ccc    H10 1599   2.412   5.129   3.926  0.3655 -0.8610  1.9299
   66ccc    H11 1600   2.488   5.171   4.062  1.7158  0.2936 -1.3434
   67ccc     N1 1601   1.700   5.555   4.181  0.0576  0.3694  0.3832
   67ccc     H4 1602   1.718   5.653   4.164 -0.2701  0.5225  0.9009
   67ccc     C3 1603   1.617   5.480   4.084  0.0501  0.4008 -0.0944
   67ccc     C4 1604   1.479   5.457   4.139  0.9555  0.3510  0.0164
   67ccc     H5 1605   1.664   5.385   4.056 -2.3403 -0.6857 -0.7186
   67ccc     H6 1606   1.618   5.541   3.993 -0.2367 -1.0736 -1.1210
   67ccc     H7 1607   1.424   5.551   4.147 -2.8344 -1.7329  1.4382
   67ccc     H8 1608   1.410   5.403   4.072 -0.0952 -0.3954  1.6366
   67ccc     N2 1609   1.472   5.386   4.270  0.1506 -0.4481 -0.0328
   67ccc     H9 1610   1.374   5.363   4.292  0.4688 -0.9815  0.8553
   67ccc    H10 1611   1.514   5.293   4.255  0.0202 -0.5038 -0.0559
   67ccc    H11 1612   1.506   5.431   4.356 -1.8660 -1.4716  1.3981
   68ccc     N1 1613   3.043   6.271   4.346  0.0338 -0.0405 -0.1932
   68ccc     H4 1614   2.997   6.338   4.406 -0.2552  0.5369 -1.0392
   68ccc     C3 1615   3.076   6.313   4.209  0.4345  0.9665  0.1068
   68ccc     C4 1616   3.133   6.458   4.207 -0.2774 -0.0628 -0.0279
   68ccc     H5 1617   2.983   6.304   4.152  1.1715  1.1567 -1.1627
   68ccc     H6 1618   3.155   6.245   4.176  2.0937  2.9165 -0.1343
   68ccc     H7 1619   3.235   6.459   4.248 -1.0073  1.1348  1.9153
   68ccc     H8 1620   3.128   6.490   4.103  1.2019  0.6262  0.0891
   68ccc     N2 1621   3.061   6.564   4.285  0.1916  0.0271 -0.0643
   68ccc     H9 1622   3.071   6.558   4.387  2.2356 -0.7586 -0.2642
   68ccc    H10 1623   3.096   6.657   4.259  1.7178  0.3795  2.8513
   68ccc    H11 1624   2.962   6.562   4.256  0.3479 -0.2127 -0.6073
   69ccc     N1 1625   3.108   5.637   4.953  0.8306 -0.0702  0.1307
   69ccc     H4 1626   3.072   5.707   5.018 -3.6952 -1.3568 -0.7004
   69ccc     C3 1627   3.137   5.501   4.998  0.2040 -0.0788 -0.1826
   69ccc     C4 1628   3.248   5.489   5.105 -0.7254 -0.2972  0.2432
   69ccc     H5 1629   3.174   5.439   4.916  1.0055  0.1990 -0.0378
   69ccc     H6 1630   3.046   5.450   5.033  1.0948 -2.5069 -1.2302
   69ccc     H7 1631   3.230   5.554   5.191 -0.6963 -1.0567  0.8303
   69ccc     H8 1632   3.265   5.392   5.152  0.6983  0.0289  0.4648
   69ccc     N2 1633   3.384   5.544   5.063 -0.0474  0.3657 -0.1173
   69ccc     H9 1634   3.385   5.647   5.054 -0.7023  0.2494 -1.8278
   69ccc    H10 1635   3.456   5.512   5.129  0.3860 -0.8882 -1.1572
   69ccc    H11 1636   3.413   5.508   4.971 -0.9145  1.7132 -0.9490
   70ccc     N1 1637  -0.816   4.499   6.621  0.4351  0.0557  0.0008
   70ccc     H4 1638  -0.813   4.473   6.523  0.3206 -1.9397  0.4840
   70ccc     C3 1639  -0.915   4.445   6.714  0.4481 -0.2522 -0.0575
   70ccc     C4 1640  -1.052   4.463   6.644 -0.2365  0.7532 -0.0952
   70ccc     H5 1641  -0.923   4.502   6.807  0.6619 -0.0115 -0.1853
   70ccc     H6 1642  -0.885   4.341   6.733  1.7747  0.0399 -0.4401
   70ccc     H7 1643  -1.142   4.446   6.703  0.1268 -2.2003 -0.2627
   70ccc     H8 1644  -1.063   4.564   6.604 -1.3284  1.4739  1.8873
   70ccc     N2 1645  -1.075   4.361   6.535  0.5714  0.3891  0.3898
   70ccc     H9 1646  -1.167   4.377   6.491  0.7131  1.0347  0.3248
   70ccc    H10 1647  -1.001   4.364   6.463 -0.6632  0.9183 -0.9131
   70ccc    H11 1648  -1.069   4.267   6.578  0.7740  0.8695  1.4317
   71ccc     N1 1649  -0.071   4.284   6.670  0.2026  0.6005 -0.6955
   71ccc     H4 1650  -0.127   4.320   6.747  1.4396  0.5510  0.2595
   71ccc     C3 1651   0.074   4.226   6.685 -0.3733  0.8673 -0.8676
   71ccc     C4 1652   0.107   4.194   6.834 -0.8161  0.2589  0.8147
   71ccc     H5 1653   0.144   4.297   6.638  0.7373 -0.3221 -1.0732
   71ccc     H6 1654   0.080   4.141   6.616 -0.7177  1.2131 -1.3352
   71ccc     H7 1655   0.212   4.168   6.841 -0.8946 -1.4415 -2.4879
   71ccc     H8 1656   0.093   4.284   6.894 -0.1103  4.3848 -4.4600
   71ccc     N2 1657   0.032   4.071   6.900  0.1289 -0.0361  0.2829
   71ccc     H9 1658   0.042   4.075   7.003  0.3924 -1.2076  0.3142
   71ccc    H10 1659  -0.068   4.062   6.879  0.2247  0.1248 -0.2452
   71ccc    H11 1660   0.087   3.987   6.874 -0.3120 -0.1789 -0.1952
   72ccc     N1 1661  -0.817   4.918   6.609 -0.8625 -0.4105 -0.2655
   72ccc     H4 1662  -0.892   4.906   6.676 -0.5583  2.5446  0.7268
   72ccc     C3 1663  -0.678   4.916   6.659 -0.2042  0.3694 -0.0276
   72ccc     C4 1664  -0.688   4.933   6.814 -0.0392 -0.2926  0.2477
   72ccc     H5 1665  -0.613   4.994   6.617  1.8883 -1.2470  0.0680
   72ccc     H6 1666  -0.626   4.820   6.652 -1.2797 -0.1996 -0.4601
   72ccc     H7 1667  -0.724   4.845   6.868 -1.7319 -1.4743 -2.5994
   72ccc     H8 1668  -0.587   4.947   6.853  0.2419 -1.4302 -0.0373
   72ccc     N2 1669  -0.765   5.051   6.875  0.3218 -0.0535  0.5242
   72ccc     H9 1670  -0.730   5.084   6.966 -0.1385  2.4268 -0.1240
   72ccc    H10 1671  -0.769   5.129   6.808 -1.1061  0.4942  1.1988
   72ccc    H11 1672  -0.864   5.028   6.889 -0.4596  3.1786  0.9783
   73ccc     N1 1673  -1.168   5.295   6.796  0.4338 -0.3510 -0.1264
   73ccc     H4 1674  -1.068   5.308   6.797  0.3203  1.0288 -1.8717
   73ccc     C3 1675  -1.239   5.300   6.924 -0.3474  0.1993  1.4887
   73ccc     C4 1676  -1.135   5.344   7.032  0.5819  0.1623 -0.9427
   73ccc     H5 1677  -1.274   5.201   6.956 -1.6521 -0.3650 -1.4256
   73ccc     H6 1678  -1.327   5.366   6.919 -0.5944 -0.2207 -0.3060
   73ccc     H7 1679  -1.173   5.329   7.133  2.6711  0.6920 -0.0458
   73ccc     H8 1680  -1.046   5.281   7.028  0.4976 -0.4378  2.9250
   73ccc     N2 1681  -1.092   5.492   7.027  0.7100  0.2974 -0.5632
   73ccc     H9 1682  -1.025   5.511   6.951  0.5013  0.3086 -0.7450
   73ccc    H10 1683  -1.178   5.548   7.019  0.8616  0.8860  1.4457
   73ccc    H11 1684  -1.065   5.527   7.120 -1.2084  0.2511  0.0396
   74ccc     N1 1685  -0.525   5.713   6.884 -0.1517 -0.4480 -0.4187
   74ccc     H4 1686  -0.505   5.809   6.857  0.3567 -0.2860  0.5208
   74ccc     C3 1687  -0.523   5.684   7.027 -0.0025 -0.0233 -0.9922
   74ccc     C4 1688  -0.662   5.704   7.089 -0.1891  0.1045  0.1310
   74ccc     H5 1689  -0.457   5.761   7.068  0.2314  0.2464 -1.8611
   74ccc     H6 1690  -0.493   5.582   7.056 -3.5262 -0.3925  2.0846
   74ccc     H7 1691  -0.689   5.808   7.068 -0.4378 -0.3766 -2.2184
   74ccc     H8 1692  -0.739   5.644   7.042 -2.4133  1.5632  1.7150
   74ccc     N2 1693  -0.675   5.687   7.241  0.3075  0.4052  0.2557
   74ccc     H9 1694  -0.629   5.597   7.260  1.4185  1.0326  0.6326
   74ccc    H10 1695  -0.622   5.756   7.296  1.1649 -0.1437  0.1375
   74ccc    H11 1696  -0.772   5.686   7.275 -0.9377  0.3685 -2.8884
   75ccc     N1 1697  -1.059   5.893   6.335  0.2126  0.2431  0.0013
   75ccc     H4 1698  -1.045   5.877   6.434 -4.2943 -1.5452  0.6325
   75ccc     C3 1699  -1.199   5.899   6.292 -0.0083  0.2451  0.6727
   75ccc     C4 1700  -1.273   6.030   6.320  0.1376 -0.1107  0.0647
   75ccc     H5 1701  -1.249   5.817   6.344 -0.1658 -0.2066 -0.1699
   75ccc     H6 1702  -1.216   5.875   6.186  1.3835  1.1733  0.2157
   75ccc     H7 1703  -1.374   6.030   6.278 -0.7860  0.3011  2.1541
   75ccc     H8 1704  -1.271   6.060   6.425 -1.1868  2.8881 -0.6425
   75ccc     N2 1705  -1.206   6.152   6.266 -0.0989 -0.1734  0.1751
   75ccc     H9 1706  -1.220   6.171   6.165  2.2097  1.8452  0.1322
   75ccc    H10 1707  -1.245   6.236   6.310 -2.0817 -0.5623 -0.7429
   75ccc    H11 1708  -1.105   6.146   6.289 -0.1387 -0.4109  0.2866
   76ccc     N1 1709   0.210   5.439   4.955 -0.0959  0.0912  0.5246
   76ccc     H4 1710   0.286   5.465   5.017 -1.0536  2.9909  0.6383
   76ccc     C3 1711   0.206   5.487   4.810  0.0485  0.2608  0.8162
   76ccc     C4 1712   0.226   5.384   4.696 -0.8962  0.1597  0.1664
   76ccc     H5 1713   0.285   5.563   4.802 -0.6339  0.9762  0.7614
   76ccc     H6 1714   0.112   5.542   4.802  0.6986  1.5021  1.4708
   76ccc     H7 1715   0.204   5.447   4.609 -2.5557 -1.2797 -0.5160
   76ccc     H8 1716   0.321   5.330   4.706 -2.9966 -4.5042 -2.0776
   76ccc     N2 1717   0.123   5.269   4.698  0.2674  0.4802 -0.8293
   76ccc     H9 1718   0.102   5.229   4.791  1.6058  1.4129 -0.0975
   76ccc    H10 1719   0.029   5.301   4.672 -0.7820 -1.7817 -0.1148
   76ccc    H11 1720   0.134   5.188   4.635 -1.3101 -1.0489  0.7366
   77ccc     N1 1721   0.001   4.744   5.428 -0.4450  0.0067 -0.6461
   77ccc     H4 1722   0.073   4.762   5.360  2.0479 -0.3710  1.6950
   77ccc     C3 1723  -0.050   4.608   5.444 -0.9266  0.1102  0.3736
   77ccc     C4 1724  -0.165   4.571   5.343 -0.4679 -0.5339  0.0624
   77ccc     H5 1725  -0.083   4.612   5.549 -0.4066 -0.8270  0.5849
   77ccc     H6 1726   0.036   4.539   5.442 -0.3368  0.8117  0.7621
   77ccc     H7 1727  -0.110   4.558   5.250  1.2191 -1.7830  1.1607
   77ccc     H8 1728  -0.204   4.477   5.380 -0.0555  0.1991  2.5543
   77ccc     N2 1729  -0.283   4.672   5.329 -0.8447  0.1968  0.3315
   77ccc     H9 1730  -0.339   4.647   5.247 -0.8266  2.2862 -0.3472
   77ccc    H10 1731  -0.344   4.669   5.412  0.3084 -1.5415  1.1872
   77ccc    H11 1732  -0.255   4.766   5.299  0.6813  0.3487  2.0551
   78ccc     N1 1733  -2.059   6.208   5.066 -0.1684  0.3864  0.0886
   78ccc     H4 1734  -2.113   6.176   5.145 -0.9741 -1.1130 -1.0275
   78ccc     C3 1735  -2.124   6.189   4.932  0.1681 -0.3882 -0.0417
   78ccc     C4 1736  -2.277   6.200   4.944 -0.1717  0.1974 -0.0184
   78ccc     H5 1737  -2.093   6.088   4.901  0.9755 -0.7209  1.6706
   78ccc     H6 1738  -2.096   6.262   4.856 -0.7656 -0.2170 -0.2243
   78ccc     H7 1739  -2.320   6.112   4.991  0.4156 -0.4462 -0.6507
   78ccc     H8 1740  -2.300   6.288   5.004 -0.7475 -0.9920  1.5667
   78ccc     N2 1741  -2.340   6.212   4.808  0.0219 -0.6729 -0.1629
   78ccc     H9 1742  -2.440   6.229   4.825  0.1743  2.1255 -1.5479
   78ccc    H10 1743  -2.307   6.291   4.750  0.8906 -2.0693 -1.6716
   78ccc    H11 1744  -2.311   6.127   4.757  1.6140  1.1038 -2.4239
   79ccc     N1 1745  -2.414   6.444   5.542 -0.0174  0.2655 -0.4311
   79ccc     H4 1746  -2.426   6.519   5.474 -3.4376  1.0856  0.8653
   79ccc     C3 1747  -2.521   6.352   5.577  0.3927  0.2714 -1.1725
   79ccc     C4 1748  -2.636   6.353   5.474  0.5325  0.4943  0.9494
   79ccc     H5 1749  -2.571   6.382   5.670 -1.6467 -2.7459 -1.1560
   79ccc     H6 1750  -2.489   6.247   5.588 -1.7490 -0.2332  1.4334
   79ccc     H7 1751  -2.688   6.448   5.483  0.3111  0.4167  0.5199
   79ccc     H8 1752  -2.606   6.334   5.371 -0.7616 -0.3969  0.7128
   79ccc     N2 1753  -2.743   6.248   5.498 -0.3943  0.8467  0.2442
   79ccc     H9 1754  -2.776   6.252   5.596  2.2598  3.3703  1.1742
   79ccc    H10 1755  -2.817   6.248   5.426 -0.3424  1.0873  0.1900
   79ccc    H11 1756  -2.688   6.161   5.493 -0.8389  0.5911 -0.4090
   80ccc     N1 1757  -2.029   5.539   5.687  0.1166 -0.0805 -0.0831
   80ccc     H4 1758  -1.948   5.518   5.744 -0.3541 -3.1142 -0.3721
   80ccc     C3 1759  -2.072   5.436   5.590  0.0001  0.0990  0.1231
   80ccc     C4 1760  -2.187   5.352   5.649 -0.1048  0.7905 -0.0376
   80ccc     H5 1761  -1.982   5.378   5.567 -1.8131 -1.8607 -2.7560
   80ccc     H6 1762  -2.092   5.497   5.501  2.1951  2.6800  1.2652
   80ccc     H7 1763  -2.141   5.269   5.702  0.2015  0.1051 -1.3324
   80ccc     H8 1764  -2.239   5.404   5.729 -0.6395 -0.8367  0.7104
   80ccc     N2 1765  -2.281   5.303   5.539  0.1338 -0.0379 -0.1070
   80ccc     H9 1766  -2.357   5.241   5.571  0.5927 -0.0314  1.0480
   80ccc    H10 1767  -2.322   5.384   5.490  0.9190  0.3698 -0.1160
   80ccc    H11 1768  -2.228   5.251   5.467  0.6364  2.6287 -1.8000
   81ccc     N1 1769  -2.100   6.083   6.355 -0.2477 -0.0886  0.1842
   81ccc     H4 1770  -2.002   6.108   6.345 -0.1503  0.6937  2.4601
   81ccc     C3 1771  -2.176   6.138   6.468  0.6628 -0.3500  0.1993
   81ccc     C4 1772  -2.117   6.266   6.537  0.0337  0.0798  0.6196
   81ccc     H5 1773  -2.182   6.062   6.547 -0.5131  0.5108  0.9655
   81ccc     H6 1774  -2.274   6.173   6.432  1.1967 -0.2890 -1.2715
   81ccc     H7 1775  -2.053   6.228   6.617  1.4925  2.2008  0.5442
   81ccc     H8 1776  -2.055   6.315   6.462 -1.6249 -1.7168 -2.0999
   81ccc     N2 1777  -2.216   6.367   6.597  0.8824 -0.3620 -0.2339
   81ccc     H9 1778  -2.265   6.426   6.528  0.3960  0.0972  0.4908
   81ccc    H10 1779  -2.289   6.328   6.658  2.0047 -0.1343  1.2908
   81ccc    H11 1780  -2.170   6.427   6.667 -1.2878 -0.1704  1.1207
   82ccc     N1 1781  -1.499   7.002   5.666 -0.4342 -0.2637 -0.3011
   82ccc     H4 1782  -1.586   7.018   5.715 -2.0273 -3.0572 -1.9009
   82ccc     C3 1783  -1.501   7.015   5.520 -0.9222  0.0258  0.2142
   82ccc     C4 1784  -1.635   7.066   5.463  0.6568  0.4525 -0.2737
   82ccc     H5 1785  -1.488   6.922   5.464  1.6509  0.2477  0.3611
   82ccc     H6 1786  -1.422   7.075   5.473  0.1511 -1.0299  0.6317
   82ccc     H7 1787  -1.629   7.059   5.354 -0.0092  0.4578 -0.3156
   82ccc     H8 1788  -1.725   7.013   5.495  0.0316  0.7380 -1.4630
   82ccc     N2 1789  -1.666   7.206   5.503  1.1198 -0.7644 -0.0778
   82ccc     H9 1790  -1.675   7.214   5.606  2.0000 -1.3629  0.0549
   82ccc    H10 1791  -1.599   7.281   5.480  0.7773 -0.7553 -1.1105
   82ccc    H11 1792  -1.760   7.241   5.476  1.6464  1.2183  0.4901
   83ccc     N1 1793  -1.449   7.008   6.402 -0.3993 -0.0579  0.6354
   83ccc     H4 1794  -1.424   7.067   6.324  1.6724  1.4705  2.3267
   83ccc     C3 1795  -1.509   7.068   6.519 -0.6517  0.2937 -0.1220
   83ccc     C4 1796  -1.508   7.220   6.516  0.0454 -0.0839  0.5059
   83ccc     H5 1797  -1.458   7.029   6.608  0.3839  2.2167  0.1940
   83ccc     H6 1798  -1.611   7.028   6.529  0.4303 -2.4265  1.0057
   83ccc     H7 1799  -1.520   7.259   6.617  1.6515  3.1761 -0.4088
   83ccc     H8 1800  -1.416   7.262   6.474  1.0435 -1.0600  1.6689
   83ccc     N2 1801  -1.621   7.266   6.417  0.0413  0.1804  0.0327
   83ccc     H9 1802  -1.631   7.368   6.417  1.6125  0.3692  1.3675
   83ccc    H10 1803  -1.601   7.248   6.317  0.7084 -0.2559  0.2368
   83ccc    H11 1804  -1.714   7.228   6.441  0.3435 -0.8290 -0.3163
   84ccc     N1 1805  -0.686   7.459   7.152  0.0493  0.4798  0.1262
   84ccc     H4 1806  -0.602   7.511   7.130 -0.2461  2.3983  3.0147
   84ccc     C3 1807  -0.713   7.397   7.288 -0.1033 -0.3614 -0.4828
   84ccc     C4 1808  -0.578   7.407   7.375 -0.2775  0.3271  0.3183
   84ccc     H5 1809  -0.751   7.296   7.273 -0.2664 -0.4151  0.2357
   84ccc     H6 1810  -0.788   7.458   7.340  1.9645  1.0193  1.0645
   84ccc     H7 1811  -0.544   7.509   7.391 -0.9811  0.3970  1.4937
   84ccc     H8 1812  -0.595   7.371   7.477  1.7810 -1.0255  0.2379
   84ccc     N2 1813  -0.464   7.321   7.319 -0.5515 -0.5573 -0.0597
   84ccc     H9 1814  -0.476   7.222   7.345 -1.9778 -0.3300  0.2419
   84ccc    H10 1815  -0.463   7.326   7.216  0.2649 -0.7316 -0.0669
   84ccc    H11 1816  -0.374   7.358   7.351 -0.2287 -1.7957  0.5189
   85ccc     N1 1817  -0.443   7.801   6.587  0.1558  0.3289  0.3455
   85ccc     H4 1818  -0.540   7.828   6.575 -0.0160 -0.0533  0.8186
   85ccc     C3 1819  -0.338   7.894   6.625  0.6669  0.5823  0.1025
   85ccc     C4 1820  -0.381   8.045   6.622 -0.3938  0.2643  0.1036
   85ccc     H5 1821  -0.256   7.867   6.557  0.7720 -0.2529  0.5463
   85ccc     H6 1822  -0.306   7.860   6.725 -0.9342 -3.0371 -0.4580
   85ccc     H7 1823  -0.291   8.107   6.627 -0.5329  0.7760 -2.5708
   85ccc     H8 1824  -0.423   8.074   6.526  0.5768  1.4284  0.0043
   85ccc     N2 1825  -0.464   8.092   6.747 -0.1014 -0.1833 -0.0314
   85ccc     H9 1826  -0.432   8.058   6.839 -0.8232 -0.2203  0.2194
   85ccc    H10 1827  -0.451   8.194   6.755  0.1462 -0.2136 -0.0592
   85ccc    H11 1828  -0.565   8.072   6.746 -0.3795  1.1168  0.3602
   86ccc     N1 1829   1.144   5.933   6.498  0.1480  0.2003 -0.5511
   86ccc     H4 1830   1.059   5.988   6.494 -0.5141 -0.6630  0.9532
   86ccc     C3 1831   1.169   5.835   6.609  1.0554 -0.4536 -0.5703
   86ccc     C4 1832   1.044   5.796   6.688  1.0059  0.3343 -0.1846
   86ccc     H5 1833   1.260   5.858   6.667  0.4253  1.5422 -0.3043
   86ccc     H6 1834   1.208   5.745   6.560  3.6288 -1.0303  2.1908
   86ccc     H7 1835   0.977   5.755   6.613  1.0155 -0.2005  0.0982
   86ccc     H8 1836   1.052   5.717   6.763 -0.5142 -1.4039 -1.7581
   86ccc     N2 1837   0.960   5.908   6.748 -0.3689 -0.4838  0.4482
   86ccc     H9 1838   0.887   5.869   6.810 -0.4982 -1.4892 -0.2868
   86ccc    H10 1839   1.008   5.974   6.809 -1.6626 -0.6907  1.7378
   86ccc    H11 1840   0.905   5.960   6.677  0.7352 -0.3780 -0.3528
   87ccc     N1 1841   0.954   6.566   6.042 -0.4687  0.0431 -0.2911
   87ccc     H4 1842   0.877   6.506   6.069  0.1977 -0.0701  1.4586
   87ccc     C3 1843   0.931   6.692   5.969 -0.7817  0.4608  0.3015
   87ccc     C4 1844   0.822   6.774   6.036  0.0255  0.3040 -0.5450
   87ccc     H5 1845   0.905   6.677   5.864 -1.6609 -2.7638  0.8736
   87ccc     H6 1846   1.032   6.735   5.964  0.0123 -1.2300  1.0991
   87ccc     H7 1847   0.803   6.865   5.978 -0.3921 -0.0121 -0.9080
   87ccc     H8 1848   0.735   6.709   6.038  1.4094 -1.6135  0.3931
   87ccc     N2 1849   0.853   6.816   6.179 -0.4436  0.0227  0.2829
   87ccc     H9 1850   0.950   6.852   6.177 -0.8027  0.9864 -0.6068
   87ccc    H10 1851   0.798   6.891   6.222  2.0647 -0.0004  3.9222
   87ccc    H11 1852   0.850   6.737   6.245  0.4026  0.2763  0.6457
   88ccc     N1 1853   0.390   4.605   5.345 -0.3134 -0.2460  0.4937
   88ccc     H4 1854   0.477   4.600   5.395 -0.5703 -0.3864  0.9314
   88ccc     C3 1855   0.310   4.488   5.331  0.6509  0.8199  0.1256
   88ccc     C4 1856   0.401   4.362   5.338 -0.0963 -0.2399 -0.6946
   88ccc     H5 1857   0.263   4.485   5.232  0.6644 -1.7867  0.1327
   88ccc     H6 1858   0.247   4.483   5.420  0.1247  0.9471 -0.2394
   88ccc     H7 1859   0.462   4.367   5.248 -0.0725  0.5857 -0.6413
   88ccc     H8 1860   0.454   4.367   5.433  0.5189  1.5613 -1.0827
   88ccc     N2 1861   0.309   4.245   5.324  0.3380 -0.3423  0.5202
   88ccc     H9 1862   0.253   4.250   5.238 -0.8557  1.5399  1.3321
   88ccc    H10 1863   0.360   4.156   5.327 -1.0896 -1.1619  1.2155
   88ccc    H11 1864   0.236   4.244   5.397 -0.7462  0.9215 -0.5142
   89ccc     N1 1865   0.998   4.649   5.399 -0.0167 -0.4807  0.0714
   89ccc     H4 1866   0.931   4.573   5.398  1.4518 -1.8205  0.0314
   89ccc     C3 1867   1.145   4.614   5.411  0.1296 -0.0391  0.0057
   89ccc     C4 1868   1.175   4.465   5.393  0.4002 -0.0970 -0.1309
   89ccc     H5 1869   1.177   4.628   5.515  0.2536 -0.3435  0.0100
   89ccc     H6 1870   1.208   4.678   5.347  0.9888 -1.5926 -0.7714
   89ccc     H7 1871   1.279   4.448   5.422  0.8859  0.7749 -1.2829
   89ccc     H8 1872   1.115   4.398   5.455  1.2117 -0.3975  0.3446
   89ccc     N2 1873   1.152   4.405   5.262 -0.4906  0.1552 -0.1747
   89ccc     H9 1874   1.165   4.303   5.255  0.9588  0.4070 -1.6090
   89ccc    H10 1875   1.053   4.423   5.238 -0.6456  0.2026  0.4790
   89ccc    H11 1876   1.208   4.460   5.196  1.1077  0.6423  1.4993
   90ccc     N1 1877  -0.224   4.851   5.912 -0.1743 -0.2225 -0.1222
   90ccc     H4 1878  -0.313   4.806   5.931  0.5785 -2.5485 -1.6248
   90ccc     C3 1879  -0.106   4.805   5.989 -0.2452 -0.8049 -0.2956
   90ccc     C4 1880   0.027   4.779   5.906 -0.3889  0.2050  1.1081
   90ccc     H5 1881  -0.133   4.707   6.030 -0.2836 -1.4849 -1.8882
   90ccc     H6 1882  -0.087   4.878   6.069 -0.3787 -0.1136 -0.8792
   90ccc     H7 1883   0.076   4.696   5.955 -1.2398  0.6125  2.7193
   90ccc     H8 1884  -0.006   4.758   5.804 -1.6267  2.5489  0.9353
   90ccc     N2 1885   0.123   4.902   5.891  0.9901  0.4580  0.2440
   90ccc     H9 1886   0.143   4.949   5.980 -1.2479 -0.1758  1.1439
   90ccc    H10 1887   0.213   4.870   5.852  0.7341  0.1266 -0.0955
   90ccc    H11 1888   0.083   4.978   5.835 -2.2802 -1.6885 -0.6177
   91ccc     N1 1889  -0.869   4.983   5.902  0.7258 -0.3693  0.6723
   91ccc     H4 1890  -0.806   4.951   5.975  1.0349  3.0415  2.1236
   91ccc     C3 1891  -1.002   4.917   5.890 -0.2387 -0.0189  0.0482
   91ccc     C4 1892  -1.032   4.867   5.749  0.4122  0.3859  1.1724
   91ccc     H5 1893  -1.091   4.966   5.932 -1.3300 -2.2248  0.4684
   91ccc     H6 1894  -0.997   4.826   5.951 -1.9554 -1.2500 -1.5215
   91ccc     H7 1895  -0.950   4.802   5.720  0.5913  1.7558 -1.7364
   91ccc     H8 1896  -1.122   4.805   5.742 -0.4168  1.5754  0.8559
   91ccc     N2 1897  -1.045   4.973   5.635  0.2410 -0.4924  0.5506
   91ccc     H9 1898  -1.062   4.934   5.541 -0.6630  1.6416 -0.2346
   91ccc    H10 1899  -1.121   5.041   5.648 -0.0321  0.1653 -3.2163
   91ccc    H11 1900  -0.953   5.020   5.631  1.2842 -2.0430  3.5908
   92ccc     N1 1901  -0.776   6.411   4.801  0.2012 -1.0882  0.4364
   92ccc     H4 1902  -0.727   6.498   4.819  3.0522 -1.5831 -3.5757
   92ccc     C3 1903  -0.827   6.382   4.663 -0.1259  0.2904 -0.5507
   92ccc     C4 1904  -0.712   6.327   4.571  0.3064 -0.0221  0.2187
   92ccc     H5 1905  -0.877   6.470   4.620 -0.1496  1.4757  1.7129
   92ccc     H6 1906  -0.906   6.306   4.669  0.5783 -0.3468  1.7044
   92ccc     H7 1907  -0.741   6.326   4.466  0.4339 -1.1190  0.1778
   92ccc     H8 1908  -0.630   6.399   4.578  0.6899 -0.4456  0.1835
   92ccc     N2 1909  -0.655   6.190   4.595  0.4904  0.5750 -0.2836
   92ccc     H9 1910  -0.583   6.185   4.522  0.5729 -1.1706 -0.1227
   92ccc    H10 1911  -0.618   6.186   4.691  2.4133  0.1926 -0.9955
   92ccc    H11 1912  -0.723   6.113   4.587  1.2183  0.1037 -2.5165
   93ccc     N1 1913  -1.065   6.747   5.407  0.1186 -0.3665  0.0902
   93ccc     H4 1914  -1.092   6.686   5.483  2.6829 -1.2831  0.3587
   93ccc     C3 1915  -1.114   6.884   5.414  0.8334  0.3126  0.4201
   93ccc     C4 1916  -1.015   6.975   5.486  0.1780 -0.6632  0.4016
   93ccc     H5 1917  -1.210   6.897   5.466  1.2061 -2.8824  2.1328
   93ccc     H6 1918  -1.123   6.922   5.312  2.0460  0.7106  0.4344
   93ccc     H7 1919  -1.063   7.072   5.495  0.2558 -0.5086 -0.7933
   93ccc     H8 1920  -1.002   6.953   5.592  1.6954  1.1943  0.6490
   93ccc     N2 1921  -0.882   6.998   5.417 -0.1037 -0.1425 -0.4036
   93ccc     H9 1922  -0.817   7.056   5.473  0.0591 -0.0025 -0.7329
   93ccc    H10 1923  -0.830   6.911   5.396  0.9214  0.6137 -1.1189
   93ccc    H11 1924  -0.889   7.038   5.323  1.3335 -1.3385 -1.0743
   94ccc     N1 1925   2.572   6.220   6.948  0.6239  0.1065  0.5593
   94ccc     H4 1926   2.571   6.284   7.027 -1.8844  0.4563  0.3248
   94ccc     C3 1927   2.639   6.090   6.950 -0.3026 -0.6788 -0.6986
   94ccc     C4 1928   2.761   6.082   6.858  0.3187  0.4116  0.6294
   94ccc     H5 1929   2.565   6.013   6.925 -1.8329  0.0084  1.3445
   94ccc     H6 1930   2.671   6.061   7.051 -1.3299 -1.2330 -0.5102
   94ccc     H7 1931   2.810   5.985   6.849  2.7175  1.6082 -0.2616
   94ccc     H8 1932   2.737   6.112   6.756  1.0253 -3.7236 -0.9607
   94ccc     N2 1933   2.876   6.163   6.916 -0.2427  1.1040  0.2093
   94ccc     H9 1934   2.827   6.248   6.948  0.6135  2.1666 -1.1806
   94ccc    H10 1935   2.920   6.104   6.988 -1.2156 -1.2845 -1.0574
   94ccc    H11 1936   2.947   6.188   6.845  0.8304  0.3008  0.9622
   95ccc     N1 1937   2.601   6.810   6.447 -0.2429  0.2179  0.0914
   95ccc     H4 1938   2.648   6.723   6.424  1.3899  1.5819 -2.2484
   95ccc     C3 1939   2.619   6.912   6.343 -0.0536  0.2526  0.0451
   95ccc     C4 1940   2.732   7.004   6.394 -0.4468 -0.5861  0.0466
   95ccc     H5 1941   2.522   6.962   6.333 -0.8411 -1.3973 -1.2091
   95ccc     H6 1942   2.653   6.868   6.248 -0.0501  1.3199 -0.4586
   95ccc     H7 1943   2.748   7.083   6.321  3.5579  0.2945  1.6303
   95ccc     H8 1944   2.709   7.055   6.487  0.6397  1.0661 -0.5457
   95ccc     N2 1945   2.873   6.946   6.413 -0.4115  0.5550 -0.1218
   95ccc     H9 1946   2.907   6.935   6.316 -1.4081 -0.6565 -0.3686
   95ccc    H10 1947   2.935   7.003   6.472 -0.3222  0.1451  0.1822
   95ccc    H11 1948   2.870   6.854   6.460  0.0204  2.1168  3.2021
   96ccc     N1 1949   0.638   7.089   6.497  0.1316  0.4367 -0.2021
   96ccc     H4 1950   0.624   7.150   6.577 -0.4162  1.1343 -0.8232
   96ccc     C3 1951   0.530   6.994   6.456 -0.0533  0.7037 -0.0995
   96ccc     C4 1952   0.384   7.036   6.465  0.0467  0.1899  0.0814
   96ccc     H5 1953   0.549   6.894   6.496  2.1333  1.4465  0.9005
   96ccc     H6 1954   0.551   6.977   6.350  0.5698  0.8770 -0.0127
   96ccc     H7 1955   0.362   7.115   6.393 -2.3234 -0.3615  0.1074
   96ccc     H8 1956   0.316   6.954   6.442 -1.2176  1.1311  0.3653
   96ccc     N2 1957   0.340   7.067   6.600  0.1026  0.5230 -1.2267
   96ccc     H9 1958   0.318   6.985   6.658 -1.3433  1.8210  0.1820
   96ccc    H10 1959   0.402   7.131   6.653 -1.8206  3.3262 -2.1387
   96ccc    H11 1960   0.246   7.110   6.594 -1.7383 -3.0909 -0.7798
   97ccc     N1 1961   1.211   7.414   6.789  0.0522  0.9327  0.6243
   97ccc     H4 1962   1.143   7.339   6.800 -0.0098  0.9828  0.5872
   97ccc     C3 1963   1.307   7.461   6.889  0.7450 -0.1067  0.3812
   97ccc     C4 1964   1.305   7.372   7.016 -0.1322 -0.6861 -0.5733
   97ccc     H5 1965   1.278   7.562   6.920 -0.4591 -0.3533  0.1087
   97ccc     H6 1966   1.406   7.458   6.842  0.2802 -0.8860 -0.5719
   97ccc     H7 1967   1.368   7.409   7.097  0.5904  0.6377 -1.6901
   97ccc     H8 1968   1.205   7.371   7.058  0.2317  0.6382  0.4047
   97ccc     N2 1969   1.357   7.231   7.002  0.0165  0.2973 -0.3798
   97ccc     H9 1970   1.323   7.189   6.914  1.2913  0.0469 -0.7724
   97ccc    H10 1971   1.459   7.227   6.988  0.0594 -1.7637  0.1542
   97ccc    H11 1972   1.332   7.171   7.082 -1.9081  0.7143 -0.6374
   98ccc     N1 1973   0.482   6.638   7.731 -0.3772  0.5746 -0.4050
   98ccc     H4 1974   0.558   6.575   7.707  0.9600  2.6560 -1.9902
   98ccc     C3 1975   0.421   6.620   7.862  0.2174 -0.7124 -0.1533
   98ccc     C4 1976   0.483   6.515   7.955 -0.3452 -0.4196 -0.4912
   98ccc     H5 1977   0.316   6.596   7.843 -0.4491  1.8859 -0.1237
   98ccc     H6 1978   0.415   6.723   7.900 -1.9022 -0.2286 -1.6272
   98ccc     H7 1979   0.586   6.536   7.982  0.4436 -1.6973 -2.3633
   98ccc     H8 1980   0.428   6.513   8.050 -0.8536  0.3014 -0.7550
   98ccc     N2 1981   0.479   6.372   7.903 -0.2116  0.5812 -0.0102
   98ccc     H9 1982   0.529   6.305   7.963 -1.6476 -0.1647  0.3971
   98ccc    H10 1983   0.386   6.331   7.917 -0.4619  0.6409 -1.3238
   98ccc    H11 1984   0.515   6.360   7.807  0.4196 -2.2221  0.5118
   99ccc     N1 1985   0.550   7.293   7.302  1.2340 -0.4327  0.0845
   99ccc     H4 1986   0.464   7.270   7.350  0.8200  0.1240 -0.3719
   99ccc     C3 1987   0.582   7.439   7.280 -0.1305  0.5236 -0.1969
   99ccc     C4 1988   0.565   7.534   7.395 -0.0295 -0.4272 -0.5084
   99ccc     H5 1989   0.539   7.474   7.186 -2.0281  0.6921  0.6816
   99ccc     H6 1990   0.690   7.449   7.262 -0.1681  0.9217 -0.2165
   99ccc     H7 1991   0.634   7.507   7.475  0.5423 -1.4570 -1.3252
   99ccc     H8 1992   0.575   7.636   7.355 -1.3044  0.2230  0.7440
   99ccc     N2 1993   0.421   7.522   7.464 -0.3168 -0.0450  0.1850
   99ccc     H9 1994   0.349   7.531   7.391  1.7449  0.4115 -1.8948
   99ccc    H10 1995   0.420   7.432   7.515  0.8639 -0.9649 -1.3597
   99ccc    H11 1996   0.413   7.599   7.532 -0.0593 -0.0106  0.1762
  100ccc     N1 1997   1.704   6.121   7.943  0.4045  0.7867 -0.2741
  100ccc     H4 1998   1.657   6.127   7.853  1.5058 -2.7626 -1.2404
  100ccc     C3 1999   1.792   6.005   7.964 -0.0861  0.0511  0.1663
  100ccc     C4 2000   1.725   5.884   8.034  0.6299 -0.2073  0.1308
  100ccc     H5 2001   1.873   6.027   8.035 -0.5151  2.1459  0.0739
  100ccc     H6 2002   1.832   5.970   7.868 -0.8189  1.7779 -0.8296
  100ccc     H7 2003   1.642   5.857   7.969  0.2075  3.0481 -0.8996
  100ccc     H8 2004   1.797   5.804   8.052  1.4315 -0.0325 -1.9986
  100ccc     N2 2005   1.658   5.929   8.156  0.1561  0.2442 -0.0208
  100ccc     H9 2006   1.722   5.976   8.222 -0.3322  0.0936  0.5745
  100ccc    H10 2007   1.587   6.000   8.133 -0.2628  0.1754  0.9899
  100ccc    H11 2008   1.605   5.859   8.210  0.2054  0.4897  0.3502
  101ccc     N1 2009   2.193   6.308   7.665  0.1516 -0.4578  0.3168
  101ccc     H4 2010   2.196   6.322   7.765  1.3497  1.4221  0.0561
  101ccc     C3 2011   2.321   6.295   7.595 -0.1422  0.0323 -0.7466
  101ccc     C4 2012   2.372   6.147   7.612  0.1204  0.0483 -0.3430
  101ccc     H5 2013   2.401   6.362   7.631 -1.5183  1.3063  0.0465
  101ccc     H6 2014   2.304   6.319   7.490 -2.3782 -1.4054 -0.7671
  101ccc     H7 2015   2.294   6.075   7.587 -0.5889  1.1070 -1.2957
  101ccc     H8 2016   2.452   6.143   7.538  0.8583  4.7555 -0.1083
  101ccc     N2 2017   2.418   6.102   7.746 -0.3538 -0.2340  0.5612
  101ccc     H9 2018   2.486   6.167   7.788 -0.0962  1.5605 -2.3445
  101ccc    H10 2019   2.340   6.086   7.811 -0.0032 -2.8038  0.4633
  101ccc    H11 2020   2.454   6.006   7.733  1.2695  0.4823 -0.6080
  102ccc     N1 2021   2.542   5.560   5.245  0.1762  0.0235  0.6385
  102ccc     H4 2022   2.555   5.623   5.167 -1.4235 -0.1118  0.2232
  102ccc     C3 2023   2.531   5.413   5.223 -0.0196  0.4207 -0.1747
  102ccc     C4 2024   2.538   5.372   5.072 -0.0794  0.1349 -0.2101
  102ccc     H5 2025   2.433   5.379   5.258 -0.8052  2.1032 -0.6579
  102ccc     H6 2026   2.609   5.368   5.287 -0.6709 -0.7350 -0.1632
  102ccc     H7 2027   2.493   5.273   5.063 -0.9613  0.4025  0.9334
  102ccc     H8 2028   2.484   5.448   5.016  2.8126  3.2322  0.8230
  102ccc     N2 2029   2.676   5.360   5.013 -0.0211  0.1006  0.8006
  102ccc     H9 2030   2.666   5.312   4.922 -0.3061  0.6020  0.5650
  102ccc    H10 2031   2.709   5.451   4.978  0.1211 -0.0329  0.5886
  102ccc    H11 2032   2.753   5.319   5.067 -0.5620 -0.8520  0.8796
  103ccc     N1 2033   2.626   6.158   5.857  0.6758  0.1820  0.8632
  103ccc     H4 2034   2.570   6.082   5.896 -0.4416 -0.1176 -1.2143
  103ccc     C3 2035   2.712   6.242   5.941 -0.1267 -0.3499 -0.1601
  103ccc     C4 2036   2.704   6.392   5.929 -0.1628 -0.0286 -0.2440
  103ccc     H5 2037   2.815   6.209   5.923  1.0095  0.6561  3.4955
  103ccc     H6 2038   2.690   6.221   6.047 -1.5545 -0.6945 -0.5077
  103ccc     H7 2039   2.790   6.442   5.975 -0.4147  0.8102 -0.6655
  103ccc     H8 2040   2.712   6.415   5.823  3.6555 -0.5181 -0.2234
  103ccc     N2 2041   2.576   6.455   5.995  0.1148  0.0999  0.5572
  103ccc     H9 2042   2.574   6.440   6.097  0.4339 -1.2181  0.3911
  103ccc    H10 2043   2.572   6.557   5.981 -0.1499  0.4130  2.6056
  103ccc    H11 2044   2.493   6.409   5.955 -0.2024 -0.5403  1.9069
  104ccc     N1 2045   0.775   6.013   5.002  0.6793 -0.3167  0.0463
  104ccc     H4 2046   0.733   5.921   4.992 -1.3960  0.6228 -0.4666
  104ccc     C3 2047   0.705   6.137   4.954  0.0078  0.4678 -0.7491
  104ccc     C4 2048   0.760   6.198   4.826  0.1056 -0.5806  0.0960
  104ccc     H5 2049   0.710   6.209   5.037 -0.2461 -0.4894  0.1177
  104ccc     H6 2050   0.603   6.099   4.943  0.2353  0.5193 -3.7105
  104ccc     H7 2051   0.695   6.285   4.814  0.0668 -0.8490 -1.9764
  104ccc     H8 2052   0.860   6.239   4.834 -0.2353  0.7727 -1.7408
  104ccc     N2 2053   0.752   6.111   4.712  0.1385  0.3282  0.5029
  104ccc     H9 2054   0.657   6.075   4.696  0.8542 -0.5108 -2.3756
  104ccc    H10 2055   0.777   6.155   4.622 -1.1187  0.1251  0.0431
  104ccc    H11 2056   0.808   6.027   4.736 -0.3970 -0.5376 -1.1317
  105ccc     N1 2057   1.173   5.373   4.933  0.4213 -0.0767  0.3412
  105ccc     H4 2058   1.088   5.368   4.988 -1.2011 -1.3636 -2.0933
  105ccc     C3 2059   1.262   5.255   4.933 -0.0656 -0.3925 -0.1623
  105ccc     C4 2060   1.223   5.162   4.813 -0.5973 -0.3831  0.6454
  105ccc     H5 2061   1.236   5.193   5.019 -1.4782 -0.7914 -0.8487
  105ccc     H6 2062   1.367   5.283   4.947 -0.0191  0.2244 -1.5611
  105ccc     H7 2063   1.280   5.069   4.819 -2.0102 -1.2075  2.0365
  105ccc     H8 2064   1.115   5.147   4.810 -0.4896 -1.1356 -1.6731
  105ccc     N2 2065   1.257   5.226   4.678 -0.1518  0.4539 -0.3481
  105ccc     H9 2066   1.200   5.189   4.601 -0.1576 -3.1434  1.1681
  105ccc    H10 2067   1.259   5.329   4.684 -2.0131  0.4892  0.4224
  105ccc    H11 2068   1.352   5.191   4.663 -0.2576 -0.0429  0.1195
  106ccc     N1 2069   0.316   7.396   6.115  0.3649 -0.2195 -0.2283
  106ccc     H4 2070   0.325   7.497   6.107 -0.1021 -0.0331  1.4282
  106ccc     C3 2071   0.226   7.331   6.022  0.6124 -0.2852  0.4294
  106ccc     C4 2072   0.159   7.211   6.081  0.4470  0.1987  0.8671
  106ccc     H5 2073   0.284   7.282   5.943  2.1693 -0.9679  1.9312
  106ccc     H6 2074   0.153   7.400   5.979 -0.0839  0.3797  2.5230
  106ccc     H7 2075   0.234   7.134   6.100  0.8732  0.3665 -0.0512
  106ccc     H8 2076   0.100   7.237   6.169  1.9187 -0.2146  2.0134
  106ccc     N2 2077   0.047   7.155   5.999  0.4610  0.8354  0.5384
  106ccc     H9 2078   0.092   7.094   5.929  0.1086  0.1016  0.9514
  106ccc    H10 2079  -0.024   7.100   6.048 -1.9264  1.6294 -1.8332
  106ccc    H11 2080  -0.001   7.226   5.942 -1.5671 -0.2392  0.8294
  107ccc     N1 2081   0.728   7.879   6.290  0.6015 -0.4051  0.7758
  107ccc     H4 2082   0.655   7.817   6.324 -0.5397  0.2646 -0.3371
  107ccc     C3 2083   0.686   8.014   6.253  0.3606 -0.1601 -0.0263
  107ccc     C4 2084   0.553   8.056   6.317 -0.3332 -0.8895 -0.3663
  107ccc     H5 2085   0.684   8.018   6.143  2.7539  0.6414 -0.0946
  107ccc     H6 2086   0.771   8.081   6.272  0.1283  0.1367 -0.0344
  107ccc     H7 2087   0.553   8.052   6.426 -2.1139 -1.5026 -0.3484
  107ccc     H8 2088   0.539   8.161   6.291 -0.2174 -0.7287  0.1952
  107ccc     N2 2089   0.426   7.987   6.265 -0.0481  0.8782  0.1113
  107ccc     H9 2090   0.339   8.009   6.316 -1.6550 -2.7512 -0.7452
  107ccc    H10 2091   0.407   8.021   6.170 -0.6872  0.6101  0.1358
  107ccc    H11 2092   0.444   7.886   6.274  0.6730  1.0637  0.8876
  108ccc     N1 2093   2.082   7.367   5.940 -0.0105  0.0350  1.0626
  108ccc     H4 2094   2.178   7.397   5.957 -0.4732  1.2065  1.7175
  108ccc     C3 2095   2.031   7.367   5.801 -0.0987 -0.2942 -0.0177
  108ccc     C4 2096   1.993   7.509   5.758  0.3576  0.4760  0.1729
  108ccc     H5 2097   1.953   7.290   5.801 -1.5897  1.0799  2.3550
  108ccc     H6 2098   2.109   7.334   5.731  0.1992  1.7040 -0.7023
  108ccc     H7 2099   1.924   7.565   5.821  1.6945  0.4242  1.7461
  108ccc     H8 2100   2.085   7.567   5.746  1.0238 -0.3643  1.1447
  108ccc     N2 2101   1.932   7.507   5.620  0.3117  0.2731  0.4870
  108ccc     H9 2102   1.994   7.463   5.550  1.5184  1.5014  0.7278
  108ccc    H10 2103   1.834   7.478   5.609  0.0468  0.1785  2.6623
  108ccc    H11 2104   1.944   7.602   5.581 -1.4011  0.1588 -0.3745
  109ccc     N1 2105   2.132   7.948   5.997  0.3547  0.4347 -0.4661
  109ccc     H4 2106   2.095   7.893   5.920 -0.1448  1.3202 -0.8788
  109ccc     C3 2107   2.210   8.070   5.977  0.6295  0.4827 -0.8192
  109ccc     C4 2108   2.200   8.131   5.841  0.5960  0.8944  0.1110
  109ccc     H5 2109   2.316   8.050   5.995  0.0006  0.8191  5.2800
  109ccc     H6 2110   2.176   8.143   6.052 -0.0421  0.1750 -0.8235
  109ccc     H7 2111   2.243   8.058   5.773 -2.2791 -0.8235 -0.0353
  109ccc     H8 2112   2.097   8.147   5.809 -0.4629 -0.6254  2.4775
  109ccc     N2 2113   2.262   8.265   5.819  0.0614 -0.7110  0.4901
  109ccc     H9 2114   2.255   8.294   5.720 -2.1876 -0.0866  0.7836
  109ccc    H10 2115   2.205   8.326   5.878  0.6789  1.2254 -0.8006
  109ccc    H11 2116   2.361   8.265   5.848  1.2039  2.1266 -2.7751
  110ccc     N1 2117  -0.490   6.299   3.434  0.8088 -0.5663 -0.1083
  110ccc     H4 2118  -0.494   6.243   3.350  1.5635 -1.6276  0.5239
  110ccc     C3 2119  -0.612   6.318   3.522  0.9482  0.3080 -0.3382
  110ccc     C4 2120  -0.694   6.446   3.489  0.5931 -0.0093 -0.1256
  110ccc     H5 2121  -0.586   6.323   3.628 -0.4367 -1.2600  0.1070
  110ccc     H6 2122  -0.680   6.233   3.509  1.7058 -0.1854 -1.1823
  110ccc     H7 2123  -0.626   6.532   3.491  2.5509 -1.4289 -1.3469
  110ccc     H8 2124  -0.739   6.446   3.390  1.3298  2.3075 -0.5406
  110ccc     N2 2125  -0.803   6.476   3.585  1.0781 -0.3386 -0.3310
  110ccc     H9 2126  -0.843   6.569   3.570  0.1453 -0.3271  1.8572
  110ccc    H10 2127  -0.885   6.418   3.563 -0.0609  0.5324  1.4192
  110ccc    H11 2128  -0.783   6.471   3.686 -0.6552 -0.2381  0.0403
  111ccc     N1 2129  -0.023   5.927   3.056  0.1137 -0.3241 -0.4235
  111ccc     H4 2130  -0.120   5.945   3.077  0.1637  1.0858 -1.2749
  111ccc     C3 2131   0.012   5.794   3.001 -0.3364 -0.1710  0.0391
  111ccc     C4 2132  -0.092   5.743   2.895 -0.2416 -1.1197 -0.5027
  111ccc     H5 2133   0.045   5.721   3.077 -0.1438 -0.1464 -0.0201
  111ccc     H6 2134   0.097   5.803   2.933 -2.2117  1.3723 -2.2524
  111ccc     H7 2135  -0.075   5.640   2.863  1.5567 -1.1652  0.4970
  111ccc     H8 2136  -0.199   5.751   2.916 -0.2894 -2.0248 -0.3622
  111ccc     N2 2137  -0.079   5.826   2.767  0.3888  0.0132 -0.3752
  111ccc     H9 2138  -0.153   5.796   2.702 -0.7552  2.2904 -0.2397
  111ccc    H10 2139  -0.107   5.925   2.778 -2.7512 -0.8113  0.1442
  111ccc    H11 2140   0.013   5.821   2.721  1.0305 -1.1865  0.9634
  112ccc     N1 2141   0.745   6.233   2.844 -0.1666 -0.0632 -0.1996
  112ccc     H4 2142   0.723   6.269   2.936  2.4186 -0.0212  0.4845
  112ccc     C3 2143   0.623   6.175   2.779 -0.2686  0.2611  1.3435
  112ccc     C4 2144   0.523   6.151   2.890 -0.0159  0.4456 -0.1162
  112ccc     H5 2145   0.654   6.077   2.740 -1.4832  0.2199  0.3871
  112ccc     H6 2146   0.592   6.233   2.691 -0.7387 -1.3211  0.4261
  112ccc     H7 2147   0.572   6.090   2.966  0.0533  1.3394  0.5677
  112ccc     H8 2148   0.487   6.236   2.948 -1.3435  0.6892 -1.2459
  112ccc     N2 2149   0.394   6.080   2.848 -0.0290  0.5365  0.1301
  112ccc     H9 2150   0.318   6.083   2.917 -1.3775  2.3683 -1.3266
  112ccc    H10 2151   0.353   6.127   2.766 -0.7325 -1.4488 -0.7377
  112ccc    H11 2152   0.403   5.980   2.821 -0.1118  0.1678  1.4145
  113ccc     N1 2153   1.230   6.328   3.213 -0.4470  0.2468 -0.0772
  113ccc     H4 2154   1.187   6.406   3.261  2.5228  1.2270  1.2945
  113ccc     C3 2155   1.217   6.185   3.258 -0.1904  0.5889 -0.5800
  113ccc     C4 2156   1.093   6.107   3.199 -0.3023  0.0165 -0.1048
  113ccc     H5 2157   1.212   6.186   3.367  1.8507 -0.0323 -0.4274
  113ccc     H6 2158   1.311   6.134   3.231  0.6572  0.8484  1.6914
  113ccc     H7 2159   0.993   6.141   3.226 -0.3905 -0.8355  0.6756
  113ccc     H8 2160   1.117   6.106   3.092 -0.2459 -1.6304 -0.1043
  113ccc     N2 2161   1.095   5.965   3.244  0.0820 -0.1614  0.1986
  113ccc     H9 2162   1.031   5.894   3.205  1.3347 -3.5407  3.6182
  113ccc    H10 2163   1.194   5.935   3.235 -0.0901 -0.7475  0.1737
  113ccc    H11 2164   1.077   5.966   3.345 -1.9994  1.3585 -0.1522
  114ccc     N1 2165   0.195   7.097   3.483  0.2818 -0.0193 -0.7493
  114ccc     H4 2166   0.195   7.141   3.392 -1.4389 -1.7751 -1.6856
  114ccc     C3 2167   0.097   6.990   3.506 -0.6093  0.1619 -0.3661
  114ccc     C4 2168   0.015   6.947   3.380  0.1389  0.6767 -0.0217
  114ccc     H5 2169   0.028   7.010   3.588  0.5169 -1.5814  1.0847
  114ccc     H6 2170   0.147   6.900   3.543 -1.5664 -0.2573 -0.0823
  114ccc     H7 2171   0.010   7.023   3.302 -1.6877  0.2745 -0.3470
  114ccc     H8 2172   0.071   6.861   3.344 -0.4422  1.2401 -2.4002
  114ccc     N2 2173  -0.125   6.899   3.412 -0.0717  0.4557  0.0771
  114ccc     H9 2174  -0.176   6.859   3.332  0.5870  0.7224 -0.4881
  114ccc    H10 2175  -0.128   6.834   3.491 -2.8382  1.2329  0.7314
  114ccc    H11 2176  -0.183   6.979   3.441  1.1318  1.0319  1.0071
  115ccc     N1 2177   0.492   7.845   3.318 -0.5558  0.3000 -1.2037
  115ccc     H4 2178   0.593   7.843   3.333 -0.5633 -1.3044 -1.1824
  115ccc     C3 2179   0.435   7.951   3.226  0.1630 -0.2402  0.0322
  115ccc     C4 2180   0.534   8.061   3.186 -0.1520 -0.3838 -0.0192
  115ccc     H5 2181   0.348   7.999   3.271 -1.1247 -0.3468 -2.1880
  115ccc     H6 2182   0.422   7.907   3.126  3.1376 -0.0911 -0.5337
  115ccc     H7 2183   0.622   8.023   3.133 -0.3231 -0.6260 -0.1293
  115ccc     H8 2184   0.483   8.130   3.119  0.6358  1.0536  0.8224
  115ccc     N2 2185   0.583   8.146   3.304 -0.1934  0.0478  0.4162
  115ccc     H9 2186   0.636   8.228   3.271  0.5756 -0.0219  1.4504
  115ccc    H10 2187   0.505   8.179   3.363  1.2732  1.6248  1.5910
  115ccc    H11 2188   0.647   8.089   3.361  2.3241  0.5218 -1.7533
  116ccc     N1 2189   1.237   6.659   3.906  0.2762  0.3766 -0.7385
  116ccc     H4 2190   1.165   6.694   3.844 -1.6524  1.3952  1.8844
  116ccc     C3 2191   1.207   6.521   3.954  0.3831  0.5184  0.0137
  116ccc     C4 2192   1.188   6.426   3.835 -0.6072  0.9056 -0.5295
  116ccc     H5 2193   1.113   6.524   4.011  0.8558  1.4716  0.7881
  116ccc     H6 2194   1.289   6.491   4.020 -1.0785 -1.6250  0.9815
  116ccc     H7 2195   1.114   6.474   3.771 -1.2081  1.5268  0.6074
  116ccc     H8 2196   1.278   6.407   3.775 -0.3134  2.4965 -0.6386
  116ccc     N2 2197   1.141   6.284   3.881  0.7105  0.5802  0.7669
  116ccc     H9 2198   1.143   6.223   3.798  0.3376  1.1990  0.2987
  116ccc    H10 2199   1.199   6.241   3.955 -0.0827  0.5935  1.4127
  116ccc    H11 2200   1.048   6.283   3.925  0.1392 -1.6251 -0.3368
  117ccc     N1 2201   1.585   7.353   3.984 -0.1910 -0.5033  0.1651
  117ccc     H4 2202   1.517   7.285   4.013  0.0713 -0.8526 -0.0295
  117ccc     C3 2203   1.578   7.485   4.021 -0.1232 -0.4900 -0.3141
  117ccc     C4 2204   1.504   7.565   3.917  0.2300 -0.3534  0.5642
  117ccc     H5 2205   1.683   7.515   4.036  0.3403 -3.1944  2.9586
  117ccc     H6 2206   1.525   7.482   4.117  0.0569  0.2766 -0.1844
  117ccc     H7 2207   1.555   7.551   3.822 -0.5993 -2.9316  0.4285
  117ccc     H8 2208   1.408   7.516   3.902 -0.8825  1.8463 -0.0473
  117ccc     N2 2209   1.471   7.710   3.952  0.2017 -0.2508 -0.3736
  117ccc     H9 2210   1.424   7.759   3.875  0.3933  0.0122 -0.3272
  117ccc    H10 2211   1.410   7.715   4.035 -0.2343  2.2756 -0.7639
  117ccc    H11 2212   1.552   7.771   3.969 -1.9123  2.1076  2.2806
  118ccc     N1 2213   1.629   6.840   5.298 -0.3688  0.1137  0.1190
  118ccc     H4 2214   1.721   6.848   5.259 -1.6569  0.6228 -3.1110
  118ccc     C3 2215   1.569   6.963   5.354 -0.0007  0.2567  0.3582
  118ccc     C4 2216   1.661   7.087   5.357 -0.1742  0.6054  0.7427
  118ccc     H5 2217   1.529   6.949   5.455 -1.2222  2.0025  0.1569
  118ccc     H6 2218   1.478   6.979   5.295  0.0266 -1.8383 -0.3545
  118ccc     H7 2219   1.611   7.161   5.420  0.6267  0.8268  1.1297
  118ccc     H8 2220   1.759   7.056   5.393 -1.2555 -4.8002 -0.1285
  118ccc     N2 2221   1.691   7.163   5.230 -0.0586  0.4864 -0.7709
  118ccc     H9 2222   1.769   7.228   5.246 -0.8634  1.4955 -0.8075
  118ccc    H10 2223   1.712   7.099   5.152  2.0193 -0.6824  0.6661
  118ccc    H11 2224   1.613   7.227   5.208  0.0131  1.0468  0.5224
  119ccc     N1 2225   1.617   6.401   4.718  0.3164  0.4727 -0.2836
  119ccc     H4 2226   1.661   6.314   4.743 -0.1899  0.1801 -0.3900
  119ccc     C3 2227   1.674   6.465   4.593  0.0610  0.5733  0.0139
  119ccc     C4 2228   1.596   6.419   4.465 -0.1204 -0.3457  0.2938
  119ccc     H5 2229   1.778   6.433   4.580 -0.0967  0.7948 -1.9785
  119ccc     H6 2230   1.674   6.575   4.598  0.0847  0.5645  0.2368
  119ccc     H7 2231   1.489   6.436   4.482 -0.4690  0.6360 -2.3832
  119ccc     H8 2232   1.629   6.486   4.385  1.3600 -0.6395  0.6327
  119ccc     N2 2233   1.636   6.284   4.415 -0.3393  0.6205  0.0820
  119ccc     H9 2234   1.579   6.264   4.331  1.3948 -1.8360 -0.5928
  119ccc    H10 2235   1.737   6.281   4.397 -0.5679 -2.1216 -1.2102
  119ccc    H11 2236   1.607   6.210   4.480  0.7911 -0.9436 -1.1178
  120ccc     N1 2237   3.430   6.685   4.824  0.0067  0.2988 -0.4271
  120ccc     H4 2238   3.379   6.663   4.739 -0.5804 -0.1960  0.0380
  120ccc     C3 2239   3.461   6.825   4.844  0.7144 -0.4696 -0.7315
  120ccc     C4 2240   3.503   6.902   4.716  0.1359 -0.2526  0.1414
  120ccc     H5 2241   3.527   6.848   4.928 -0.8682 -1.0659  0.7329
  120ccc     H6 2242   3.372   6.877   4.881  1.7171  0.9492 -0.2098
  120ccc     H7 2243   3.425   6.912   4.641 -1.4818 -0.5941  1.7245
  120ccc     H8 2244   3.520   7.007   4.740 -3.4771  0.8634 -1.4697
  120ccc     N2 2245   3.623   6.843   4.643 -0.3664 -0.1903 -0.4538
  120ccc     H9 2246   3.653   6.924   4.586 -3.6737  0.1575 -1.9153
  120ccc    H10 2247   3.700   6.815   4.706  0.7260  0.4267 -1.4629
  120ccc    H11 2248   3.597   6.767   4.579 -2.8283  1.3868 -1.4961
  121ccc     N1 2249   3.399   6.004   4.554  0.5745  0.1970  0.1036
  121ccc     H4 2250   3.419   6.096   4.515  2.8121 -0.2377  0.1190
  121ccc     C3 2251   3.375   5.886   4.469 -0.0166  0.4076 -0.0007
  121ccc     C4 2252   3.410   5.915   4.322 -0.7368 -0.0428  0.6780
  121ccc     H5 2253   3.269   5.860   4.461  0.4714 -3.0470  2.1353
  121ccc     H6 2254   3.432   5.804   4.515 -0.8473  1.2913  2.7776
  121ccc     H7 2255   3.374   5.833   4.261  0.6101 -1.8846  2.2462
  121ccc     H8 2256   3.362   6.010   4.298 -4.1313 -1.0610  2.6871
  121ccc     N2 2257   3.565   5.933   4.308  0.1413 -0.6159  0.0308
  121ccc     H9 2258   3.623   5.878   4.373 -0.2752 -0.2646  0.7207
  121ccc    H10 2259   3.596   5.904   4.214  0.7198  0.9704 -0.3163
  121ccc    H11 2260   3.590   6.032   4.322  1.1975 -0.8411 -0.1978
  122ccc     N1 2261   2.392   6.826   4.425  0.3310  0.1049 -0.1618
  122ccc     H4 2262   2.372   6.799   4.329  0.0992  0.5735 -0.2500
  122ccc     C3 2263   2.386   6.973   4.461 -0.2076 -0.2258  1.0382
  122ccc     C4 2264   2.536   7.028   4.478 -0.1683  0.1057  0.3101
  122ccc     H5 2265   2.328   6.984   4.553 -1.1277  2.0982  0.2537
  122ccc     H6 2266   2.332   7.035   4.388  0.3801  2.3291  2.6379
  122ccc     H7 2267   2.580   7.004   4.575  0.8887 -0.6267 -0.3233
  122ccc     H8 2268   2.606   6.995   4.401  0.6086  1.4155  0.4284
  122ccc     N2 2269   2.538   7.185   4.477  0.3209 -0.3014  0.1145
  122ccc     H9 2270   2.488   7.234   4.402 -0.9557  1.5995  2.0726
  122ccc    H10 2271   2.482   7.228   4.552 -0.7753 -1.9421  0.2967
  122ccc    H11 2272   2.635   7.218   4.482  1.0545 -2.1946 -0.4780
  123ccc     N1 2273   2.675   6.062   4.253 -0.4883 -0.6775  0.0909
  123ccc     H4 2274   2.587   6.018   4.232  0.0588 -0.7673 -2.2824
  123ccc     C3 2275   2.797   6.027   4.180  0.2518  0.3415 -0.0433
  123ccc     C4 2276   2.777   5.988   4.033 -0.1482 -0.6119  0.0567
  123ccc     H5 2277   2.852   5.954   4.241 -2.1164 -1.4789  0.0853
  123ccc     H6 2278   2.869   6.110   4.180  2.1655 -1.2554 -0.2732
  123ccc     H7 2279   2.866   5.947   3.986  0.0179 -0.9152  0.6249
  123ccc     H8 2280   2.707   5.904   4.035  1.9630 -2.4604  0.2644
  123ccc     N2 2281   2.731   6.108   3.952  0.8925 -0.5245 -0.1707
  123ccc     H9 2282   2.806   6.179   3.946  0.2640  0.5264  2.7526
  123ccc    H10 2283   2.713   6.080   3.854  0.8527 -0.7582 -0.0961
  123ccc    H11 2284   2.653   6.162   3.994  1.8088 -0.2742  1.2485
  124ccc     N1 2285   2.080   6.327   3.090  0.3574  0.6567 -0.1882
  124ccc     H4 2286   2.094   6.413   3.039  2.5871 -0.3134 -1.3692
  124ccc     C3 2287   2.099   6.210   3.002  0.4882 -0.0188 -0.2372
  124ccc     C4 2288   2.216   6.223   2.903 -0.2656  0.3394  0.2820
  124ccc     H5 2289   2.001   6.193   2.956  1.3824 -1.5879 -1.6689
  124ccc     H6 2290   2.109   6.121   3.066 -2.5977  0.4153  1.0664
  124ccc     H7 2291   2.230   6.130   2.847  0.0440  1.3231 -1.3706
  124ccc     H8 2292   2.191   6.305   2.835  1.5233  0.7205  0.0460
  124ccc     N2 2293   2.353   6.252   2.975  0.2141  0.3106  0.7768
  124ccc     H9 2294   2.439   6.255   2.918 -0.6253  0.6529 -0.5324
  124ccc    H10 2295   2.347   6.343   3.024  0.5726  0.8811 -0.2071
  124ccc    H11 2296   2.349   6.183   3.051 -0.4261 -1.0418 -0.4225
  125ccc     N1 2297   2.044   7.055   3.185 -0.0150 -0.4143 -0.2679
  125ccc     H4 2298   1.947   7.076   3.167  0.1505  0.9340  0.3147
  125ccc     C3 2299   2.149   7.156   3.152  0.2146 -0.7110 -0.0553
  125ccc     C4 2300   2.148   7.270   3.256 -0.1439 -1.0308  0.0701
  125ccc     H5 2301   2.150   7.184   3.046  0.4136  1.8821  0.5626
  125ccc     H6 2302   2.245   7.104   3.163 -0.5450 -1.5508  4.3831
  125ccc     H7 2303   2.176   7.236   3.356 -2.3129  0.6476  1.3306
  125ccc     H8 2304   2.234   7.330   3.228 -0.7793  0.8070  1.8363
  125ccc     N2 2305   2.025   7.357   3.277 -0.2723 -0.2736  0.5980
  125ccc     H9 2306   1.978   7.370   3.186 -0.8405  0.0846  0.9387
  125ccc    H10 2307   1.967   7.298   3.338 -1.5431 -0.7336 -0.9912
  125ccc    H11 2308   2.048   7.447   3.320  2.1969 -0.3485 -0.4002
  126SOL     OW 2309   1.434   2.360   1.646 -0.2060  0.6893  0.3287
  126SOL    HW1 2310   1.530   2.354   1.647 -0.2925 -2.9137  1.0277
  126SOL    HW2 2311   1.408   2.340   1.736 -1.6077 -1.2857 -0.4264
  127SOL     OW 2312   4.681   7.305   6.066 -0.2961  0.2650  0.0026
  127SOL    HW1 2313   4.741   7.374   6.038  2.8834 -1.4386  2.0729
  127SOL    HW2 2314   4.649   7.334   6.151 -0.3874  0.0237  0.0520
  128SOL     OW 2315   8.005   5.810   2.466 -0.5627  0.3759  0.2463
  128SOL    HW1 2316   7.972   5.835   2.380  0.0362 -2.1771 -0.8358
  128SOL    HW2 2317   7.928   5.808   2.522 -1.4642 -0.5979 -0.9690
  129SOL     OW 2318   8.375   7.199   3.735 -0.0864 -0.7265 -0.5217
  129SOL    HW1 2319   8.294   7.190   3.685  0.1185 -1.5846 -0.7235
  129SOL    HW2 2320   8.373   7.288   3.769  0.1670  0.2244 -2.7777
  130SOL     OW 2321   7.856   7.271   1.167  0.3459 -0.1372 -0.0082
  130SOL    HW1 2322   7.868   7.185   1.207  0.5513 -0.5588 -0.9501
  130SOL    HW2 2323   7.932   7.322   1.197 -0.4633  0.1707  1.6441
  131SOL     OW 2324   7.294   3.829   6.445  0.0494 -0.0434 -0.4139
  131SOL    HW1 2325   7.256   3.778   6.516 -0.9015  0.0164 -0.8593
  131SOL    HW2 2326   7.220   3.847   6.387  0.8786 -0.4125 -1.6139
  132SOL     OW 2327   0.103   2.402   5.998 -0.2373 -0.1419  0.0105
  132SOL    HW1 2328   0.119   2.340   6.069  0.9509 -0.9952 -0.9663
  132SOL    HW2 2329   0.091   2.348   5.920  1.0872  0.8351 -0.9270
  133SOL     OW 2330   6.999   4.798   3.810 -0.5997 -0.3488  0.0613
  133SOL    HW1 2331   7.010   4.729   3.876 -0.6559 -0.0979  0.3345
  133SOL    HW2 2332   6.941   4.862   3.851  0.7792  0.6872  0.4746
  134SOL     OW 2333   1.345   1.755   3.355 -0.4246  0.0261  0.1273
  134SOL    HW1 2334   1.374   1.776   3.444 -1.3270 -0.1906  0.4787
  134SOL    HW2 2335   1.335   1.840   3.313  1.8035  0.1088 -0.3888
  135SOL     OW 2336   7.055   7.779   8.225 -0.1119 -0.1230 -0.7145
  135SOL    HW1 2337   7.121   7.746   8.164  0.7738  2.0955 -1.0150
  135SOL    HW2 2338   6.989   7.820   8.169 -1.9201 -2.3820 -0.4314
  136SOL     OW 2339   7.679   7.168   2.446  0.1504  0.5711  0.1861
  136SOL    HW1 2340   7.747   7.188   2.509  1.7506 -0.9176 -0.9469
  136SOL    HW2 2341   7.681   7.241   2.384 -0.1101  1.1026  0.7945
  137SOL     OW 2342   6.991   0.674   0.616 -0.0069  0.1455  1.1828
  137SOL    HW1 2343   6.928   0.626   0.563 -1.1595  0.4207  2.2438
  137SOL    HW2 2344   7.024   0.743   0.559  1.5236 -1.7113 -0.3041
  138SOL     OW 2345   8.204   3.463   5.510 -0.0140 -0.1735  0.2723
  138SOL    HW1 2346   8.217   3.545   5.556  1.6050 -0.9532  1.2916
  138SOL    HW2 2347   8.290   3.442   5.472 -0.8929 -0.3775 -1.7774
  139SOL     OW 2348   7.017   4.183   2.661  0.3848 -0.1336 -0.1516
  139SOL    HW1 2349   7.097   4.136   2.685  0.9738  0.8392 -0.1244
  139SOL    HW2 2350   7.018   4.183   2.565  0.1976 -0.4765 -0.1545
  140SOL     OW 2351   6.751   8.646   2.955  0.1172 -0.4706 -0.4118
  140SOL    HW1 2352   6.809   8.718   2.931 -1.3461  0.7338 -0.5372
  140SOL    HW2 2353   6.663   8.678   2.933 -0.6225 -2.1164 -0.0076
  141SOL     OW 2354   3.199   5.564   2.088 -0.5241 -0.5172  0.4717
  141SOL    HW1 2355   3.120   5.584   2.038 -1.0079  0.5048  1.5816
  141SOL    HW2 2356   3.174   5.489   2.143 -0.3416 -0.9394 -0.0158
  142SOL     OW 2357   2.241   2.211   1.334  0.0123 -0.2054  0.6605
  142SOL    HW1 2358   2.330   2.188   1.310 -0.1039 -0.4531  0.4681
  142SOL    HW2 2359   2.191   2.204   1.253 -0.3802 -1.0655  0.9686
  143SOL     OW 2360   5.934   1.144   5.982  0.8330  0.6525 -0.3936
  143SOL    HW1 2361   6.003   1.197   6.023 -0.7044  1.7428  0.9423
  143SOL    HW2 2362   5.856   1.199   5.988 -0.6508 -1.4134  0.2182
  144SOL     OW 2363   4.141   7.781   4.464  0.3804 -0.2845  0.1384
  144SOL    HW1 2364   4.113   7.702   4.509  1.7239 -1.3369 -0.7755
  144SOL    HW2 2365   4.227   7.802   4.503  0.0335  0.7528  0.3893
  145SOL     OW 2366   8.344   2.236   3.983  0.1925 -0.9880  0.1277
  145SOL    HW1 2367   8.344   2.185   3.902 -0.5142  0.1125 -0.6023
  145SOL    HW2 2368   8.403   2.309   3.966 -0.1512 -0.6121  0.5188
  146SOL     OW 2369   6.402   7.560   5.488 -0.2500  0.1934 -0.4242
  146SOL    HW1 2370   6.374   7.647   5.459  0.9436  1.2324  1.3769
  146SOL    HW2 2371   6.438   7.573   5.575 -0.8239 -2.2749  0.2785
  147SOL     OW 2372   4.690   2.036   2.450 -0.1842 -0.0517  0.2533
  147SOL    HW1 2373   4.743   1.963   2.419 -0.0222 -1.0220  2.6041
  147SOL    HW2 2374   4.603   1.999   2.464 -1.4074  1.3394 -2.7831
  148SOL     OW 2375   8.045   4.238   7.377 -0.3544 -0.1468  0.2287
  148SOL    HW1 2376   8.034   4.172   7.445 -0.7543  0.1034  0.4077
  148SOL    HW2 2377   8.053   4.321   7.424  2.6335 -0.2851  0.1777
  149SOL     OW 2378   0.747   4.345   1.517  0.3290 -0.1212  0.0278
  149SOL    HW1 2379   0.787   4.326   1.602  2.2227 -0.1719 -0.8474
  149SOL    HW2 2380   0.807   4.406   1.475  1.5333 -2.9965 -2.8562
  150SOL     OW 2381   4.478   4.925   3.766 -0.1569 -0.3047  0.6196
  150SOL    HW1 2382   4.523   4.951   3.685 -2.3628 -0.5258 -0.7359
  150SOL    HW2 2383   4.539   4.865   3.808  3.1893  3.3177  1.6316
  151SOL     OW 2384   7.806   7.697   6.556 -0.2357 -1.1893 -0.4533
  151SOL    HW1 2385   7.783   7.774   6.607  0.2247  0.0043 -1.9395
  151SOL    HW2 2386   7.769   7.624   6.604  0.3758 -0.1880  1.6855
  152SOL     OW 2387   5.560   8.630   8.696 -0.2685  0.4921 -0.1202
  152SOL    HW1 2388   5.587   8.710   8.741 -0.1506  1.6300 -2.0897
  152SOL    HW2 2389   5.469   8.618   8.722  0.0354  0.6102  1.0664
  153SOL     OW 2390   1.893   3.863   5.606  0.0864 -0.1257 -0.1587
  153SOL    HW1 2391   1.831   3.820   5.664 -0.3663  1.6182  0.7086
  153SOL    HW2 2392   1.862   3.953   5.600  0.3790 -0.1248 -2.7670
  154SOL     OW 2393   7.712   6.088   3.771 -0.2575  0.0196 -0.3027
  154SOL    HW1 2394   7.646   6.128   3.827  1.7199 -0.0194  2.2081
  154SOL    HW2 2395   7.710   5.995   3.794  1.1014  0.1273  0.3014
  155SOL     OW 2396   6.104   6.062   1.429  0.3939 -0.4475  0.0710
  155SOL    HW1 2397   6.078   6.105   1.347 -1.7830  0.4263  1.1250
  155SOL    HW2 2398   6.075   6.123   1.497  1.2288 -1.6320  1.5326
  156SOL     OW 2399   2.129   3.014   2.513 -0.3584  0.1960  0.1010
  156SOL    HW1 2400   2.208   3.048   2.471 -0.3922  0.7330  0.4489
  156SOL    HW2 2401   2.106   2.936   2.463 -0.0715  0.4954 -0.5162
  157SOL     OW 2402   5.485   2.833   5.823 -0.3538 -0.3207 -0.0942
  157SOL    HW1 2403   5.567   2.796   5.856 -0.3848  0.0968  0.4644
  157SOL    HW2 2404   5.428   2.836   5.900 -1.2722 -1.5969 -0.6726
  158SOL     OW 2405   5.939   2.806   5.428  0.3159  0.2240  0.2601
  158SOL    HW1 2406   5.972   2.739   5.368 -1.5239 -0.6280  0.1421
  158SOL    HW2 2407   5.995   2.798   5.505  1.6044  0.1628 -0.6395
  159SOL     OW 2408   6.691   4.165   1.608  0.1201 -0.5010 -0.1075
  159SOL    HW1 2409   6.766   4.106   1.606  0.7906  0.3476 -0.9319
  159SOL    HW2 2410   6.671   4.183   1.516  0.7664  1.5573  0.0931
  160SOL     OW 2411   5.218   3.202   3.676  0.1937  0.5160  0.3020
  160SOL    HW1 2412   5.144   3.210   3.616  1.2068  1.5778 -0.8733
  160SOL    HW2 2413   5.178   3.196   3.763 -1.2551  1.4166 -0.2678
  161SOL     OW 2414   3.708   2.254   0.086 -0.0173 -0.3865  0.3180
  161SOL    HW1 2415   3.729   2.178   0.032 -0.4675 -0.8595  0.7851
  161SOL    HW2 2416   3.632   2.225   0.138 -0.8931  0.7510 -0.2817
  162SOL     OW 2417   0.529   4.745   1.483 -0.0684  0.1450  0.4644
  162SOL    HW1 2418   0.568   4.669   1.440 -0.4346 -0.1010  0.5518
  162SOL    HW2 2419   0.461   4.774   1.422 -1.6399 -1.1403  1.4897
  163SOL     OW 2420   2.413   7.380   8.607  0.2472 -0.5065  0.6055
  163SOL    HW1 2421   2.331   7.428   8.595  0.1513 -0.4773  1.3663
  163SOL    HW2 2422   2.423   7.371   8.701  2.0038  0.9985  0.6155
  164SOL     OW 2423   7.810   8.509   8.018  0.2602  0.3204  0.2425
  164SOL    HW1 2424   7.873   8.573   7.983 -1.1099  1.4505 -0.2475
  164SOL    HW2 2425   7.758   8.558   8.081 -0.4827 -0.4451  0.2434
  165SOL     OW 2426   6.180   6.790   6.251  0.1191 -0.0202 -0.0648
  165SOL    HW1 2427   6.214   6.806   6.163  0.6456  0.3553  0.1980
  165SOL    HW2 2428   6.176   6.695   6.259 -2.0281 -0.0889 -1.2777
  166SOL     OW 2429   8.707   0.329   8.579 -0.5336  0.2890  0.2237
  166SOL    HW1 2430   8.783   0.387   8.582 -0.5172  0.2371  0.8620
  166SOL    HW2 2431   8.673   0.329   8.668 -1.2950  0.3279 -0.0617
  167SOL     OW 2432   1.256   1.476   2.111  0.2050  0.0750 -0.5546
  167SOL    HW1 2433   1.253   1.526   2.030  0.6936 -0.6030 -1.0028
  167SOL    HW2 2434   1.195   1.521   2.170  0.9074  1.3977 -0.8104
  168SOL     OW 2435   6.832   4.758   5.702  0.1804  0.0598 -0.1904
  168SOL    HW1 2436   6.748   4.712   5.690 -0.6346  0.8957  1.8534
  168SOL    HW2 2437   6.855   4.741   5.793  3.3571 -1.8451 -1.1913
  169SOL     OW 2438   6.972   1.593   4.603 -0.2594 -0.2583  0.1746
  169SOL    HW1 2439   6.925   1.540   4.539  0.2019 -3.1307  2.0415
  169SOL    HW2 2440   6.903   1.642   4.649 -0.6984  0.8226 -1.5503
  170SOL     OW 2441   3.544   6.297   3.354  0.1187  0.4970  0.3795
  170SOL    HW1 2442   3.462   6.297   3.304  0.5679  0.9144 -0.3648
  170SOL    HW2 2443   3.531   6.229   3.420 -1.7208  2.1164  1.7906
  171SOL     OW 2444   6.102   7.488   3.678 -0.3999 -0.0521  0.0421
  171SOL    HW1 2445   6.124   7.559   3.738 -2.5889 -1.7344  3.1114
  171SOL    HW2 2446   6.169   7.422   3.695 -0.5002 -0.1740 -0.0369
  172SOL     OW 2447   5.390   2.163   3.202 -0.2535 -0.8042 -0.1013
  172SOL    HW1 2448   5.369   2.138   3.292  0.9553 -0.6138  0.2612
  172SOL    HW2 2449   5.390   2.081   3.154  2.3092 -1.4292  0.7853
  173SOL     OW 2450   1.851   0.234   8.226  0.6026  0.0129 -0.5465
  173SOL    HW1 2451   1.841   0.266   8.316 -0.1294 -0.3084 -0.5050
  173SOL    HW2 2452   1.761   0.217   8.197  0.9376 -1.6753 -0.6852
  174SOL     OW 2453   5.088   7.136   8.272  0.7517  0.2465  0.0491
  174SOL    HW1 2454   5.064   7.225   8.244  1.5418  1.1262  1.9701
  174SOL    HW2 2455   5.180   7.144   8.297  0.6390 -0.9303  0.9124
  175SOL     OW 2456   4.208   7.153   5.869  0.3191  0.2983  0.1521
  175SOL    HW1 2457   4.114   7.168   5.884 -0.0457 -0.3364 -1.2820
  175SOL    HW2 2458   4.251   7.225   5.914 -0.7799  0.0536  1.7153
  176SOL     OW 2459   0.784   8.236   2.104  0.2875  0.4585 -0.1529
  176SOL    HW1 2460   0.746   8.187   2.177 -0.7064  3.1441  1.2639
  176SOL    HW2 2461   0.877   8.243   2.125  0.0899  0.8116  0.6336
  177SOL     OW 2462   3.077   2.650   4.885 -0.1573 -0.0865 -0.5399
  177SOL    HW1 2463   3.156   2.698   4.859  0.8738 -0.9697  0.8789
  177SOL    HW2 2464   3.075   2.575   4.826 -0.1521  0.1191 -0.8093
  178SOL     OW 2465   0.849   1.348   5.723 -0.4838  0.1407  0.2232
  178SOL    HW1 2466   0.861   1.360   5.817  1.0450  1.6497 -0.1065
  178SOL    HW2 2467   0.938   1.337   5.689 -0.9998 -0.1756 -1.0853
  179SOL     OW 2468   1.096   0.193   5.266  0.0175 -0.5152 -0.0834
  179SOL    HW1 2469   1.004   0.217   5.279  0.6570  3.5496 -1.4807
  179SOL    HW2 2470   1.103   0.182   5.171  0.9388 -0.9849  0.0369
  180SOL     OW 2471   5.582   8.587   3.661  0.5293 -0.5998 -0.3007
  180SOL    HW1 2472   5.623   8.557   3.580  1.5965  2.7904 -1.1838
  180SOL    HW2 2473   5.499   8.625   3.633  0.5321 -0.1471  0.2811
  181SOL     OW 2474   5.772   4.501   6.906  0.1315  0.0163 -0.1923
  181SOL    HW1 2475   5.700   4.440   6.920  0.7641 -1.1100 -1.6922
  181SOL    HW2 2476   5.730   4.584   6.884 -0.7085 -0.5725 -0.8205
  182SOL     OW 2477   0.582   7.291   7.844  0.7810 -0.2713 -0.1299
  182SOL    HW1 2478   0.671   7.261   7.825  0.5152 -0.0154 -1.9748
  182SOL    HW2 2479   0.526   7.216   7.823  0.5361 -0.4179  0.9798
  183SOL     OW 2480   2.184   0.533   1.651 -0.1347  0.3103 -0.1205
  183SOL    HW1 2481   2.190   0.628   1.660 -0.7310  0.1862  2.0945
  183SOL    HW2 2482   2.102   0.510   1.695 -0.5049 -1.1529 -1.4759
  184SOL     OW 2483   5.321   0.689   4.575  0.3094  0.4336  0.0896
  184SOL    HW1 2484   5.370   0.769   4.556  0.8499 -0.0776 -0.7419
  184SOL    HW2 2485   5.378   0.618   4.545 -1.1830 -0.1614 -1.5276
  185SOL     OW 2486   8.079   1.423   5.203 -0.0109  0.9766  0.6042
  185SOL    HW1 2487   8.031   1.371   5.268 -1.9951  0.1112 -1.4481
  185SOL    HW2 2488   8.140   1.475   5.256  0.4876 -1.7058  2.9494
  186SOL     OW 2489   7.840   1.018   1.602  0.6507  0.2065 -0.3907
  186SOL    HW1 2490   7.852   0.923   1.610 -1.7601 -0.5153 -3.4341
  186SOL    HW2 2491   7.895   1.043   1.528 -0.8196  0.6289 -1.3704
  187SOL     OW 2492   8.289   2.344   2.096  0.4061  0.7939 -0.1550
  187SOL    HW1 2493   8.295   2.409   2.025  0.2942  1.2929  0.2850
  187SOL    HW2 2494   8.274   2.396   2.175  1.5786  0.3318  0.4044
  188SOL     OW 2495   5.250   3.906   5.409 -0.3516  0.4743  0.1004
  188SOL    HW1 2496   5.266   3.972   5.340  0.3252 -1.1807 -1.4030
  188SOL    HW2 2497   5.167   3.865   5.384 -1.8802  2.0815  2.1922
  189SOL     OW 2498   5.310   1.684   7.188  0.3857  0.3471 -0.5431
  189SOL    HW1 2499   5.361   1.725   7.257 -0.7778  0.3977  0.3165
  189SOL    HW2 2500   5.218   1.696   7.215 -0.0573 -0.5209 -1.5777
  190SOL     OW 2501   2.703   1.219   4.200  0.2975  0.1493  0.6784
  190SOL    HW1 2502   2.785   1.190   4.241  1.5668  1.6342 -0.6725
  190SOL    HW2 2503   2.719   1.310   4.176 -1.6608  0.3815  0.0959
  191SOL     OW 2504   1.581   7.120   0.998 -0.3362  0.1689 -0.0724
  191SOL    HW1 2505   1.636   7.190   1.032  0.1690 -0.5482  0.6187
  191SOL    HW2 2506   1.615   7.040   1.038 -1.0671 -0.4497 -0.6350
  192SOL     OW 2507   4.244   8.402   8.295 -0.0191 -0.6481 -0.4141
  192SOL    HW1 2508   4.308   8.398   8.225  0.4452 -1.1307  0.0279
  192SOL    HW2 2509   4.178   8.336   8.272  1.4973 -2.7558  0.9000
  193SOL     OW 2510   7.427   3.542   2.271 -0.2457  0.2599 -0.6540
  193SOL    HW1 2511   7.501   3.510   2.219 -0.6736 -0.9277 -0.5773
  193SOL    HW2 2512   7.466   3.599   2.336  0.3437  1.5011 -2.0499
  194SOL     OW 2513   2.692   3.296   2.161  0.0159 -0.0361 -0.0359
  194SOL    HW1 2514   2.774   3.275   2.206  0.4627  0.5450 -0.5552
  194SOL    HW2 2515   2.650   3.212   2.146  1.0877 -0.4439 -0.8327
  195SOL     OW 2516   7.076   0.290   8.321 -0.1698  0.4991  0.1303
  195SOL    HW1 2517   7.148   0.296   8.384  0.8689  1.2254 -1.0756
  195SOL    HW2 2518   7.113   0.321   8.239 -1.1555 -1.4335 -1.1377
  196SOL     OW 2519   8.712   3.589   7.480  0.1138 -0.6039 -0.4000
  196SOL    HW1 2520   8.747   3.619   7.395  0.9891 -0.1209  0.1145
  196SOL    HW2 2521   8.686   3.498   7.464 -0.7594 -0.1926 -1.4734
  197SOL     OW 2522   3.912   7.665   5.686 -0.2789  0.1339 -0.1386
  197SOL    HW1 2523   3.951   7.752   5.671 -1.5843  0.7336 -0.1871
  197SOL    HW2 2524   3.910   7.625   5.599 -2.8122  1.4560 -0.8081
  198SOL     OW 2525   1.521   1.978   3.513  0.2542 -0.3954  0.0443
  198SOL    HW1 2526   1.582   2.037   3.557 -0.5094  0.6017 -0.1949
  198SOL    HW2 2527   1.575   1.930   3.450  0.9341 -0.1360  0.4212
  199SOL     OW 2528   5.242   2.745   2.950 -0.2791 -0.7283 -0.9835
  199SOL    HW1 2529   5.226   2.802   2.875  3.1460  0.8337 -0.7233
  199SOL    HW2 2530   5.155   2.711   2.974 -2.5648  4.0384 -1.4102
  200SOL     OW 2531   4.849   6.147   5.226  0.2858  0.0865  0.5046
  200SOL    HW1 2532   4.917   6.082   5.208  1.2173  0.3684  2.6130
  200SOL    HW2 2533   4.771   6.095   5.245 -0.3444 -0.2297 -2.4624
  201SOL     OW 2534   3.821   2.381   2.846 -0.0343 -0.1170 -0.0898
  201SOL    HW1 2535   3.835   2.462   2.798 -0.6319 -0.8671 -1.5892
  201SOL    HW2 2536   3.883   2.318   2.807  0.6910 -0.3162  1.3002
  202SOL     OW 2537   0.112   4.871   6.206  0.3314  0.3847  0.4701
  202SOL    HW1 2538   0.099   4.862   6.301  1.3255 -1.1984  0.4810
  202SOL    HW2 2539   0.199   4.836   6.190 -0.2012 -0.2567 -1.1753
  203SOL     OW 2540   3.383   0.208   8.142 -0.5341  0.3510 -0.5738
  203SOL    HW1 2541   3.456   0.266   8.122 -0.6658  1.0632  0.9031
  203SOL    HW2 2542   3.337   0.250   8.215 -1.6330 -0.7557 -0.5840
  204SOL     OW 2543   5.151   3.616   0.841  0.3913 -0.1011 -0.1515
  204SOL    HW1 2544   5.146   3.667   0.922  2.2914  2.5293 -1.5231
  204SOL    HW2 2545   5.213   3.547   0.860 -2.3270 -2.2229  1.7997
  205SOL     OW 2546   6.775   7.571   6.821 -0.9880 -0.1262  0.1121
  205SOL    HW1 2547   6.745   7.637   6.759  1.1125  1.8515  1.0317
  205SOL    HW2 2548   6.823   7.507   6.768 -1.3139  0.1809 -0.5584
  206SOL     OW 2549   0.863   0.938   5.709 -0.4847  0.0817 -0.0219
  206SOL    HW1 2550   0.935   1.000   5.722 -1.3398  1.1007  0.0130
  206SOL    HW2 2551   0.860   0.926   5.614 -0.6953  0.5761 -0.0823
  207SOL     OW 2552   2.709   1.531   7.757  0.3968 -0.4038  0.4213
  207SOL    HW1 2553   2.720   1.437   7.768  1.9432 -0.1472  1.2755
  207SOL    HW2 2554   2.797   1.564   7.740  0.2062  1.1408  2.1564
  208SOL     OW 2555   2.977   4.745   7.835 -0.6437 -0.5249 -0.4021
  208SOL    HW1 2556   2.959   4.766   7.927 -0.1444 -0.8524 -0.2279
  208SOL    HW2 2557   3.000   4.652   7.836 -0.4973 -0.4947 -0.8428
  209SOL     OW 2558   5.296   8.832   6.631  0.1293  0.6695  0.2327
  209SOL    HW1 2559   5.205   8.851   6.653 -1.3329 -3.2114 -1.5830
  209SOL    HW2 2560   5.333   8.795   6.711 -0.9839 -0.7615  0.1334
  210SOL     OW 2561   7.102   2.755   4.447 -0.6569  0.2297 -0.1153
  210SOL    HW1 2562   7.082   2.829   4.505 -1.9124 -0.9383  0.9871
  210SOL    HW2 2563   7.187   2.723   4.477 -1.2078 -0.2417  0.9517
  211SOL     OW 2564   5.706   7.132   4.798  0.3207  0.4719 -0.1454
  211SOL    HW1 2565   5.795   7.099   4.791 -0.6455 -1.9994 -3.2200
  211SOL    HW2 2566   5.707   7.215   4.751  0.7753 -0.2659 -1.4968
  212SOL     OW 2567   4.251   3.057   4.523  0.8721  0.4185 -0.1843
  212SOL    HW1 2568   4.156   3.061   4.513  0.8357  0.3689  0.1245
  212SOL    HW2 2569   4.281   3.006   4.448  0.6822  0.6551 -0.4246
  213SOL     OW 2570   1.310   4.158   1.837  0.2022 -0.0527  0.7867
  213SOL    HW1 2571   1.337   4.246   1.861 -0.3793  0.4928 -0.4661
  213SOL    HW2 2572   1.250   4.131   1.906 -0.1831  0.8307  0.8029
  214SOL     OW 2573   2.683   4.938   2.112  0.4502  0.0554  0.5936
  214SOL    HW1 2574   2.658   4.936   2.020  0.7049 -0.9015  0.5309
  214SOL    HW2 2575   2.616   4.887   2.156  1.1762 -0.8328  0.7040
  215SOL     OW 2576   2.962   2.291   0.809  0.4372 -0.6898  0.0524
  215SOL    HW1 2577   2.893   2.252   0.863  0.6169 -1.6062 -0.3662
  215SOL    HW2 2578   3.023   2.328   0.872 -1.3312  1.8296  0.4392
  216SOL     OW 2579   5.840   6.476   6.800  0.4260  0.1204  0.2267
  216SOL    HW1 2580   5.805   6.447   6.885  0.6815 -0.0545  0.2725
  216SOL    HW2 2581   5.836   6.572   6.805 -1.9636  0.1435 -0.5642
  217SOL     OW 2582   3.255   3.418   5.132 -0.2391  0.4197  0.6034
  217SOL    HW1 2583   3.301   3.337   5.153 -0.2126  0.4645  0.7142
  217SOL    HW2 2584   3.310   3.460   5.066 -0.1817  0.4157  0.6490
  218SOL     OW 2585   3.854   0.905   5.361  0.2553  0.3233 -0.0786
  218SOL    HW1 2586   3.902   0.902   5.444  0.7113  2.0296 -0.2357
  218SOL    HW2 2587   3.765   0.879   5.383  1.3259 -4.1051  0.0371
  219SOL     OW 2588   2.369   1.400   3.174 -0.1554  0.2657 -0.0716
  219SOL    HW1 2589   2.348   1.307   3.166 -1.1049  0.4506  0.1565
  219SOL    HW2 2590   2.463   1.405   3.154 -0.3559 -0.5626 -1.3770
  220SOL     OW 2591   5.213   8.247   4.577 -0.3060 -0.1344  0.4017
  220SOL    HW1 2592   5.260   8.231   4.495 -1.9485  0.7489 -0.7727
  220SOL    HW2 2593   5.254   8.325   4.613 -1.2959  1.1087 -1.0234
  221SOL     OW 2594   2.055   1.355   8.783  0.4541 -0.1511 -0.5966
  221SOL    HW1 2595   2.062   1.388   8.693  1.2284 -1.4280 -1.0378
  221SOL    HW2 2596   2.112   1.413   8.834 -1.4997  1.7943 -0.5269
  222SOL     OW 2597   4.580   8.412   3.626  0.0539  0.2117  0.1526
  222SOL    HW1 2598   4.583   8.445   3.716 -0.3884 -0.5973  0.4695
  222SOL    HW2 2599   4.496   8.368   3.620  1.4566 -2.7146  0.4199
  223SOL     OW 2600   3.957   0.613   3.398  0.0494  0.5362  0.4273
  223SOL    HW1 2601   3.879   0.606   3.453 -0.5344 -1.4552 -0.5612
  223SOL    HW2 2602   4.029   0.588   3.456 -0.4112 -0.4065  0.6034
  224SOL     OW 2603   3.562   6.430   8.055  0.0858 -0.2660 -0.6227
  224SOL    HW1 2604   3.610   6.440   7.973  2.1186  2.3679  0.7167
  224SOL    HW2 2605   3.548   6.520   8.086 -2.6299 -1.0738  0.8593
  225SOL     OW 2606   5.828   0.053   2.728  0.2964 -0.0332 -0.0921
  225SOL    HW1 2607   5.891   0.120   2.755 -1.3778  0.7103  2.3689
  225SOL    HW2 2608   5.743   0.093   2.744 -0.8322 -1.5714 -1.8081
  226SOL     OW 2609   8.117   4.615   8.104  0.2358  0.4989  0.0482
  226SOL    HW1 2610   8.118   4.520   8.091 -2.1824  0.2507  1.2357
  226SOL    HW2 2611   8.202   4.635   8.143  0.1389 -1.4323  1.3460
  227SOL     OW 2612   8.522   4.277   7.863  0.3065 -0.0682  0.9222
  227SOL    HW1 2613   8.484   4.219   7.797 -0.2386  0.9572  0.3100
  227SOL    HW2 2614   8.506   4.232   7.946 -1.2344 -0.2179  0.5819
  228SOL     OW 2615   5.264   4.498   5.533 -0.1011  0.2233 -0.5774
  228SOL    HW1 2616   5.278   4.404   5.535  0.7047  0.3340 -0.2046
  228SOL    HW2 2617   5.169   4.509   5.536 -0.1814 -0.5608  1.3123
  229SOL     OW 2618   0.918   4.093   4.490 -0.2677  0.5102  0.1876
  229SOL    HW1 2619   0.895   4.006   4.523 -2.5394  0.6271 -0.8452
  229SOL    HW2 2620   0.842   4.147   4.511  0.2746  1.7529 -0.9063
  230SOL     OW 2621   7.881   1.133   8.418 -0.0894  0.4092  0.0718
  230SOL    HW1 2622   7.854   1.210   8.469 -1.9681 -0.0040 -0.2321
  230SOL    HW2 2623   7.826   1.136   8.340 -0.0208 -1.1015 -0.0525
  231SOL     OW 2624   6.491   1.550   7.171  0.0249  0.2547  0.1297
  231SOL    HW1 2625   6.426   1.564   7.239  0.7252 -2.0006  1.3911
  231SOL    HW2 2626   6.509   1.637   7.135 -2.3340  1.1567  0.9443
  232SOL     OW 2627   3.077   0.938   1.526  0.4777  0.5207  0.2583
  232SOL    HW1 2628   3.131   1.003   1.482  0.2036  0.5153 -0.0850
  232SOL    HW2 2629   3.071   0.970   1.616  2.6903 -0.4945  0.8427
  233SOL     OW 2630   6.863   3.396   1.318 -0.6040  0.0641  0.3260
  233SOL    HW1 2631   6.856   3.466   1.383  0.9628  0.9747 -0.4033
  233SOL    HW2 2632   6.941   3.347   1.345 -1.3091 -1.0071  0.4495
  234SOL     OW 2633   2.454   5.728   7.309 -0.3115 -0.3652  0.1766
  234SOL    HW1 2634   2.407   5.688   7.236  0.4033 -0.3950 -0.2777
  234SOL    HW2 2635   2.531   5.673   7.321  1.3326  1.4963 -1.2593
  235SOL     OW 2636   7.686   4.837   3.025  0.5684  0.2942  0.3188
  235SOL    HW1 2637   7.736   4.777   2.970 -0.9987 -1.9744  1.2100
  235SOL    HW2 2638   7.598   4.835   2.989  0.2917  1.4602  0.8744
  236SOL     OW 2639   1.725   2.530   0.599  0.2987 -0.1303  0.6198
  236SOL    HW1 2640   1.632   2.521   0.580  0.1100 -0.6648  1.7208
  236SOL    HW2 2641   1.736   2.489   0.685  1.7848 -1.2233 -0.0571
  237SOL     OW 2642   2.383   7.114   0.613  0.3550 -0.0855  0.1582
  237SOL    HW1 2643   2.332   7.176   0.560  1.5798  0.5921 -0.2634
  237SOL    HW2 2644   2.379   7.032   0.564  0.1821  0.1239 -0.1804
  238SOL     OW 2645   7.169   1.653   3.291 -0.6816 -0.3330 -0.0407
  238SOL    HW1 2646   7.172   1.670   3.196 -0.4186 -0.8472 -0.1303
  238SOL    HW2 2647   7.211   1.568   3.301  0.0980  0.1106  0.6368
  239SOL     OW 2648   7.777   5.435   7.460  0.2727 -0.0466  0.0684
  239SOL    HW1 2649   7.796   5.405   7.549  1.3098  1.3888  0.3555
  239SOL    HW2 2650   7.681   5.439   7.456  0.1425 -1.9376  0.4767
  240SOL     OW 2651   5.931   0.613   0.334 -0.1518  0.0546  0.2462
  240SOL    HW1 2652   5.849   0.653   0.363 -1.1013 -2.1247  0.7846
  240SOL    HW2 2653   5.959   0.667   0.260 -2.0001  0.9287  0.1308
  241SOL     OW 2654   1.123   7.586   5.123 -0.0485  0.1053  0.0566
  241SOL    HW1 2655   1.106   7.672   5.086  1.0887  0.4693  0.3446
  241SOL    HW2 2656   1.040   7.539   5.113 -1.3774  1.9184  1.8067
  242SOL     OW 2657   3.402   7.327   7.050 -0.6229  0.4868 -0.0240
  242SOL    HW1 2658   3.441   7.414   7.055 -2.5272  1.3710  0.3704
  242SOL    HW2 2659   3.420   7.297   6.961  0.6341  0.9884  0.0528
  243SOL     OW 2660   2.453   0.207   1.464 -0.2024  0.2621  0.7553
  243SOL    HW1 2661   2.415   0.253   1.539 -0.1333 -0.8821  1.5323
  243SOL    HW2 2662   2.518   0.148   1.503  1.7709  1.5251 -0.4490
  244SOL     OW 2663   8.270   8.064   4.619 -0.0698  0.2165  0.5308
  244SOL    HW1 2664   8.344   8.094   4.568  0.1263  1.1179  1.3057
  244SOL    HW2 2665   8.194   8.104   4.578 -0.0210  0.1350  0.3601
  245SOL     OW 2666   1.233   2.510   2.683 -0.0531 -0.4183 -0.0677
  245SOL    HW1 2667   1.143   2.529   2.709 -0.1792 -1.0665 -0.0010
  245SOL    HW2 2668   1.268   2.593   2.652  0.2870  0.5256  2.6198
  246SOL     OW 2669   5.555   4.649   8.698 -0.2066 -0.2806  0.5695
  246SOL    HW1 2670   5.548   4.649   8.602 -0.5898  0.5315  0.5978
  246SOL    HW2 2671   5.646   4.674   8.714  0.0312 -1.0166  0.4114
  247SOL     OW 2672   8.836   7.903   5.807 -0.0529  0.2871  0.1903
  247SOL    HW1 2673   8.828   7.949   5.723 -1.0595 -2.6589 -1.4769
  247SOL    HW2 2674   8.780   7.952   5.867 -1.5261  0.9446 -1.6258
  248SOL     OW 2675   1.416   5.060   3.875 -0.3932 -0.3030 -0.3589
  248SOL    HW1 2676   1.396   4.975   3.913  1.2802 -0.5459  0.0379
  248SOL    HW2 2677   1.345   5.117   3.905  0.6975 -0.5210  3.0280
  249SOL     OW 2678   5.716   5.196   5.490 -0.1638  0.3357  0.6437
  249SOL    HW1 2679   5.676   5.219   5.574  1.4614 -0.0335  1.5479
  249SOL    HW2 2680   5.790   5.140   5.513 -0.5551 -0.9888 -1.1453
  250SOL     OW 2681   2.126   0.553   7.804  0.3721  0.4261  0.1967
  250SOL    HW1 2682   2.136   0.477   7.861 -0.5921  0.5135  0.4954
  250SOL    HW2 2683   2.081   0.619   7.859  2.2541  1.6690  0.3424
  251SOL     OW 2684   6.170   5.923   6.429 -0.5311 -0.1110 -0.1101
  251SOL    HW1 2685   6.169   5.928   6.334 -1.6904 -1.0591 -0.1710
  251SOL    HW2 2686   6.186   6.013   6.458  0.0184  0.1477 -1.1906
  252SOL     OW 2687   2.344   3.198   3.338  0.7661  0.4120  0.4360
  252SOL    HW1 2688   2.287   3.180   3.412 -1.0319  0.1158 -0.9504
  252SOL    HW2 2689   2.396   3.118   3.327 -1.5354 -1.0239 -0.7905
  253SOL     OW 2690   0.989   2.678   0.756 -0.3626 -0.4077  0.3419
  253SOL    HW1 2691   1.018   2.673   0.665  1.0982  0.9723  0.6768
  253SOL    HW2 2692   0.916   2.740   0.754 -1.8415 -2.0955 -0.1713
  254SOL     OW 2693   5.900   4.283   7.315 -0.5684 -0.2580 -0.3159
  254SOL    HW1 2694   5.913   4.350   7.248 -0.8045  0.1460  0.0314
  254SOL    HW2 2695   5.876   4.204   7.267  3.3042 -1.1747 -1.0507
  255SOL     OW 2696   2.039   6.545   8.561 -0.5754 -0.0397 -0.1330
  255SOL    HW1 2697   1.991   6.626   8.543 -1.3663 -0.6175 -0.6839
  255SOL    HW2 2698   1.973   6.486   8.597 -0.2770 -0.8431 -0.8666
  256SOL     OW 2699   2.469   6.917   2.194  0.5045  0.4521 -0.5124
  256SOL    HW1 2700   2.421   6.841   2.228  1.9916 -1.6885 -2.8350
  256SOL    HW2 2701   2.402   6.969   2.148 -0.3269 -0.1060  0.0256
  257SOL     OW 2702   6.932   6.033   6.787  0.3417  0.9191 -0.8090
  257SOL    HW1 2703   6.903   6.065   6.873  1.3328  2.2775 -0.9419
  257SOL    HW2 2704   6.865   5.970   6.761 -0.1746  0.7506  0.7952
  258SOL     OW 2705   7.165   3.207   2.578  0.1171  0.2099 -0.1916
  258SOL    HW1 2706   7.176   3.116   2.552  1.1069  0.4773 -0.7313
  258SOL    HW2 2707   7.216   3.257   2.514  1.7622  0.9690  1.6166
  259SOL     OW 2708   6.671   3.935   0.668  0.6810 -0.0787  0.6364
  259SOL    HW1 2709   6.637   4.011   0.621 -0.5789 -0.2832  1.1583
  259SOL    HW2 2710   6.749   3.967   0.712  0.9131  0.5580 -0.2024
  260SOL     OW 2711   7.839   1.112   1.311  0.1105  0.1573 -0.4458
  260SOL    HW1 2712   7.745   1.111   1.293  0.3528 -1.0366 -1.8590
  260SOL    HW2 2713   7.872   1.030   1.272  1.4652 -0.3266  1.5485
  261SOL     OW 2714   7.230   1.928   4.524  0.1845 -0.8598  0.0848
  261SOL    HW1 2715   7.256   1.838   4.504  3.8658  0.1300 -0.3186
  261SOL    HW2 2716   7.260   1.944   4.613 -1.4207 -0.2872  0.5740
  262SOL     OW 2717   0.841   6.513   4.706  0.1395  0.2021 -0.2588
  262SOL    HW1 2718   0.936   6.526   4.703  0.7441 -2.9826  0.5598
  262SOL    HW2 2719   0.823   6.456   4.631 -0.8351 -0.4505  0.4493
  263SOL     OW 2720   3.645   7.737   6.622  0.2959  0.1311  0.4324
  263SOL    HW1 2721   3.651   7.642   6.629  0.9789  0.1258 -0.0534
  263SOL    HW2 2722   3.602   7.765   6.702  0.4972 -0.5482  0.7832
  264SOL     OW 2723   2.537   8.844   3.372  0.0839  0.0418 -0.2503
  264SOL    HW1 2724   2.513   8.786   3.300  1.0782 -0.8052  0.0814
  264SOL    HW2 2725   2.601   8.904   3.334  0.9767 -0.7159  0.0353
  265SOL     OW 2726   7.953   6.621   6.792 -0.0896 -0.2431  0.5351
  265SOL    HW1 2727   7.861   6.617   6.768  0.1023 -1.2699 -0.0844
  265SOL    HW2 2728   7.953   6.624   6.888 -0.7484 -1.3900  0.5836
  266SOL     OW 2729   2.454   1.391   2.691 -0.1894  0.9593 -0.0454
  266SOL    HW1 2730   2.485   1.328   2.756 -0.0548  2.9416  1.9506
  266SOL    HW2 2731   2.378   1.348   2.651  2.4004 -2.2585 -2.0577
  267SOL     OW 2732   1.070   0.605   0.087 -0.1616  0.1095  0.0727
  267SOL    HW1 2733   1.101   0.675   0.029  2.5619 -1.4921 -0.5432
  267SOL    HW2 2734   1.119   0.618   0.169 -0.9330 -0.0799  0.5780
  268SOL     OW 2735   0.697   1.990   3.627  0.7329 -0.0386 -0.3672
  268SOL    HW1 2736   0.610   1.956   3.648  0.6450 -0.4521 -1.3560
  268SOL    HW2 2737   0.739   1.920   3.577  1.0227  0.7820 -1.3078
  269SOL     OW 2738   7.149   7.938   6.215 -0.2577  0.0601 -0.4716
  269SOL    HW1 2739   7.121   7.852   6.248  1.1081 -0.4871 -0.6969
  269SOL    HW2 2740   7.148   7.995   6.292  1.2823 -0.7987  0.2147
  270SOL     OW 2741   8.091   2.707   0.887  0.4054  0.6032 -0.2622
  270SOL    HW1 2742   8.163   2.769   0.883 -1.2411  2.5989 -1.3539
  270SOL    HW2 2743   8.107   2.647   0.814  1.9305 -0.1788  0.6897
  271SOL     OW 2744   4.530   3.470   0.147 -0.4844 -0.0881 -0.1135
  271SOL    HW1 2745   4.553   3.385   0.186  1.6413  1.2022  1.6973
  271SOL    HW2 2746   4.525   3.453   0.053  2.6342 -1.7629 -0.1124
  272SOL     OW 2747   0.665   7.955   4.523  0.1085 -0.0327 -0.1276
  272SOL    HW1 2748   0.649   7.968   4.617  0.9318  0.8655 -0.1010
  272SOL    HW2 2749   0.698   8.039   4.492  0.2359 -0.4412 -1.1521
  273SOL     OW 2750   8.005   6.396   4.131 -0.0046  0.0611  0.2050
  273SOL    HW1 2751   8.088   6.382   4.176 -0.2258 -1.3876  0.2136
  273SOL    HW2 2752   8.026   6.459   4.062  1.4362 -1.2496 -0.6396
  274SOL     OW 2753   5.074   3.601   6.003  0.0831  0.7060  0.1647
  274SOL    HW1 2754   5.032   3.519   6.029  1.1298  0.1796  0.2680
  274SOL    HW2 2755   5.017   3.637   5.935 -0.6432  0.1458  0.4624
  275SOL     OW 2756   7.887   4.635   0.701 -0.0587 -0.4330  0.0378
  275SOL    HW1 2757   7.866   4.583   0.624  4.2834 -0.5922 -1.3054
  275SOL    HW2 2758   7.866   4.725   0.676  2.4710 -0.2997 -2.0185
  276SOL     OW 2759   5.341   4.174   3.189  0.6832 -0.3646  0.0830
  276SOL    HW1 2760   5.392   4.095   3.210 -0.8232 -1.8596 -1.4873
  276SOL    HW2 2761   5.385   4.212   3.113  1.4674  0.4051  0.9006
  277SOL     OW 2762   2.912   8.421   0.067 -0.1290  0.0153 -0.2931
  277SOL    HW1 2763   2.883   8.417   0.158  1.1528  0.9325  0.1866
  277SOL    HW2 2764   2.857   8.487   0.026 -0.0696  0.2981  0.0796
  278SOL     OW 2765   2.897   3.088   1.338 -0.0381  0.3713  0.1525
  278SOL    HW1 2766   2.830   3.123   1.279  2.3068 -0.5955 -3.3961
  278SOL    HW2 2767   2.924   3.164   1.389 -1.2240  1.6485 -1.0067
  279SOL     OW 2768   1.762   7.063   5.661 -0.2014 -0.2018 -0.0415
  279SOL    HW1 2769   1.837   7.099   5.614  0.7699 -2.2751 -0.1631
  279SOL    HW2 2770   1.702   7.138   5.669  0.5737  0.8158 -2.5070
  280SOL     OW 2771   8.176   4.027   4.943  0.0021  0.3210  0.1869
  280SOL    HW1 2772   8.232   4.084   4.995 -0.1122  0.0689  0.5901
  280SOL    HW2 2773   8.214   3.940   4.955 -0.2763  0.2002  0.1841
  281SOL     OW 2774   8.049   7.826   1.830 -0.5625  0.3221 -0.2807
  281SOL    HW1 2775   7.992   7.840   1.754 -1.0661  0.6499  0.1519
  281SOL    HW2 2776   8.030   7.900   1.888  0.4944  0.5720 -0.2398
  282SOL     OW 2777   7.261   2.859   4.862 -0.4835  0.2057 -0.5116
  282SOL    HW1 2778   7.347   2.817   4.866 -0.8067 -0.4579 -0.2651
  282SOL    HW2 2779   7.260   2.919   4.937 -0.3432  0.0003 -0.3427
  283SOL     OW 2780   7.041   8.798   2.659  0.1038 -0.2732  0.1132
  283SOL    HW1 2781   7.087   8.715   2.650 -0.2296 -0.3232 -1.3848
  283SOL    HW2 2782   7.015   8.801   2.751 -0.1992 -1.9962  0.1193
  284SOL     OW 2783   8.733   5.992   2.472  0.5161  0.0296 -0.0838
  284SOL    HW1 2784   8.809   6.047   2.493  2.3334 -1.1602 -2.9446
  284SOL    HW2 2785   8.770   5.908   2.446 -1.8553 -0.8823 -0.8114
  285SOL     OW 2786   5.215   2.007   8.661  0.5284  0.2223 -0.0355
  285SOL    HW1 2787   5.171   1.930   8.626  1.6923  0.8052 -3.0431
  285SOL    HW2 2788   5.161   2.081   8.630  0.0523  0.7229  1.8505
  286SOL     OW 2789   2.240   0.197   8.605 -0.4712 -0.2157 -0.3687
  286SOL    HW1 2790   2.254   0.282   8.563  1.3463 -1.1164 -1.7178
  286SOL    HW2 2791   2.307   0.192   8.673  0.7033 -1.2897 -1.5478
  287SOL     OW 2792   2.494   2.042   5.776  0.4635 -0.0064 -0.2409
  287SOL    HW1 2793   2.589   2.035   5.766  0.6105  2.2235 -0.8994
  287SOL    HW2 2794   2.460   1.961   5.738  2.0820 -0.8409  0.0064
  288SOL     OW 2795   2.714   5.627   5.840  0.6235  0.1435 -0.9839
  288SOL    HW1 2796   2.795   5.577   5.846  1.2415  1.2907  2.1091
  288SOL    HW2 2797   2.729   5.688   5.767  2.8503  0.7369 -0.1158
  289SOL     OW 2798   2.883   1.462   5.175  0.2141  0.0778  0.2172
  289SOL    HW1 2799   2.830   1.494   5.101 -0.2327 -0.5964  0.2345
  289SOL    HW2 2800   2.830   1.393   5.214  0.7042  0.0357  0.8216
  290SOL     OW 2801   0.582   4.708   6.421 -0.9379  0.3626 -0.1515
  290SOL    HW1 2802   0.668   4.749   6.422  0.2196 -1.9437 -0.2310
  290SOL    HW2 2803   0.572   4.671   6.509 -1.9090  0.7013 -0.1080
  291SOL     OW 2804   0.138   6.975   1.976 -0.2584 -0.1889  0.3386
  291SOL    HW1 2805   0.170   6.973   1.886 -1.7724  2.5405 -0.3580
  291SOL    HW2 2806   0.083   6.897   1.983  1.5287 -1.5949 -0.3512
  292SOL     OW 2807   6.500   0.456   6.839 -0.1878 -0.1491 -0.7202
  292SOL    HW1 2808   6.434   0.525   6.844  0.4002  0.3869 -0.1448
  292SOL    HW2 2809   6.574   0.489   6.891  0.3792 -0.9059 -1.0169
  293SOL     OW 2810   3.636   6.387   6.652  0.4047 -0.2323 -0.2663
  293SOL    HW1 2811   3.563   6.389   6.590 -0.9802  0.9302  1.3359
  293SOL    HW2 2812   3.650   6.479   6.676  2.4311 -0.4176 -0.5323
  294SOL     OW 2813   3.737   7.916   0.979  0.0607 -0.1200  0.1015
  294SOL    HW1 2814   3.731   7.991   0.919  0.7082  0.2672  0.5109
  294SOL    HW2 2815   3.829   7.914   1.006  0.1634 -1.3886 -0.3081
  295SOL     OW 2816   8.086   3.920   0.348 -0.1640  0.8137  0.5307
  295SOL    HW1 2817   8.110   3.956   0.434  0.0130  1.9701  0.0207
  295SOL    HW2 2818   8.071   3.997   0.294  2.0095  0.1700 -1.1318
  296SOL     OW 2819   8.372   3.544   0.409  0.3440 -0.3506 -0.0091
  296SOL    HW1 2820   8.356   3.564   0.501 -1.7645 -1.0020 -0.1798
  296SOL    HW2 2821   8.335   3.619   0.361 -0.2233 -0.8355 -0.3540
  297SOL     OW 2822   5.017   0.884   5.947  0.3243 -0.2483 -0.2783
  297SOL    HW1 2823   5.072   0.954   5.911  1.8334 -1.4380 -0.4164
  297SOL    HW2 2824   5.034   0.887   6.041 -1.2277  0.8747 -0.0036
  298SOL     OW 2825   0.383   7.554   0.653  0.2070 -0.2120 -0.7819
  298SOL    HW1 2826   0.370   7.597   0.737 -2.5449 -1.5173 -0.4268
  298SOL    HW2 2827   0.327   7.604   0.592 -0.0871 -0.9983 -1.1696
  299SOL     OW 2828   7.984   5.037   2.361 -0.0799  0.1866  0.0536
  299SOL    HW1 2829   7.919   4.996   2.418  0.1032 -0.2565 -0.0442
  299SOL    HW2 2830   7.961   5.007   2.273 -0.7550  1.3910 -0.1954
  300SOL     OW 2831   2.553   3.367   8.834  0.3395  0.1932 -0.1486
  300SOL    HW1 2832   2.530   3.304   8.766  1.4728 -0.6812  0.2426
  300SOL    HW2 2833   2.511   3.334   8.914  0.8229 -0.0040  0.0283
  301SOL     OW 2834   3.036   3.248   0.145  0.0525  0.2181 -0.1821
  301SOL    HW1 2835   2.992   3.165   0.127 -1.1005  0.7776 -0.0530
  301SOL    HW2 2836   3.119   3.241   0.099  0.1219 -1.1306  0.0876
  302SOL     OW 2837   7.041   7.092   1.197  0.3790 -0.6579  0.1409
  302SOL    HW1 2838   6.969   7.076   1.258 -0.2219  0.6486 -0.1949
  302SOL    HW2 2839   7.078   7.175   1.226  0.8158 -0.5952 -0.5831
  303SOL     OW 2840   2.391   2.997   6.276  0.5625 -0.2014 -0.0711
  303SOL    HW1 2841   2.466   3.021   6.221 -0.2417  1.1938 -0.5988
  303SOL    HW2 2842   2.317   2.993   6.216 -0.2245  0.7451  0.7978
  304SOL     OW 2843   7.264   1.311   4.610  0.4198 -0.1297 -0.3326
  304SOL    HW1 2844   7.262   1.346   4.521 -0.6683 -0.7615 -0.5779
  304SOL    HW2 2845   7.347   1.264   4.616  1.1494  1.1096 -0.5258
  305SOL     OW 2846   6.775   7.547   2.158  0.2116 -0.3174  0.1962
  305SOL    HW1 2847   6.811   7.510   2.239 -1.7056 -0.8005  0.8781
  305SOL    HW2 2848   6.694   7.498   2.143  0.2459  0.1490 -1.7217
  306SOL     OW 2849   7.003   4.841   2.852  0.3794  0.0046 -0.3175
  306SOL    HW1 2850   7.092   4.819   2.876  0.0411  0.1633  1.1458
  306SOL    HW2 2851   6.954   4.759   2.864 -0.6019  0.9621  3.7646
  307SOL     OW 2852   4.346   7.775   4.645  0.3839 -0.0590 -0.3395
  307SOL    HW1 2853   4.382   7.701   4.693 -0.1499  1.2064  2.2246
  307SOL    HW2 2854   4.421   7.831   4.626  0.3494  0.6807  1.4781
  308SOL     OW 2855   2.602   5.522   3.466 -0.4123 -0.4077  0.3549
  308SOL    HW1 2856   2.650   5.580   3.407  0.6483 -1.2153  0.3765
  308SOL    HW2 2857   2.544   5.472   3.408  0.5291 -1.1057 -0.0385
  309SOL     OW 2858   2.420   6.483   8.353  0.0477 -0.0763 -0.1802
  309SOL    HW1 2859   2.493   6.543   8.334  0.4270 -0.7252 -0.8353
  309SOL    HW2 2860   2.448   6.399   8.315 -0.8202 -0.4628  0.0216
  310SOL     OW 2861   1.165   2.924   6.367 -0.3356 -0.0055 -0.0044
  310SOL    HW1 2862   1.133   2.911   6.456  0.7684 -0.1482  0.3844
  310SOL    HW2 2863   1.118   2.859   6.315 -0.8803 -0.0196  0.5022
  311SOL     OW 2864   3.056   5.254   8.102 -0.1330 -0.1894  0.1421
  311SOL    HW1 2865   3.139   5.255   8.054  0.0453  1.9264  0.3955
  311SOL    HW2 2866   2.992   5.287   8.040 -0.9602 -2.2749 -0.2138
  312SOL     OW 2867   3.737   1.757   3.273  0.2427 -0.2135  0.1452
  312SOL    HW1 2868   3.752   1.666   3.300 -3.3893 -0.9710  0.0910
  312SOL    HW2 2869   3.710   1.801   3.353 -1.7491 -0.2158 -0.4735
  313SOL     OW 2870   0.583   3.023   6.100 -0.3126 -0.0015  0.5049
  313SOL    HW1 2871   0.508   2.966   6.119 -0.1585 -1.7453 -3.3316
  313SOL    HW2 2872   0.659   2.974   6.130 -0.3853 -0.5476 -0.1868
  314SOL     OW 2873   7.535   0.611   6.277 -0.4922 -0.1924  0.4429
  314SOL    HW1 2874   7.539   0.659   6.359  0.5680  0.0764  0.2522
  314SOL    HW2 2875   7.590   0.661   6.217 -1.4083 -0.2684 -0.5003
  315SOL     OW 2876   7.259   4.118   4.942 -0.5988 -0.3593  0.4309
  315SOL    HW1 2877   7.264   4.123   4.847  1.9513  0.2232  0.5147
  315SOL    HW2 2878   7.236   4.027   4.960  0.8804 -1.0167 -0.7574
  316SOL     OW 2879   3.905   0.612   0.207  0.5338  0.8579 -0.0560
  316SOL    HW1 2880   3.844   0.538   0.206  0.6308  0.7684 -1.7116
  316SOL    HW2 2881   3.877   0.665   0.281 -0.3083 -0.1991  0.4118
  317SOL     OW 2882   0.013   2.501   6.886 -0.5997  0.3334  0.5970
  317SOL    HW1 2883  -0.057   2.534   6.829  0.3469 -0.6022 -1.2005
  317SOL    HW2 2884  -0.008   2.408   6.898 -0.0851  0.2209  0.6585
  318SOL     OW 2885   1.030   7.249   5.349 -0.0787 -0.1232  0.4409
  318SOL    HW1 2886   0.951   7.203   5.322 -1.3575  1.8492  0.6222
  318SOL    HW2 2887   1.094   7.230   5.281 -1.6894  0.7591 -1.4042
  319SOL     OW 2888   5.658   2.216   6.563 -0.6299 -0.1651  0.2966
  319SOL    HW1 2889   5.751   2.227   6.545 -1.0963  1.6988 -1.3248
  319SOL    HW2 2890   5.655   2.168   6.646  1.7255 -1.9387 -0.5433
  320SOL     OW 2891   4.036   2.559   1.085  0.0509  0.4537 -0.1040
  320SOL    HW1 2892   3.965   2.595   1.032  0.4507 -0.5323 -1.3543
  320SOL    HW2 2893   4.114   2.566   1.030  0.6946  0.3844  0.7706
  321SOL     OW 2894   1.548   7.228   5.697 -0.0119  0.1387  0.3147
  321SOL    HW1 2895   1.480   7.161   5.686  0.1191  0.0663 -0.0805
  321SOL    HW2 2896   1.542   7.253   5.789 -1.3878  0.9920  0.0275
  322SOL     OW 2897   3.988   4.503   6.914 -0.0492 -0.1276 -0.0841
  322SOL    HW1 2898   3.965   4.444   6.842  0.6552 -0.9661  0.3440
  322SOL    HW2 2899   3.912   4.502   6.972 -0.5532  0.4193 -0.7201
  323SOL     OW 2900   7.644   0.482   8.514  0.5432  0.5580 -0.2421
  323SOL    HW1 2901   7.600   0.400   8.538 -1.1736  1.6532  0.5651
  323SOL    HW2 2902   7.720   0.487   8.571  0.6504 -0.4539 -0.2828
  324SOL     OW 2903   0.826   0.121   2.958 -0.0966 -0.1692  0.5282
  324SOL    HW1 2904   0.747   0.170   2.934  0.3959 -0.0202 -0.9053
  324SOL    HW2 2905   0.833   0.052   2.891  3.0710  2.1787 -1.8939
  325SOL     OW 2906   4.707   2.188   1.045 -0.4420 -0.0817  0.0238
  325SOL    HW1 2907   4.618   2.209   1.016 -0.4367  0.9316  0.7210
  325SOL    HW2 2908   4.751   2.158   0.965 -2.1607 -3.3924  0.1356
  326SOL     OW 2909   1.026   0.838   8.820  0.5833  0.2734  0.4196
  326SOL    HW1 2910   0.945   0.868   8.778  0.2399  1.2163  1.6914
  326SOL    HW2 2911   1.066   0.917   8.855  1.3086 -0.3742  1.0887
  327SOL     OW 2912   1.975   7.656   6.840 -0.0174  0.2732 -0.4984
  327SOL    HW1 2913   1.977   7.652   6.936  0.1771 -1.2488 -0.5507
  327SOL    HW2 2914   2.020   7.738   6.819 -1.7784  1.6684  0.7463
  328SOL     OW 2915   7.322   1.028   3.558  0.0449 -0.4121  0.1197
  328SOL    HW1 2916   7.387   0.998   3.494  0.1672  0.7847 -0.3394
  328SOL    HW2 2917   7.369   1.030   3.641  1.1468  2.0758 -0.4885
  329SOL     OW 2918   7.693   8.127   6.225 -0.1279 -0.4200 -0.0368
  329SOL    HW1 2919   7.643   8.069   6.283 -0.8831 -0.6971 -0.9342
  329SOL    HW2 2920   7.701   8.208   6.274 -1.2274 -0.4682  0.2620
  330SOL     OW 2921   5.199   2.364   0.271 -0.3111 -0.1339 -0.2387
  330SOL    HW1 2922   5.187   2.402   0.184 -1.6270  0.0390 -0.0170
  330SOL    HW2 2923   5.114   2.376   0.314  0.0905 -0.8659  0.8173
  331SOL     OW 2924   3.780   6.706   7.551  0.1661  0.5370  0.7900
  331SOL    HW1 2925   3.763   6.697   7.645 -0.4710  1.4489  0.7738
  331SOL    HW2 2926   3.834   6.785   7.544  0.1700  0.4986  0.3769
  332SOL     OW 2927   2.432   3.937   6.656  0.6033  1.0544 -0.5679
  332SOL    HW1 2928   2.526   3.951   6.660  0.3118  3.1969 -0.0339
  332SOL    HW2 2929   2.421   3.843   6.669  2.5820  0.9501  0.7393
  333SOL     OW 2930   3.787   6.637   2.395 -0.4448  0.0640 -0.2207
  333SOL    HW1 2931   3.748   6.716   2.358 -1.8488  0.5342  2.0983
  333SOL    HW2 2932   3.720   6.570   2.388 -0.2824 -0.1661  0.3216
  334SOL     OW 2933   2.256   0.804   1.697 -0.1663 -0.1326  0.1997
  334SOL    HW1 2934   2.329   0.771   1.750  0.1838  1.3621  0.6837
  334SOL    HW2 2935   2.298   0.858   1.630 -0.8685  3.1134  2.1628
  335SOL     OW 2936   8.653   0.407   5.463  0.4372 -0.7627 -0.4548
  335SOL    HW1 2937   8.640   0.313   5.480  0.2375 -1.2525 -2.9776
  335SOL    HW2 2938   8.590   0.428   5.395 -2.7160  2.3568  2.9537
  336SOL     OW 2939   7.458   4.612   1.693 -0.2990 -0.3070 -0.2756
  336SOL    HW1 2940   7.405   4.680   1.736 -0.2872  0.4865 -1.4750
  336SOL    HW2 2941   7.540   4.655   1.672 -0.5423 -0.4632 -1.6698
  337SOL     OW 2942   0.414   7.223   2.661 -0.4261 -0.3243  0.1055
  337SOL    HW1 2943   0.394   7.281   2.587 -1.0372 -0.9323 -0.2210
  337SOL    HW2 2944   0.361   7.257   2.733 -0.1642  0.0063  0.1460
  338SOL     OW 2945   2.322   3.186   5.620 -0.6213 -0.3174  0.5828
  338SOL    HW1 2946   2.352   3.267   5.663  1.7225 -1.0840  0.5182
  338SOL    HW2 2947   2.363   3.116   5.669 -1.1906 -1.4200 -0.4546
  339SOL     OW 2948   7.375   1.079   7.896 -0.3761 -0.1824  0.0270
  339SOL    HW1 2949   7.456   1.099   7.942 -0.4536 -0.8599  0.4744
  339SOL    HW2 2950   7.397   1.002   7.842 -0.7914 -0.5403  0.3634
  340SOL     OW 2951   0.636   3.641   3.784  0.2030 -0.7061 -1.1150
  340SOL    HW1 2952   0.561   3.681   3.741 -0.6379 -0.8051  0.1953
  340SOL    HW2 2953   0.623   3.547   3.772  0.3915 -0.7038 -1.3325
  341SOL     OW 2954   8.211   6.256   1.310  0.3491  0.0002  1.0261
  341SOL    HW1 2955   8.296   6.298   1.299 -0.0607  0.9935  1.5591
  341SOL    HW2 2956   8.232   6.164   1.330  1.2675  0.0792  0.4927
  342SOL     OW 2957   2.999   5.008   7.776  0.2737  0.1613  0.1901
  342SOL    HW1 2958   3.032   4.919   7.787 -0.1608 -0.3037 -1.8553
  342SOL    HW2 2959   2.903   4.998   7.777  0.2216  0.5825 -0.2102
  343SOL     OW 2960   8.555   1.890   5.241 -0.3927  0.2186  0.3459
  343SOL    HW1 2961   8.645   1.905   5.214 -0.5507 -1.6011 -1.3822
  343SOL    HW2 2962   8.502   1.941   5.180 -0.6080 -0.6632 -0.2171
  344SOL     OW 2963   3.431   5.858   1.443  0.2164  0.1486 -0.1180
  344SOL    HW1 2964   3.370   5.903   1.385  0.0010  0.7313  0.5571
  344SOL    HW2 2965   3.424   5.766   1.417 -1.4131  0.1024  0.3491
  345SOL     OW 2966   0.984   7.979   0.892  0.8290  0.0104 -0.2041
  345SOL    HW1 2967   0.929   7.984   0.970 -0.5598  1.1438 -1.2047
  345SOL    HW2 2968   1.073   7.973   0.925  0.2221 -0.2166  1.4540
  346SOL     OW 2969   1.792   1.951   1.749  0.1447 -0.0840  0.0266
  346SOL    HW1 2970   1.881   1.987   1.752  0.1902 -0.0654 -1.1921
  346SOL    HW2 2971   1.804   1.857   1.763  0.4255 -0.1699 -0.7621
  347SOL     OW 2972   1.882   7.272   4.173 -0.0225  0.1002  0.0566
  347SOL    HW1 2973   1.869   7.239   4.261  3.6866 -0.4564  0.5698
  347SOL    HW2 2974   1.885   7.367   4.183  0.7057  0.0236  0.6234
  348SOL     OW 2975   2.014   7.297   0.207 -0.3557 -0.1791  1.1929
  348SOL    HW1 2976   2.035   7.283   0.300 -1.8340  2.1350  1.9425
  348SOL    HW2 2977   2.057   7.379   0.185 -3.0510  1.2792  0.9619
  349SOL     OW 2978   1.401   8.241   5.367  0.2930 -0.1187  0.0112
  349SOL    HW1 2979   1.309   8.266   5.359 -0.0266 -0.8049  1.3371
  349SOL    HW2 2980   1.444   8.319   5.404  0.1901  0.0826 -0.2866
  350SOL     OW 2981   2.066   4.458   1.044 -0.1711 -0.4836 -0.0476
  350SOL    HW1 2982   2.067   4.452   1.140  1.4585  1.1270  0.0897
  350SOL    HW2 2983   2.124   4.389   1.015 -2.4648 -2.5519 -0.0916
  351SOL     OW 2984   6.416   6.815   4.737  0.2618 -0.0262  0.2563
  351SOL    HW1 2985   6.332   6.862   4.735  1.3199  1.9152 -0.5221
  351SOL    HW2 2986   6.420   6.769   4.653  0.9998  1.8406 -0.7812
  352SOL     OW 2987   0.077   2.734   0.178  0.3491 -0.3222  0.0782
  352SOL    HW1 2988   0.103   2.821   0.208 -1.5933  0.1142  0.6227
  352SOL    HW2 2989  -0.007   2.718   0.220  1.3680 -3.1585  1.2623
  353SOL     OW 2990   3.804   1.177   0.254  0.4415 -0.2924 -0.2742
  353SOL    HW1 2991   3.747   1.125   0.197 -1.5156  2.7330 -1.3278
  353SOL    HW2 2992   3.794   1.137   0.340 -1.9264 -0.9850 -0.7874
  354SOL     OW 2993   7.675   5.514   5.769 -0.2819 -0.4513 -0.1307
  354SOL    HW1 2994   7.708   5.566   5.696 -1.4721 -1.4863 -1.4592
  354SOL    HW2 2995   7.591   5.554   5.791  0.9568  1.1325  2.1151
  355SOL     OW 2996   5.254   2.896   2.378  1.0471 -0.0900  0.1418
  355SOL    HW1 2997   5.253   2.827   2.311 -0.2834 -0.5187  0.5658
  355SOL    HW2 2998   5.187   2.959   2.349  2.5003  1.2521 -0.4369
  356SOL     OW 2999   1.471   0.683   6.646  0.2857  0.2081  0.2082
  356SOL    HW1 3000   1.412   0.631   6.700 -1.4744 -0.2468 -1.9766
  356SOL    HW2 3001   1.429   0.769   6.640  1.1075  0.6470  0.5617
  357SOL     OW 3002   8.336   5.331   4.715  0.1184  0.3547 -0.1125
  357SOL    HW1 3003   8.397   5.338   4.789 -1.1382 -0.8381  1.0810
  357SOL    HW2 3004   8.370   5.257   4.664 -0.6109 -0.7058  0.8821
  358SOL     OW 3005   4.363   3.010   7.264 -0.2535 -0.2366 -0.1038
  358SOL    HW1 3006   4.398   2.965   7.187 -0.1551  0.0805 -0.2464
  358SOL    HW2 3007   4.368   3.103   7.242 -0.9123 -0.1736 -0.0091
  359SOL     OW 3008   7.916   7.722   2.988 -0.4225  0.5811  0.2746
  359SOL    HW1 3009   7.835   7.720   3.039 -0.0541  0.2303  0.8539
  359SOL    HW2 3010   7.959   7.639   3.008  2.0359  2.3486  3.1714
  360SOL     OW 3011   7.942   5.109   3.777 -0.0552  0.2445  0.2712
  360SOL    HW1 3012   7.853   5.135   3.798  0.0902  1.2687 -0.3219
  360SOL    HW2 3013   7.958   5.031   3.831 -1.4858 -0.2896 -0.0425
  361SOL     OW 3014   5.114   2.771   5.854  0.0892  0.0154 -0.2939
  361SOL    HW1 3015   5.054   2.717   5.804 -2.3019  2.4216 -0.2695
  361SOL    HW2 3016   5.069   2.787   5.937  0.7792  1.7718 -0.1979
  362SOL     OW 3017   0.983   5.974   2.285  0.1542 -0.2466 -0.2529
  362SOL    HW1 3018   0.913   5.916   2.313  1.0381 -0.4273  1.8061
  362SOL    HW2 3019   1.032   5.924   2.219 -0.5257 -0.8631 -0.2963
  363SOL     OW 3020   5.644   8.041   4.857  0.7981  0.5105 -0.6962
  363SOL    HW1 3021   5.583   8.019   4.928  0.7564  3.5251  0.3474
  363SOL    HW2 3022   5.724   7.993   4.879  0.2097 -0.0173  0.3930
  364SOL     OW 3023   0.931   4.456   7.972 -0.0235  0.2150 -0.2669
  364SOL    HW1 3024   0.871   4.529   7.985  0.2496  0.4983 -0.5716
  364SOL    HW2 3025   0.886   4.380   8.010 -0.1466  0.6129  0.4019
  365SOL     OW 3026   5.461   7.410   1.833  0.7056 -0.0406 -0.5036
  365SOL    HW1 3027   5.406   7.397   1.755  0.2194 -0.6886 -0.0648
  365SOL    HW2 3028   5.531   7.469   1.804  1.3221 -1.3509 -1.8229
  366SOL     OW 3029   6.844   7.080   6.357  0.5177 -0.0441  0.0015
  366SOL    HW1 3030   6.811   7.168   6.341 -0.4793 -0.4486 -0.2587
  366SOL    HW2 3031   6.767   7.031   6.386  1.1060 -0.7733  0.3599
  367SOL     OW 3032   5.386   1.954   2.930 -0.3773 -0.0694 -0.5828
  367SOL    HW1 3033   5.298   1.915   2.931 -0.0939 -0.7381  0.6232
  367SOL    HW2 3034   5.432   1.911   3.002  1.1710 -0.2182 -1.6039
  368SOL     OW 3035   1.767   0.144   2.986 -0.5791 -0.3422  0.0738
  368SOL    HW1 3036   1.703   0.085   2.947  1.3190 -2.3345 -0.2671
  368SOL    HW2 3037   1.740   0.152   3.077 -0.7137 -2.0952  0.2267
  369SOL     OW 3038   7.940   6.499   7.083 -0.9795 -0.6194  0.2929
  369SOL    HW1 3039   7.910   6.585   7.112  1.4202 -0.0251  1.2332
  369SOL    HW2 3040   7.905   6.438   7.148 -0.1298  0.0692  1.4395
  370SOL     OW 3041   8.516   4.657   5.611  0.4065 -0.6793 -0.2543
  370SOL    HW1 3042   8.474   4.610   5.684 -0.9447 -1.1796 -1.3112
  370SOL    HW2 3043   8.561   4.730   5.653 -0.5890 -0.7741  1.0622
  371SOL     OW 3044   3.293   3.982   5.543  0.2706 -0.5928  0.5497
  371SOL    HW1 3045   3.349   4.053   5.575 -1.8383  0.3231  2.5013
  371SOL    HW2 3046   3.306   3.912   5.607 -0.3899 -0.5693  0.7129
  372SOL     OW 3047   2.613   7.543   3.154  0.3153  0.5799  0.0906
  372SOL    HW1 3048   2.670   7.522   3.080  0.5386  1.8983 -0.1329
  372SOL    HW2 3049   2.660   7.610   3.202  0.4077 -0.6161  1.7476
  373SOL     OW 3050   5.308   2.979   3.540  0.3994 -0.1149 -0.0753
  373SOL    HW1 3051   5.298   3.059   3.591  2.3551 -0.4714  0.9736
  373SOL    HW2 3052   5.356   3.007   3.461  0.8984 -0.2009  0.1927
  374SOL     OW 3053   8.249   2.204   6.971 -0.4055 -0.8343  0.1102
  374SOL    HW1 3054   8.163   2.246   6.978 -0.3593 -0.7467  0.1573
  374SOL    HW2 3055   8.230   2.118   6.935 -0.2053  0.2158 -2.6999
  375SOL     OW 3056   2.422   8.669   4.898 -0.2461  0.4166  0.4392
  375SOL    HW1 3057   2.347   8.723   4.924 -0.8656 -0.7492  1.1877
  375SOL    HW2 3058   2.452   8.707   4.816 -0.6038  1.9288  0.9814
  376SOL     OW 3059   2.977   4.635   0.125  0.1857  0.0638  0.2170
  376SOL    HW1 3060   3.054   4.608   0.074  0.7689 -0.3119  1.2731
  376SOL    HW2 3061   3.013   4.663   0.209 -0.8274  0.0537  0.6613
  377SOL     OW 3062   4.118   6.119   0.666 -0.0074 -0.2155  0.3111
  377SOL    HW1 3063   4.154   6.042   0.712 -2.1528 -1.6924 -0.3238
  377SOL    HW2 3064   4.074   6.082   0.590 -0.7847  1.7281 -0.2237
  378SOL     OW 3065   0.292   3.068   0.833  0.6525 -0.1460 -0.2103
  378SOL    HW1 3066   0.261   3.127   0.902  0.1375  1.0071 -1.3718
  378SOL    HW2 3067   0.370   3.111   0.797 -0.7953  0.9319 -2.3463
  379SOL     OW 3068   4.187   6.994   2.706  0.3046 -0.1652  0.0000
  379SOL    HW1 3069   4.101   7.021   2.737 -0.0223  0.6407 -1.4809
  379SOL    HW2 3070   4.169   6.915   2.654  0.3023  0.4891 -1.0263
  380SOL     OW 3071   3.589   7.497   5.857 -0.7001 -0.0224  0.1178
  380SOL    HW1 3072   3.499   7.477   5.832 -0.5178 -0.6935 -0.0354
  380SOL    HW2 3073   3.637   7.416   5.838 -0.1386  0.2034  0.5561
  381SOL     OW 3074   0.574   4.132   1.792 -0.2510 -0.4761  0.2203
  381SOL    HW1 3075   0.575   4.203   1.728  0.7671 -0.9032 -0.2750
  381SOL    HW2 3076   0.585   4.053   1.739  1.1465 -0.8044  0.9422
  382SOL     OW 3077   6.058   5.938   6.883  0.6572  0.4664  0.1219
  382SOL    HW1 3078   5.962   5.936   6.878  0.6996  0.3114 -0.6983
  382SOL    HW2 3079   6.080   5.865   6.942  0.3277 -0.3028 -0.6844
  383SOL     OW 3080   6.006   4.241   2.165 -0.0204 -0.2406 -0.0345
  383SOL    HW1 3081   5.915   4.232   2.137  0.3018 -1.3945 -0.7945
  383SOL    HW2 3082   6.041   4.152   2.160  0.9345  0.0583  1.0306
  384SOL     OW 3083   7.515   4.604   1.348 -0.2259 -0.0132  0.0228
  384SOL    HW1 3084   7.527   4.553   1.428  1.0912 -0.0320 -0.1748
  384SOL    HW2 3085   7.450   4.554   1.298  0.8673 -1.4022 -0.0662
  385SOL     OW 3086   5.566   1.390   2.044 -0.1670  0.1100  0.6031
  385SOL    HW1 3087   5.568   1.308   2.094  1.0611  0.0450  0.4920
  385SOL    HW2 3088   5.565   1.362   1.952  0.5014  0.2047  0.5611
  386SOL     OW 3089   0.539   0.759   5.204 -0.1783 -0.4180 -0.0137
  386SOL    HW1 3090   0.502   0.745   5.291 -2.1904 -1.0506 -0.9001
  386SOL    HW2 3091   0.634   0.749   5.215 -0.3451  0.0731  2.1727
  387SOL     OW 3092   5.509   0.854   5.742  0.2192 -0.3309 -0.7433
  387SOL    HW1 3093   5.592   0.901   5.750  0.4006 -0.4876 -1.6149
  387SOL    HW2 3094   5.504   0.800   5.821  0.1689  0.8782  0.1072
  388SOL     OW 3095   1.567   0.901   3.435 -0.3600  0.3045  0.7086
  388SOL    HW1 3096   1.648   0.937   3.400  1.4048 -2.9767  0.9888
  388SOL    HW2 3097   1.501   0.969   3.419  1.3906  1.2491 -3.8692
  389SOL     OW 3098   6.184   5.748   4.215  0.2904  0.0015 -0.7194
  389SOL    HW1 3099   6.172   5.808   4.141 -1.0000 -0.7900 -1.1986
  389SOL    HW2 3100   6.239   5.678   4.180  0.9380  0.3833 -0.4701
  390SOL     OW 3101   6.967   3.274   1.048  0.0154 -0.1665  0.1767
  390SOL    HW1 3102   6.894   3.218   1.075  0.2090 -0.4758  0.0638
  390SOL    HW2 3103   6.981   3.333   1.121  0.0389 -0.4954  0.4376
  391SOL     OW 3104   6.715   8.555   0.504 -0.4771 -0.3067 -0.1593
  391SOL    HW1 3105   6.757   8.580   0.586  0.5929 -0.2340 -0.7099
  391SOL    HW2 3106   6.761   8.475   0.477  0.6749  0.8062 -1.7321
  392SOL     OW 3107   0.486   0.723   7.844 -0.6877 -0.4794 -0.5383
  392SOL    HW1 3108   0.490   0.746   7.936 -2.1859 -1.1992 -0.2480
  392SOL    HW2 3109   0.511   0.802   7.797  0.7943 -0.3188  0.4742
  393SOL     OW 3110   1.840   7.975   1.356 -0.1809  0.4555  0.1691
  393SOL    HW1 3111   1.934   7.985   1.344  0.0992 -0.5215  1.3424
  393SOL    HW2 3112   1.831   7.932   1.441 -1.6985  0.7465  0.1812
  394SOL     OW 3113   3.853   5.543   1.678 -0.0211  0.5520  0.3759
  394SOL    HW1 3114   3.832   5.481   1.747  2.2048 -0.4849  0.2052
  394SOL    HW2 3115   3.836   5.496   1.597 -2.3151  1.6542  0.1490
  395SOL     OW 3116   8.377   0.337   1.158  0.3886 -0.3563 -0.4728
  395SOL    HW1 3117   8.470   0.334   1.137  0.8021  0.4836  1.0613
  395SOL    HW2 3118   8.373   0.325   1.253 -0.7793  2.5648 -0.0465
  396SOL     OW 3119   7.984   2.198   0.300  0.6692  0.0087 -0.5208
  396SOL    HW1 3120   7.966   2.263   0.368 -0.6459 -0.4612 -0.3889
  396SOL    HW2 3121   7.938   2.230   0.223  0.6900 -0.3500 -0.6852
  397SOL     OW 3122   3.985   4.634   3.742 -0.5697 -0.8603  0.1459
  397SOL    HW1 3123   3.947   4.623   3.829 -0.2239 -0.1176  0.4012
  397SOL    HW2 3124   4.073   4.669   3.759 -0.6409 -0.3535 -0.5095
  398SOL     OW 3125   4.532   1.262   3.476 -0.3875  0.0909  0.4982
  398SOL    HW1 3126   4.526   1.167   3.478 -1.2173  0.1493  0.9483
  398SOL    HW2 3127   4.529   1.289   3.567  0.2713  0.5347  0.4018
  399SOL     OW 3128   6.263   6.848   1.627  0.1972  0.2771  0.2318
  399SOL    HW1 3129   6.247   6.912   1.696 -0.5314  3.0270 -2.2515
  399SOL    HW2 3130   6.180   6.801   1.618  0.0913  0.3515  0.8129
  400SOL     OW 3131   2.392   1.117   2.575 -0.5558  0.2370  0.1864
  400SOL    HW1 3132   2.317   1.087   2.627  1.7428 -2.7535  2.1399
  400SOL    HW2 3133   2.458   1.142   2.640  1.2017 -0.1856 -1.3397
  401SOL     OW 3134   2.751   8.516   3.706  0.5980  0.1846 -0.0799
  401SOL    HW1 3135   2.748   8.471   3.622  1.3397  0.1927 -0.1190
  401SOL    HW2 3136   2.839   8.554   3.710  0.6957 -0.1063  0.8471
  402SOL     OW 3137   2.230   6.782   3.827 -0.6080 -0.6356 -0.2141
  402SOL    HW1 3138   2.230   6.766   3.733  3.2523 -1.1273 -0.2819
  402SOL    HW2 3139   2.307   6.836   3.843 -1.9915  0.7668  2.5569
  403SOL     OW 3140   0.323   5.787   7.846 -0.3322 -0.1708  0.5467
  403SOL    HW1 3141   0.285   5.867   7.882 -0.2275 -0.1224  0.5531
  403SOL    HW2 3142   0.336   5.806   7.753 -0.4146 -0.2222  0.5251
  404SOL     OW 3143   0.814   5.589   4.867  0.0761  0.0288  0.3334
  404SOL    HW1 3144   0.865   5.538   4.805  0.7786  0.5907  0.4253
  404SOL    HW2 3145   0.845   5.560   4.953 -0.3195 -0.1769  0.4088
  405SOL     OW 3146   3.490   8.248   1.593 -0.3842 -0.7265 -0.3184
  405SOL    HW1 3147   3.566   8.213   1.639 -0.6601  0.2031  0.8931
  405SOL    HW2 3148   3.527   8.289   1.514  0.4175 -0.1094  0.3533
  406SOL     OW 3149   4.864   7.030   6.683  0.2653  0.3591 -0.1209
  406SOL    HW1 3150   4.788   7.010   6.627 -0.5818  0.5508  0.9271
  406SOL    HW2 3151   4.933   7.053   6.621 -0.1484 -1.0301 -1.1558
  407SOL     OW 3152   2.450   0.654   4.848 -0.4832  0.4538  0.3275
  407SOL    HW1 3153   2.467   0.726   4.788 -1.6127  1.2412  0.9236
  407SOL    HW2 3154   2.537   0.622   4.872  0.0145  1.1772 -0.4607
  408SOL     OW 3155   4.771   3.115   1.586  0.1014 -0.0951 -0.2769
  408SOL    HW1 3156   4.806   3.044   1.534 -0.7459 -0.7020 -0.0294
  408SOL    HW2 3157   4.676   3.107   1.579 -0.0316  0.0451  1.0193
  409SOL     OW 3158   3.905   7.975   4.736 -0.5275 -0.7819  0.1556
  409SOL    HW1 3159   3.850   7.957   4.813  0.3986 -1.3058  0.7222
  409SOL    HW2 3160   3.990   7.997   4.773 -0.6358  1.2384 -0.6692
  410SOL     OW 3161   6.622   6.266   1.893  0.0079  0.0114 -1.1713
  410SOL    HW1 3162   6.588   6.319   1.965 -1.1781 -1.6121 -0.4773
  410SOL    HW2 3163   6.611   6.175   1.923  1.0775 -0.6559 -2.7060
  411SOL     OW 3164   3.922   3.699   6.883 -0.4656 -0.1152 -0.1889
  411SOL    HW1 3165   3.963   3.765   6.828  0.1143 -1.0756 -0.9408
  411SOL    HW2 3166   3.950   3.615   6.846 -0.0907 -0.8051  1.5362
  412SOL     OW 3167   7.144   5.416   2.369  0.3756 -0.3526  0.1187
  412SOL    HW1 3168   7.152   5.366   2.450  4.7490  1.5495  1.1219
  412SOL    HW2 3169   7.055   5.453   2.373 -0.7477 -2.9646  2.2981
  413SOL     OW 3170   4.143   6.153   3.423  0.2466 -0.3800  0.0679
  413SOL    HW1 3171   4.222   6.160   3.478  0.5159  2.4869 -0.4957
  413SOL    HW2 3172   4.175   6.123   3.338  0.8591  1.0525 -0.2462
  414SOL     OW 3173   8.629   5.353   3.982 -0.1059  0.0692 -0.0738
  414SOL    HW1 3174   8.717   5.321   3.961 -0.4175  0.6146 -2.5267
  414SOL    HW2 3175   8.642   5.442   4.012  0.2184  0.0396 -0.1208
  415SOL     OW 3176   6.510   4.861   6.372  0.2296 -0.4529 -0.7226
  415SOL    HW1 3177   6.494   4.951   6.344 -0.0959 -0.1394  0.3933
  415SOL    HW2 3178   6.599   4.864   6.408  0.0831 -0.4853 -0.3540
  416SOL     OW 3179   1.925   0.886   8.038 -0.8690 -0.0202 -0.5014
  416SOL    HW1 3180   1.884   0.801   8.024 -1.5205  0.2195 -0.0780
  416SOL    HW2 3181   1.853   0.945   8.062 -0.2823  0.3761  0.3740
  417SOL     OW 3182   4.292   5.469   2.457  0.0055 -0.8847 -0.0784
  417SOL    HW1 3183   4.258   5.528   2.524 -0.3139 -0.4650 -0.5977
  417SOL    HW2 3184   4.340   5.527   2.398 -0.7801 -1.0544 -0.9030
  418SOL     OW 3185   6.950   1.002   3.444  0.2411  0.1407  0.1857
  418SOL    HW1 3186   6.909   1.058   3.377 -2.4009 -2.1281 -0.2498
  418SOL    HW2 3187   6.967   1.062   3.516  1.2015  2.2616 -1.6635
  419SOL     OW 3188   3.681   3.502   3.616 -0.6357  0.0285  0.3621
  419SOL    HW1 3189   3.709   3.558   3.544 -0.3342 -3.4477 -2.4603
  419SOL    HW2 3190   3.762   3.479   3.661 -0.4637 -0.1905 -0.0599
  420SOL     OW 3191   7.072   6.727   3.691  0.3309 -0.1007 -0.2068
  420SOL    HW1 3192   7.168   6.719   3.685  0.5374  0.6692  1.4908
  420SOL    HW2 3193   7.043   6.641   3.723  0.4546 -0.3248 -0.6892
  421SOL     OW 3194   6.429   1.865   2.167 -0.2473 -0.2370 -0.1598
  421SOL    HW1 3195   6.488   1.908   2.229 -0.1240 -0.8498  0.1592
  421SOL    HW2 3196   6.471   1.781   2.148 -0.4851 -0.2238 -0.7704
  422SOL     OW 3197   6.213   6.462   8.439  0.6240 -0.2886  0.0807
  422SOL    HW1 3198   6.291   6.464   8.495  0.0324 -0.0079  0.8987
  422SOL    HW2 3199   6.226   6.534   8.378  1.0705 -0.3323  0.1162
  423SOL     OW 3200   0.843   7.639   2.582  0.4066 -0.1808 -0.0715
  423SOL    HW1 3201   0.933   7.661   2.554  0.4888 -0.4163  0.0072
  423SOL    HW2 3202   0.841   7.660   2.675  0.2746  0.1515 -0.1471
  424SOL     OW 3203   2.733   0.975   3.429 -0.6202 -0.2353  0.1809
  424SOL    HW1 3204   2.763   0.885   3.441 -1.1520 -0.7176 -1.7183
  424SOL    HW2 3205   2.710   0.980   3.336  1.0785  2.3723 -0.2038
  425SOL     OW 3206   0.903   7.171   1.879  0.0571  0.8671 -0.4872
  425SOL    HW1 3207   0.817   7.202   1.851 -0.2694  1.0062  0.6110
  425SOL    HW2 3208   0.908   7.196   1.971  1.6243  1.6053 -0.7381
  426SOL     OW 3209   7.330   3.455   6.773  0.1730 -0.2148  0.1839
  426SOL    HW1 3210   7.236   3.457   6.757  0.2587 -0.4951 -0.3633
  426SOL    HW2 3211   7.345   3.523   6.838 -0.0845  1.3758 -1.3637
  427SOL     OW 3212   7.638   2.935   5.067  0.0638 -1.0262 -0.1805
  427SOL    HW1 3213   7.591   3.018   5.073  0.5435 -0.5991 -1.7930
  427SOL    HW2 3214   7.656   2.911   5.158 -1.6018 -0.2601  0.3901
  428SOL     OW 3215   4.307   8.002   5.167  0.5836  0.0645  0.2184
  428SOL    HW1 3216   4.362   7.964   5.098  1.9784  2.8316 -0.3774
  428SOL    HW2 3217   4.218   7.978   5.143  1.1306 -0.0024 -1.9721
  429SOL     OW 3218   7.000   5.746   7.402 -0.2102  0.0783  0.1661
  429SOL    HW1 3219   6.954   5.815   7.353  1.3061  0.6977 -0.4574
  429SOL    HW2 3220   7.034   5.688   7.334 -0.6219 -0.7482  0.6493
  430SOL     OW 3221   1.177   6.462   1.046  0.0066 -0.1580 -0.0731
  430SOL    HW1 3222   1.238   6.515   1.098  1.6057  0.5727 -2.5157
  430SOL    HW2 3223   1.187   6.374   1.081  0.8113  0.3408  1.0281
  431SOL     OW 3224   3.782   2.052   1.161 -0.1692  0.1560  0.1433
  431SOL    HW1 3225   3.856   2.057   1.100 -0.1382 -0.8446  0.0727
  431SOL    HW2 3226   3.820   2.066   1.247 -0.2641  1.9173 -0.0802
  432SOL     OW 3227   1.914   0.626   5.976  0.1861  0.1707  0.0975
  432SOL    HW1 3228   1.977   0.555   5.988  1.2168  0.9284 -0.6619
  432SOL    HW2 3229   1.896   0.628   5.882 -2.4145 -1.1898  0.4561
  433SOL     OW 3230   4.750   8.057   2.203  0.4496  0.0063  0.0541
  433SOL    HW1 3231   4.672   8.057   2.147  0.2417 -2.2785  0.2238
  433SOL    HW2 3232   4.720   8.017   2.284  2.1451 -2.8055 -0.5613
  434SOL     OW 3233   3.763   3.522   7.776 -0.0970 -0.4803  0.0518
  434SOL    HW1 3234   3.783   3.446   7.721  0.8630 -0.1368 -0.0909
  434SOL    HW2 3235   3.843   3.538   7.825  0.1858  1.2388 -0.8949
  435SOL     OW 3236   6.114   2.260   4.564  0.4733  0.4901  0.0750
  435SOL    HW1 3237   6.025   2.259   4.527 -0.4547 -1.8076  2.0840
  435SOL    HW2 3238   6.111   2.327   4.632  0.9001  1.7380 -1.0968
  436SOL     OW 3239   6.084   5.100   5.040  0.3568  0.2411  0.3254
  436SOL    HW1 3240   6.026   5.038   4.995 -0.0706  0.4038  0.6515
  436SOL    HW2 3241   6.068   5.184   4.996  0.2658  0.3077  0.4857
  437SOL     OW 3242   6.254   3.338   5.888  0.4039 -0.7527  0.6564
  437SOL    HW1 3243   6.233   3.421   5.846  0.2333 -1.4814 -0.7574
  437SOL    HW2 3244   6.327   3.359   5.946  1.1547  0.1605 -0.5663
  438SOL     OW 3245   6.526   1.661   2.443  0.4080 -0.7168  0.3552
  438SOL    HW1 3246   6.515   1.627   2.355 -1.9085  1.8782 -0.4981
  438SOL    HW2 3247   6.441   1.651   2.484  0.8571  0.0807  1.5326
  439SOL     OW 3248   6.191   7.783   5.984 -0.2911 -0.2407  0.0448
  439SOL    HW1 3249   6.115   7.767   5.928  0.6116 -0.8276 -1.0493
  439SOL    HW2 3250   6.169   7.863   6.031 -0.2999  1.4007 -2.5827
  440SOL     OW 3251   4.916   7.329   2.138  0.1163  0.3094  0.0525
  440SOL    HW1 3252   4.890   7.274   2.064  1.7107  0.6840 -0.8324
  440SOL    HW2 3253   4.839   7.331   2.194 -1.4949  0.7976 -2.0503
  441SOL     OW 3254   1.671   1.868   7.731  0.0049 -0.3648 -0.6021
  441SOL    HW1 3255   1.715   1.938   7.683 -1.6901 -0.4008 -2.3190
  441SOL    HW2 3256   1.728   1.792   7.720  1.7365  0.5761  1.0662
  442SOL     OW 3257   0.372   4.158   6.606 -0.1854 -0.0387 -0.2684
  442SOL    HW1 3258   0.377   4.064   6.588 -1.6142 -0.1687 -0.0672
  442SOL    HW2 3259   0.296   4.189   6.556  0.5983  1.1321 -0.7889
  443SOL     OW 3260   4.311   3.235   6.278 -0.1616  0.3419  0.3116
  443SOL    HW1 3261   4.267   3.304   6.228 -0.6533 -0.0712  0.1651
  443SOL    HW2 3262   4.240   3.188   6.321 -0.0104 -1.1380 -0.9398
  444SOL     OW 3263   8.562   2.223   1.104  0.2351 -0.6231 -0.1339
  444SOL    HW1 3264   8.582   2.193   1.193 -0.5212 -1.3300 -0.1908
  444SOL    HW2 3265   8.625   2.176   1.049  0.4376 -0.4918 -0.0200
  445SOL     OW 3266   4.728   2.901   1.396 -0.0968 -0.3074 -0.6524
  445SOL    HW1 3267   4.633   2.898   1.403 -0.0339 -0.4525  0.3005
  445SOL    HW2 3268   4.755   2.809   1.397  0.1284 -0.2341  0.3526
  446SOL     OW 3269   5.364   6.864   8.820  0.4035 -0.3886  0.4468
  446SOL    HW1 3270   5.376   6.786   8.766  1.4387  0.0684 -0.0002
  446SOL    HW2 3271   5.274   6.857   8.853  0.8202 -2.2965  1.2911
  447SOL     OW 3272   0.509   5.465   5.177  0.4198 -0.3310 -0.6310
  447SOL    HW1 3273   0.507   5.441   5.085  0.1004  0.0820 -0.7346
  447SOL    HW2 3274   0.569   5.540   5.181  0.8874 -0.7070 -0.4105
  448SOL     OW 3275   6.134   6.948   8.033 -0.3225  0.2560  0.1191
  448SOL    HW1 3276   6.123   6.967   7.940 -0.3975  1.1055  0.2965
  448SOL    HW2 3277   6.106   6.856   8.042  1.5884 -0.4933 -1.0344
  449SOL     OW 3278   4.705   8.285   2.605  0.0524  0.2471 -0.9110
  449SOL    HW1 3279   4.665   8.330   2.679  1.7973 -0.6039  0.6467
  449SOL    HW2 3280   4.766   8.349   2.568  1.1614 -0.1814  0.1257
  450SOL     OW 3281   4.109   6.744   6.208 -0.0796  0.2047 -0.8254
  450SOL    HW1 3282   4.163   6.668   6.184 -1.4678 -0.9316 -0.4791
  450SOL    HW2 3283   4.162   6.820   6.184  2.0834 -0.8386  0.4044
  451SOL     OW 3284   8.338   7.121   5.150 -0.6119 -0.2943 -0.1953
  451SOL    HW1 3285   8.376   7.156   5.069  0.6091  1.4008  1.0162
  451SOL    HW2 3286   8.395   7.048   5.173  1.3867  1.4892  0.9705
  452SOL     OW 3287   0.074   2.645   2.543  0.2811 -0.5178 -1.0364
  452SOL    HW1 3288  -0.017   2.640   2.574  0.3175 -1.3087 -1.0356
  452SOL    HW2 3289   0.122   2.683   2.616 -0.2529  1.1309 -1.5012
  453SOL     OW 3290   7.644   0.011   8.689  0.0299  0.0744  0.4236
  453SOL    HW1 3291   7.647  -0.078   8.723 -3.6135 -1.9255 -3.4528
  453SOL    HW2 3292   7.735   0.037   8.681  1.3421 -3.7565  0.8259
  454SOL     OW 3293   6.151   4.249   2.717 -0.4401 -0.9902 -0.4986
  454SOL    HW1 3294   6.244   4.258   2.700 -0.4497 -0.9235 -0.5178
  454SOL    HW2 3295   6.110   4.257   2.631 -0.5744  0.5534 -0.3272
  455SOL     OW 3296   3.166   7.282   8.825 -0.2723  0.4759  0.8123
  455SOL    HW1 3297   3.118   7.232   8.891 -0.3573 -0.0963  0.3264
  455SOL    HW2 3298   3.208   7.352   8.874 -0.8423  0.4327  1.3834
  456SOL     OW 3299   3.629   2.482   2.348 -0.1500  0.3632 -0.0074
  456SOL    HW1 3300   3.547   2.434   2.332  0.0234 -0.8045  2.1797
  456SOL    HW2 3301   3.697   2.426   2.311 -0.2072  0.5832 -0.4519
  457SOL     OW 3302   0.465   7.107   1.016 -0.2427 -0.7024 -0.2431
  457SOL    HW1 3303   0.533   7.074   0.957  0.3299 -1.1353  0.6323
  457SOL    HW2 3304   0.467   7.202   1.004  0.8921 -0.6584  0.1396
  458SOL     OW 3305   1.073   0.126   4.994 -0.9696  0.2413 -0.2619
  458SOL    HW1 3306   1.139   0.163   4.935 -0.0347 -2.5095 -1.1186
  458SOL    HW2 3307   0.990   0.137   4.947 -0.6999  1.0249 -0.5690
  459SOL     OW 3308   8.865   0.752   7.077  0.0273 -0.5117 -0.3967
  459SOL    HW1 3309   8.861   0.744   7.172  0.6439  1.7728 -0.1364
  459SOL    HW2 3310   8.774   0.760   7.049 -0.0982 -0.2179  0.0964
  460SOL     OW 3311   2.711   6.945   4.859 -0.1153  0.7606  0.5797
  460SOL    HW1 3312   2.705   6.868   4.801  0.1842  1.6197 -0.6340
  460SOL    HW2 3313   2.750   6.912   4.939 -2.4503 -0.9131  1.1210
  461SOL     OW 3314   7.895   1.158   3.181  0.5531 -0.0106 -0.5992
  461SOL    HW1 3315   7.911   1.249   3.205  0.4223  0.0463 -0.7277
  461SOL    HW2 3316   7.957   1.108   3.234 -1.2103 -0.0716  1.5594
  462SOL     OW 3317   5.093   4.275   2.090 -0.0780 -0.8699  0.0514
  462SOL    HW1 3318   5.163   4.284   2.154 -1.7266  0.2784  1.7972
  462SOL    HW2 3319   5.122   4.203   2.033  2.0823 -1.0087  1.2175
  463SOL     OW 3320   6.204   5.774   7.323  0.3366 -0.6950 -0.7262
  463SOL    HW1 3321   6.287   5.801   7.284  0.0630  0.3038 -0.6285
  463SOL    HW2 3322   6.221   5.769   7.417 -0.7675  3.8817 -0.0769
  464SOL     OW 3323   7.866   1.551   7.435  0.5110 -0.3161  0.2092
  464SOL    HW1 3324   7.899   1.462   7.447  1.9136  0.0977 -0.3989
  464SOL    HW2 3325   7.944   1.606   7.441 -0.5153  1.0515  2.1300
  465SOL     OW 3326   3.185   4.900   5.649 -0.8182 -0.2831  0.6451
  465SOL    HW1 3327   3.209   4.815   5.688 -0.8203 -1.2389 -1.2923
  465SOL    HW2 3328   3.113   4.879   5.589  1.0740  0.4730 -2.0991
  466SOL     OW 3329   3.753   7.476   0.898 -0.4636  0.1281  0.9214
  466SOL    HW1 3330   3.739   7.435   0.812 -0.2848 -0.2166  1.0527
  466SOL    HW2 3331   3.848   7.477   0.908 -0.5012 -0.2538  1.3156
  467SOL     OW 3332   4.904   1.086   6.539 -0.4746  0.2405  0.1308
  467SOL    HW1 3333   4.899   1.099   6.445 -0.1027 -1.3846 -0.1558
  467SOL    HW2 3334   4.970   1.148   6.569  0.2930 -0.0564 -0.8887
  468SOL     OW 3335   5.217   8.062   4.996 -0.5738 -0.7807 -0.4081
  468SOL    HW1 3336   5.280   7.997   5.030 -0.0784 -0.2339 -0.2626
  468SOL    HW2 3337   5.269   8.141   4.983 -0.8943 -0.7836 -1.8438
  469SOL     OW 3338   4.320   6.758   0.686  0.1002  0.0292 -0.4130
  469SOL    HW1 3339   4.299   6.734   0.777 -2.1909 -1.7698 -1.3176
  469SOL    HW2 3340   4.411   6.731   0.676 -0.3923 -2.3671  0.6380
  470SOL     OW 3341   7.254   6.056   5.350 -0.6311 -0.2878  0.0568
  470SOL    HW1 3342   7.343   6.028   5.369 -0.2055 -1.1483 -2.7647
  470SOL    HW2 3343   7.263   6.142   5.310 -0.7808 -1.2390 -2.1697
  471SOL     OW 3344   7.469   1.985   5.461  0.2541  0.3503  0.8093
  471SOL    HW1 3345   7.414   1.969   5.385 -0.3964 -2.4880  1.7700
  471SOL    HW2 3346   7.410   2.026   5.525  0.1798  0.5584  0.6063
  472SOL     OW 3347   7.676   0.138   7.363  0.2178  0.2434 -0.0420
  472SOL    HW1 3348   7.581   0.143   7.360  0.2621  1.0979 -0.1677
  472SOL    HW2 3349   7.704   0.225   7.392  0.9511 -0.0763  0.2380
  473SOL     OW 3350   0.789   2.846   5.095 -0.1135 -0.5241 -0.1905
  473SOL    HW1 3351   0.791   2.819   5.187  0.2822 -0.9190 -0.3151
  473SOL    HW2 3352   0.699   2.828   5.068  0.3405 -2.5852 -0.5167
  474SOL     OW 3353   0.089   5.557   4.407  0.5222  0.1739  0.0300
  474SOL    HW1 3354   0.157   5.512   4.357 -0.7178 -0.3940 -1.1934
  474SOL    HW2 3355   0.093   5.648   4.376  0.6081  0.1094 -0.1456
  475SOL     OW 3356   8.620   4.269   5.940 -0.3168  0.2287  0.0275
  475SOL    HW1 3357   8.688   4.268   5.873  0.5816  2.6925  0.7510
  475SOL    HW2 3358   8.666   4.244   6.021  0.3009  3.4469  0.8325
  476SOL     OW 3359   2.745   7.400   4.797 -0.1276 -0.1244 -0.2380
  476SOL    HW1 3360   2.717   7.392   4.706  0.8832 -0.9587 -0.4987
  476SOL    HW2 3361   2.770   7.491   4.807 -1.4419  0.2748 -0.4234
  477SOL     OW 3362   3.580   7.791   8.005 -0.0477 -0.1100 -0.0333
  477SOL    HW1 3363   3.537   7.864   8.049 -0.5037 -1.1326  1.3030
  477SOL    HW2 3364   3.653   7.767   8.062  1.5365  0.7263 -1.5990
  478SOL     OW 3365   2.544   6.173   0.501 -0.0520  0.3122 -0.0950
  478SOL    HW1 3366   2.639   6.166   0.485  0.0250 -0.9511  0.7238
  478SOL    HW2 3367   2.510   6.088   0.472 -0.9025  0.6849 -0.1849
  479SOL     OW 3368   1.851   4.643   8.066  0.3228  0.1400 -0.0644
  479SOL    HW1 3369   1.938   4.682   8.067 -0.2967  1.5979 -0.1713
  479SOL    HW2 3370   1.791   4.717   8.074 -0.9077 -0.8622  0.4313
  480SOL     OW 3371   5.628   1.990   8.277  0.2568  0.0488  0.0902
  480SOL    HW1 3372   5.720   1.966   8.287 -0.4763 -2.5470  1.7094
  480SOL    HW2 3373   5.618   2.072   8.325  1.8705  0.9227 -0.9805
  481SOL     OW 3374   3.889   6.223   2.010  0.2119 -0.3064  0.4261
  481SOL    HW1 3375   3.797   6.200   2.025  0.2473 -0.9925 -0.3633
  481SOL    HW2 3376   3.929   6.142   1.979  0.7237  0.3902 -0.7740
  482SOL     OW 3377   1.694   2.152   3.642  0.6025  0.2701  0.0671
  482SOL    HW1 3378   1.726   2.139   3.732  0.9810 -1.0183 -0.2409
  482SOL    HW2 3379   1.774   2.165   3.591  0.3803  1.1048 -0.0798
  483SOL     OW 3380   8.410   6.000   6.869 -0.0789  0.5425 -0.2834
  483SOL    HW1 3381   8.353   6.030   6.940 -1.1782 -2.0629  0.0322
  483SOL    HW2 3382   8.493   5.979   6.911 -0.6376 -0.7238  0.2366
  484SOL     OW 3383   2.024   0.892   2.216  0.5326  0.6477 -0.0394
  484SOL    HW1 3384   2.031   0.912   2.123  2.1155  0.2773 -0.0171
  484SOL    HW2 3385   2.044   0.974   2.260  0.2136  0.7143 -0.0165
  485SOL     OW 3386   2.576   2.982   1.020  0.6845 -0.5686  0.0729
  485SOL    HW1 3387   2.619   2.902   1.051 -1.2732 -1.6720  0.1266
  485SOL    HW2 3388   2.573   2.972   0.924  0.6203 -0.4578  0.0633
  486SOL     OW 3389   8.807   4.521   0.303 -0.3057 -0.1014  0.2176
  486SOL    HW1 3390   8.718   4.526   0.268  0.5501 -1.1707 -2.3272
  486SOL    HW2 3391   8.831   4.429   0.294  1.6270  0.4495 -0.7370
  487SOL     OW 3392   0.802   4.185   8.386  0.3942  0.2520 -0.3351
  487SOL    HW1 3393   0.856   4.154   8.313 -1.5005  0.2175 -1.7923
  487SOL    HW2 3394   0.798   4.110   8.445 -0.6704 -0.8919 -1.7793
  488SOL     OW 3395   2.243   7.457   0.132  0.0677 -0.5983  0.0489
  488SOL    HW1 3396   2.255   7.531   0.073  2.3979 -0.6056  0.4351
  488SOL    HW2 3397   2.274   7.489   0.217 -2.6997 -0.7662  1.2377
  489SOL     OW 3398   1.137   1.047   2.947 -0.5072  0.3472  0.2619
  489SOL    HW1 3399   1.125   1.126   2.894  0.8983  0.1331 -0.4332
  489SOL    HW2 3400   1.164   1.079   3.033 -1.4923  0.6564  0.4681
  490SOL     OW 3401   5.549   6.797   5.541 -0.0615 -0.4923  0.1767
  490SOL    HW1 3402   5.593   6.729   5.593 -0.0085 -0.0390  0.7321
  490SOL    HW2 3403   5.479   6.750   5.496  0.5749 -1.1006 -0.2076
  491SOL     OW 3404   4.665   2.838   7.682 -0.4486  0.3117  0.4250
  491SOL    HW1 3405   4.606   2.764   7.669 -1.1570  0.5414  1.9743
  491SOL    HW2 3406   4.749   2.799   7.706 -0.1138 -0.0107 -1.2052
  492SOL     OW 3407   0.645   0.430   8.108 -0.3042 -0.0931 -0.7766
  492SOL    HW1 3408   0.555   0.455   8.089 -0.5153  0.3000  0.6284
  492SOL    HW2 3409   0.684   0.508   8.148  1.0158  0.1250 -2.3726
  493SOL     OW 3410   5.257   1.662   0.427 -0.2509  0.1236 -0.2236
  493SOL    HW1 3411   5.244   1.624   0.514  0.6955 -1.9478 -0.9126
  493SOL    HW2 3412   5.228   1.753   0.435 -0.1750 -0.0180  2.2421
  494SOL     OW 3413   4.536   2.291   5.976  0.5418  1.0059 -0.4571
  494SOL    HW1 3414   4.553   2.241   5.896 -0.8634 -2.1014  1.0466
  494SOL    HW2 3415   4.446   2.321   5.967  0.2314  0.2614  0.1452
  495SOL     OW 3416   8.768   4.247   7.963  0.1284 -0.0555  0.1654
  495SOL    HW1 3417   8.696   4.294   7.919  0.2271 -0.7848 -0.8203
  495SOL    HW2 3418   8.746   4.154   7.950  0.0117 -0.3038  1.9498
  496SOL     OW 3419   1.654   5.175   3.843  0.2802 -0.0778  0.2628
  496SOL    HW1 3420   1.569   5.135   3.825 -1.4065  1.1585  4.2013
  496SOL    HW2 3421   1.648   5.262   3.801  0.9418 -1.0491 -1.9981
  497SOL     OW 3422   7.599   1.397   2.089 -0.0841  0.5448 -0.6685
  497SOL    HW1 3423   7.557   1.325   2.043  0.2488  0.3085 -0.6108
  497SOL    HW2 3424   7.601   1.369   2.181  1.3506 -0.0320 -0.8426
  498SOL     OW 3425   2.742   0.729   2.404  0.0430 -0.3627 -0.4022
  498SOL    HW1 3426   2.791   0.650   2.384  0.8158  0.5707 -2.4265
  498SOL    HW2 3427   2.766   0.791   2.335 -3.0251  0.5692 -0.7931
  499SOL     OW 3428   1.386   7.583   3.117  0.4081  0.4488 -0.3504
  499SOL    HW1 3429   1.413   7.615   3.032  0.8741 -0.1455 -0.4328
  499SOL    HW2 3430   1.292   7.601   3.121  0.5450  1.2550 -0.6315
  500SOL     OW 3431   0.950   2.350   7.032 -0.4492  0.0263  0.1854
  500SOL    HW1 3432   1.020   2.389   7.085 -1.0169  0.6073  0.5129
  500SOL    HW2 3433   0.952   2.257   7.056  2.8240 -0.8766 -2.6783
  501SOL     OW 3434   3.830   4.751   0.305 -0.1671  0.5513  0.6301
  501SOL    HW1 3435   3.850   4.719   0.218 -0.2616  0.4888  0.6307
  501SOL    HW2 3436   3.910   4.794   0.335 -0.7797  2.4427 -0.3285
  502SOL     OW 3437   7.842   3.741   0.643 -0.1228 -0.3553 -0.0214
  502SOL    HW1 3438   7.772   3.677   0.627  1.1250 -1.4479 -1.3589
  502SOL    HW2 3439   7.817   3.817   0.590 -0.2821 -0.7592 -0.5335
  503SOL     OW 3440   1.877   6.992   8.758  0.7094  0.0757  0.2836
  503SOL    HW1 3441   1.839   6.911   8.790  1.1291 -0.3273 -0.2299
  503SOL    HW2 3442   1.846   7.059   8.819 -0.3890 -0.3208  0.1907
  504SOL     OW 3443   2.963   1.944   0.743 -0.0660  0.0311 -0.0081
  504SOL    HW1 3444   2.966   2.039   0.756  0.3883  0.3027 -1.7680
  504SOL    HW2 3445   2.869   1.923   0.744 -0.1185 -0.0567  3.4480
  505SOL     OW 3446   5.403   4.208   2.923 -0.5660 -0.1921  0.3155
  505SOL    HW1 3447   5.324   4.257   2.898  0.3277  0.5658 -1.1336
  505SOL    HW2 3448   5.423   4.155   2.846  0.1385 -0.6491  0.8133
  506SOL     OW 3449   7.861   7.580   3.372 -0.1448 -0.2365 -0.2371
  506SOL    HW1 3450   7.901   7.541   3.449 -0.7865 -0.2737  0.0895
  506SOL    HW2 3451   7.903   7.536   3.298 -0.1662 -0.8526  0.1111
  507SOL     OW 3452   3.694   6.465   1.439 -0.3384 -0.3427 -0.0171
  507SOL    HW1 3453   3.679   6.556   1.465 -2.3803 -0.2060 -1.4656
  507SOL    HW2 3454   3.787   6.450   1.459 -0.2820  1.5934  1.5223
  508SOL     OW 3455   7.966   5.830   4.049  0.3639 -0.7319 -0.0334
  508SOL    HW1 3456   7.873   5.852   4.039  0.8127  0.6425 -1.7525
  508SOL    HW2 3457   8.002   5.900   4.103  0.9037  0.3133 -1.6843
  509SOL     OW 3458   5.526   4.082   4.123  0.1005 -0.3228 -0.3814
  509SOL    HW1 3459   5.517   4.120   4.036 -1.2719 -0.9979 -0.5592
  509SOL    HW2 3460   5.503   3.990   4.112 -2.6450  0.0724  1.1056
  510SOL     OW 3461   4.665   2.378   5.062  0.0223 -0.5235  0.1322
  510SOL    HW1 3462   4.723   2.326   5.118 -2.2117 -2.3417  0.9013
  510SOL    HW2 3463   4.578   2.364   5.098 -0.9809  1.9118 -1.1270
  511SOL     OW 3464   1.033   0.490   4.742 -0.5414  0.4398  0.1812
  511SOL    HW1 3465   0.941   0.474   4.721 -0.5712  0.8563 -0.0157
  511SOL    HW2 3466   1.052   0.574   4.700  0.0889  0.0775 -0.2676
  512SOL     OW 3467   8.142   0.682   7.105 -0.2375  0.4893 -0.0677
  512SOL    HW1 3468   8.182   0.612   7.052 -0.6596  0.8170 -0.8336
  512SOL    HW2 3469   8.180   0.670   7.192 -3.5903 -3.6123  1.1778
  513SOL     OW 3470   1.987   0.828   1.677 -1.1101  0.2545  0.2330
  513SOL    HW1 3471   2.081   0.824   1.695 -1.1956  0.8170  0.8573
  513SOL    HW2 3472   1.973   0.915   1.639 -1.1434 -0.4241 -1.3575
  514SOL     OW 3473   4.202   0.044   0.321 -0.3660 -0.4739 -0.2530
  514SOL    HW1 3474   4.240   0.024   0.406  1.5061 -0.7460 -1.1080
  514SOL    HW2 3475   4.211   0.139   0.313 -0.3385 -0.4772 -0.2587
  515SOL     OW 3476   1.618   7.388   1.952  0.5498 -0.3681  0.4622
  515SOL    HW1 3477   1.581   7.326   2.014  0.2948  0.5379  1.2299
  515SOL    HW2 3478   1.691   7.340   1.911  0.6388 -1.0187  1.3540
  516SOL     OW 3479   5.225   6.333   6.205 -0.3350  0.5367 -0.1076
  516SOL    HW1 3480   5.153   6.278   6.236 -1.9995  1.7532 -1.5912
  516SOL    HW2 3481   5.260   6.375   6.283 -0.2169 -1.2053  0.8188
  517SOL     OW 3482   0.239   4.683   5.678 -0.1513 -0.3604  0.5821
  517SOL    HW1 3483   0.211   4.592   5.671  1.8963 -1.0823  0.8749
  517SOL    HW2 3484   0.317   4.680   5.735 -1.0220  1.8053  2.0545
  518SOL     OW 3485   4.348   1.592   5.881  0.3644 -0.0585 -0.2050
  518SOL    HW1 3486   4.311   1.670   5.922  0.5563 -0.9828  1.8397
  518SOL    HW2 3487   4.275   1.530   5.876  0.7172 -0.5159  0.2274
  519SOL     OW 3488   6.366   8.545   1.303  0.0761  0.1390 -0.4487
  519SOL    HW1 3489   6.307   8.471   1.291 -0.2170 -0.0793  1.8255
  519SOL    HW2 3490   6.344   8.606   1.233 -1.9386 -0.5190 -0.4353
  520SOL     OW 3491   4.739   2.901   6.978 -0.1347 -0.2291  0.0978
  520SOL    HW1 3492   4.773   2.871   7.062 -1.4088 -0.9861  0.3678
  520SOL    HW2 3493   4.646   2.920   6.995 -0.0641  1.0618 -0.7835
  521SOL     OW 3494   5.462   1.830   1.305 -0.4774 -0.0654  0.0509
  521SOL    HW1 3495   5.508   1.753   1.273  0.1126 -0.2613  1.2929
  521SOL    HW2 3496   5.473   1.895   1.235  1.2022 -0.3038  0.0380
  522SOL     OW 3497   1.921   7.425   4.968  0.5496 -0.7108  0.1851
  522SOL    HW1 3498   2.016   7.436   4.973  0.7975 -2.1421 -0.6655
  522SOL    HW2 3499   1.898   7.456   4.880  0.2536 -0.4853  0.3414
  523SOL     OW 3500   2.810   8.259   7.125  0.3015 -0.4655 -0.2771
  523SOL    HW1 3501   2.764   8.338   7.095  0.9704  0.5207  1.1592
  523SOL    HW2 3502   2.881   8.247   7.062 -0.4886 -0.6230 -1.1659
  524SOL     OW 3503   0.026   1.713   2.546 -0.5843  0.4352  0.1912
  524SOL    HW1 3504  -0.053   1.765   2.532 -0.1314  0.9144 -0.7180
  524SOL    HW2 3505   0.065   1.705   2.458 -0.4000 -1.0630  0.3891
  525SOL     OW 3506   8.209   3.057   7.353  0.2350  0.2763  0.0051
  525SOL    HW1 3507   8.291   3.010   7.371  0.6263  1.4839  1.5745
  525SOL    HW2 3508   8.161   3.053   7.435 -1.9904 -1.6217 -1.2529
  526SOL     OW 3509   6.198   3.302   2.878 -0.1553  0.0048  0.2457
  526SOL    HW1 3510   6.187   3.265   2.790  2.1505 -0.6164  0.1505
  526SOL    HW2 3511   6.265   3.247   2.919 -0.0963  1.1983  1.8531
  527SOL     OW 3512   3.276   2.311   5.573  0.8570  0.6259  0.4611
  527SOL    HW1 3513   3.301   2.220   5.587  1.2195  0.7345  0.5551
  527SOL    HW2 3514   3.187   2.308   5.539  1.3131  0.1723 -0.7322
  528SOL     OW 3515   5.184   4.752   7.883 -0.0997  0.7675 -0.5982
  528SOL    HW1 3516   5.277   4.753   7.905 -0.4524 -1.2259  1.3586
  528SOL    HW2 3517   5.181   4.715   7.794  0.9753  0.7471 -0.6365
  529SOL     OW 3518   4.683   8.031   4.033 -0.0337 -0.2187  0.5135
  529SOL    HW1 3519   4.728   7.948   4.018 -0.8380 -0.3185 -1.7561
  529SOL    HW2 3520   4.590   8.010   4.024 -0.2241  0.9982 -0.6120
  530SOL     OW 3521   1.011   5.447   7.999  0.0125 -0.1178  0.0835
  530SOL    HW1 3522   1.006   5.352   8.008  0.9762 -0.1278  0.5654
  530SOL    HW2 3523   0.941   5.480   8.055 -1.2829 -0.5721 -1.1989
  531SOL     OW 3524   4.508   3.434   6.332 -0.6118  0.1449 -0.8566
  531SOL    HW1 3525   4.586   3.399   6.288 -0.7283 -2.4925  0.8527
  531SOL    HW2 3526   4.437   3.420   6.270 -0.1417  0.2029 -1.4204
  532SOL     OW 3527   0.477   7.850   7.671 -0.8061 -0.3469  0.2731
  532SOL    HW1 3528   0.525   7.807   7.742 -0.8775 -0.3515  0.3187
  532SOL    HW2 3529   0.475   7.943   7.695 -1.1668 -0.4037  0.4724
  533SOL     OW 3530   8.077   4.859   3.023 -0.2065 -0.2733  0.0985
  533SOL    HW1 3531   8.005   4.801   2.999 -0.0728 -0.4757  0.1788
  533SOL    HW2 3532   8.067   4.874   3.116  0.1227 -0.6839  0.2059
  534SOL     OW 3533   3.253   2.882   1.314 -0.1932  0.2263 -0.4012
  534SOL    HW1 3534   3.270   2.789   1.299  0.2698  0.5265 -1.8312
  534SOL    HW2 3535   3.157   2.888   1.317 -0.2289 -0.2869 -0.2911
  535SOL     OW 3536   7.173   4.341   8.382 -0.6563 -0.0059  0.0079
  535SOL    HW1 3537   7.087   4.360   8.420 -1.2295  0.1929 -1.3140
  535SOL    HW2 3538   7.200   4.259   8.423 -1.4271 -0.0056  0.5295
  536SOL     OW 3539   2.428   2.144   3.933  0.1986 -0.3805  0.1331
  536SOL    HW1 3540   2.405   2.112   4.019  0.5257 -0.9655  0.0072
  536SOL    HW2 3541   2.523   2.134   3.928  0.1442 -0.6990 -0.4260
  537SOL     OW 3542   6.060   3.268   8.702  0.1679 -0.6648  0.5185
  537SOL    HW1 3543   6.061   3.217   8.783  0.8415 -0.7756  0.4431
  537SOL    HW2 3544   5.992   3.227   8.648  1.2856 -2.0417  0.1060
  538SOL     OW 3545   5.740   2.184   1.325 -0.5122 -0.3051  0.0184
  538SOL    HW1 3546   5.803   2.217   1.390 -0.8004  1.8865 -0.7230
  538SOL    HW2 3547   5.655   2.199   1.364 -0.7070 -3.5038  1.1270
  539SOL     OW 3548   2.018   3.758   3.951 -0.3034 -0.0301 -0.4423
  539SOL    HW1 3549   2.011   3.853   3.944 -0.4824  0.1177  1.3206
  539SOL    HW2 3550   1.973   3.736   4.033  0.6472 -1.5073 -0.2713
  540SOL     OW 3551   2.579   1.242   0.763 -0.2123  0.5474 -0.5406
  540SOL    HW1 3552   2.605   1.222   0.673 -0.3512 -2.1965 -0.0527
  540SOL    HW2 3553   2.583   1.158   0.809 -0.6533  1.7613  1.9155
  541SOL     OW 3554   8.750   6.423   6.193 -0.4724  0.4281  0.3502
  541SOL    HW1 3555   8.681   6.441   6.130 -0.9239 -0.6210  0.5342
  541SOL    HW2 3556   8.727   6.338   6.231  1.8163 -0.7829 -0.8024
  542SOL     OW 3557   2.036   7.401   2.187  0.0528  0.3658 -0.3499
  542SOL    HW1 3558   2.061   7.309   2.196 -0.6461 -0.2341 -3.4538
  542SOL    HW2 3559   1.945   7.399   2.159 -0.4250  2.1159  0.8959
  543SOL     OW 3560   3.770   6.990   1.891 -0.0483 -0.4451 -0.5271
  543SOL    HW1 3561   3.685   7.018   1.927 -0.7462 -1.6435 -1.1729
  543SOL    HW2 3562   3.771   7.026   1.803  0.2545 -0.1642 -0.4071
  544SOL     OW 3563   4.182   8.464   7.113  0.2710  0.3681  0.2475
  544SOL    HW1 3564   4.196   8.402   7.042  0.5268 -0.4830  1.0282
  544SOL    HW2 3565   4.234   8.541   7.088  1.1656 -0.3033  0.0028
  545SOL     OW 3566   1.904   3.771   2.123  0.3932  0.8596 -0.5331
  545SOL    HW1 3567   1.845   3.842   2.149 -2.2691 -1.3059 -0.1315
  545SOL    HW2 3568   1.865   3.736   2.043 -1.2554 -2.9521  1.6260
  546SOL     OW 3569   6.237   7.414   0.990  0.1978 -0.1202  0.1121
  546SOL    HW1 3570   6.178   7.453   0.926 -0.2015  0.8899  1.0595
  546SOL    HW2 3571   6.298   7.363   0.938  0.0479  0.8782 -1.0959
  547SOL     OW 3572   8.467   1.170   4.390 -0.2054  0.3781  0.3309
  547SOL    HW1 3573   8.431   1.171   4.478  0.6402  0.0610  0.6996
  547SOL    HW2 3574   8.519   1.250   4.384  2.0871 -0.9345  1.1880
  548SOL     OW 3575   6.835   7.328   4.841  0.2742  0.4244 -0.4637
  548SOL    HW1 3576   6.885   7.246   4.842 -1.1579 -0.5000 -1.7971
  548SOL    HW2 3577   6.855   7.369   4.926  0.6901 -1.4952  0.4112
  549SOL     OW 3578   3.831   3.969   7.865  0.0325 -0.2243 -0.2521
  549SOL    HW1 3579   3.788   4.048   7.898 -1.2004 -0.3906 -1.3559
  549SOL    HW2 3580   3.761   3.904   7.861  0.9247 -1.2258  0.1460
  550SOL     OW 3581   5.621   6.312   0.676 -0.1343  0.2309  0.3104
  550SOL    HW1 3582   5.592   6.403   0.665  0.4906  0.5019  0.8091
  550SOL    HW2 3583   5.700   6.319   0.730 -0.4476 -0.6575  0.9160
  551SOL     OW 3584   6.789   0.086   0.064 -0.0515  0.0495  0.1319
  551SOL    HW1 3585   6.831   0.005   0.093  0.8142  0.2039 -0.6758
  551SOL    HW2 3586   6.847   0.122  -0.003 -1.5786  0.1556 -1.1978
  552SOL     OW 3587   7.326   1.790   0.473 -0.1870 -0.0833  0.2919
  552SOL    HW1 3588   7.345   1.788   0.566 -1.9590 -0.8658  0.6804
  552SOL    HW2 3589   7.304   1.881   0.454  1.8350  0.4379  0.2263
  553SOL     OW 3590   8.141   5.090   2.653 -0.0228  0.1592  0.6550
  553SOL    HW1 3591   8.171   5.008   2.693  1.2956  0.9141  1.2607
  553SOL    HW2 3592   8.172   5.159   2.711  0.3679  1.1854 -0.7014
  554SOL     OW 3593   5.634   3.724   2.929  0.5525 -0.1067 -0.2128
  554SOL    HW1 3594   5.720   3.732   2.886  1.8748 -0.7622  2.1094
  554SOL    HW2 3595   5.612   3.814   2.954  0.8525  0.0053 -0.3359
  555SOL     OW 3596   0.510   8.537   5.273  0.3269  0.6574  0.3002
  555SOL    HW1 3597   0.480   8.458   5.228 -1.5699 -0.2745  2.9739
  555SOL    HW2 3598   0.585   8.509   5.325  1.8901  1.5124 -1.3648
  556SOL     OW 3599   1.854   7.337   1.675  0.0332  0.6872 -0.0532
  556SOL    HW1 3600   1.933   7.389   1.688  0.7958 -0.0868 -1.3771
  556SOL    HW2 3601   1.823   7.362   1.588 -0.5388  0.1601 -0.0063
  557SOL     OW 3602   6.508   0.694   4.549  0.4340 -0.2272 -0.6705
  557SOL    HW1 3603   6.416   0.674   4.530 -0.6006  0.5453  2.8508
  557SOL    HW2 3604   6.540   0.617   4.596  0.8082  0.4781  0.2650
  558SOL     OW 3605   5.419   8.221   4.379  0.0151  0.2104  0.5550
  558SOL    HW1 3606   5.482   8.258   4.441 -0.8775  1.6455  0.6404
  558SOL    HW2 3607   5.413   8.287   4.309  2.3788 -2.1143 -2.0971
  559SOL     OW 3608   0.926   6.976   8.829  0.1689 -0.1957 -0.2992
  559SOL    HW1 3609   0.953   6.947   8.741  0.2511  0.5013 -0.5097
  559SOL    HW2 3610   0.988   7.045   8.850  0.0355 -0.2422  0.2422
  560SOL     OW 3611   4.197   6.491   6.996  0.1372 -0.2963 -0.1512
  560SOL    HW1 3612   4.111   6.503   7.036 -0.3179 -1.4031 -0.7473
  560SOL    HW2 3613   4.237   6.577   7.000 -0.5082 -0.0233  1.2412
  561SOL     OW 3614   6.769   2.180   8.444  0.8615  0.0463 -0.2575
  561SOL    HW1 3615   6.702   2.244   8.468  1.4510  0.9984 -1.0656
  561SOL    HW2 3616   6.837   2.191   8.510  0.6085 -0.3453  0.0804
  562SOL     OW 3617   6.749   3.464   0.661  0.1993 -0.0146 -0.0064
  562SOL    HW1 3618   6.803   3.507   0.728 -0.0802 -0.5833  0.6037
  562SOL    HW2 3619   6.716   3.535   0.607 -0.6796  0.5992  1.2900
  563SOL     OW 3620   6.051   0.219   3.885  0.3442  0.1604  0.7889
  563SOL    HW1 3621   6.030   0.131   3.917  0.0832  0.5137  1.6107
  563SOL    HW2 3622   6.147   0.224   3.891  0.6604 -1.0095 -1.8088
  564SOL     OW 3623   3.182   5.731   0.567 -1.2491 -0.3667 -0.4722
  564SOL    HW1 3624   3.217   5.690   0.646 -0.7767 -0.1752 -0.5792
  564SOL    HW2 3625   3.115   5.791   0.599 -0.0044  0.8667 -0.0703
  565SOL     OW 3626   4.679   5.004   8.189  0.1103  0.6661  0.0242
  565SOL    HW1 3627   4.684   5.099   8.179 -0.0781  0.8147  1.1737
  565SOL    HW2 3628   4.724   4.987   8.272 -1.0000 -0.1061  0.4827
  566SOL     OW 3629   3.790   8.541   6.328 -0.4128 -0.2314 -0.2152
  566SOL    HW1 3630   3.781   8.482   6.403 -0.7039 -0.5053 -0.4661
  566SOL    HW2 3631   3.872   8.587   6.344 -0.3220 -0.5078  0.1214
  567SOL     OW 3632   8.515   5.558   5.237 -0.1044 -0.2009 -0.2289
  567SOL    HW1 3633   8.508   5.475   5.284  0.0347  0.4335  0.9411
  567SOL    HW2 3634   8.608   5.579   5.239 -0.3436  0.8288  1.0051
  568SOL     OW 3635   0.499   6.161   0.332 -0.6751 -0.2172  0.1459
  568SOL    HW1 3636   0.500   6.076   0.288  0.2933 -0.9910  1.5677
  568SOL    HW2 3637   0.539   6.221   0.270 -0.2914 -1.0467 -0.4292
  569SOL     OW 3638   3.912   2.356   5.405  0.2123  0.3457 -0.1020
  569SOL    HW1 3639   3.872   2.441   5.387 -0.8980  0.1595  1.4028
  569SOL    HW2 3640   3.841   2.301   5.436  1.3864 -0.3482  1.5208
  570SOL     OW 3641   4.724   1.319   5.359 -0.3804  0.3411 -0.3426
  570SOL    HW1 3642   4.790   1.276   5.305 -1.4316  0.6843 -1.9724
  570SOL    HW2 3643   4.760   1.407   5.374 -0.5373  0.5986 -1.4033
  571SOL     OW 3644   5.448   2.887   0.877  0.4474 -0.0509 -0.4807
  571SOL    HW1 3645   5.514   2.895   0.946 -0.6694  0.3205  0.5768
  571SOL    HW2 3646   5.469   2.957   0.816  0.5553  0.5629  0.2525
  572SOL     OW 3647   0.914   0.526   1.059  0.1412  0.0677  0.0106
  572SOL    HW1 3648   0.937   0.586   1.130 -0.0936  0.3148 -0.1135
  572SOL    HW2 3649   0.905   0.441   1.101  0.8120  0.0577  0.1322
  573SOL     OW 3650   0.837   5.826   8.572  0.1023  0.0485 -0.3341
  573SOL    HW1 3651   0.813   5.898   8.631 -0.3225  0.6688 -1.2419
  573SOL    HW2 3652   0.824   5.862   8.484 -0.2621 -1.1861 -0.8051
  574SOL     OW 3653   8.030   2.831   6.260  0.0294 -0.0644 -0.4711
  574SOL    HW1 3654   7.939   2.802   6.248  0.9335 -2.4576 -2.2680
  574SOL    HW2 3655   8.064   2.839   6.171  1.6331  0.7130  0.1744
  575SOL     OW 3656   5.764   6.041   8.795 -0.1132 -0.0438 -0.1680
  575SOL    HW1 3657   5.681   6.061   8.840 -0.0662  0.9426 -0.5209
  575SOL    HW2 3658   5.746   5.959   8.749 -1.0689  0.4321 -0.6698
  576SOL     OW 3659   1.955   0.637   6.399 -0.2827 -0.0146  0.2089
  576SOL    HW1 3660   1.976   0.674   6.485 -0.5251 -1.7206  1.0500
  576SOL    HW2 3661   1.865   0.665   6.383 -0.3514  0.0389  0.6627
  577SOL     OW 3662   5.786   6.460   3.249 -0.2369  0.0339 -0.1394
  577SOL    HW1 3663   5.730   6.478   3.174 -0.4591 -0.0124  0.0119
  577SOL    HW2 3664   5.822   6.546   3.273 -0.8597  0.2026  0.2409
  578SOL     OW 3665   4.992   3.648   8.771 -0.1315  0.2864 -0.1815
  578SOL    HW1 3666   5.045   3.601   8.707 -0.4618  0.2425 -0.4270
  578SOL    HW2 3667   4.967   3.581   8.836 -0.1102  0.2510 -0.2098
  579SOL     OW 3668   7.362   1.287   6.765 -0.3679 -0.0829  0.0108
  579SOL    HW1 3669   7.299   1.217   6.782  0.3753 -1.0385 -0.9944
  579SOL    HW2 3670   7.385   1.320   6.852  1.0810 -2.7487  0.7575
  580SOL     OW 3671   0.287   8.459   7.687 -0.4592  0.7330  0.1757
  580SOL    HW1 3672   0.302   8.526   7.754  1.2756  0.3168  0.2673
  580SOL    HW2 3673   0.299   8.505   7.604  0.4193  0.6257  0.2326
  581SOL     OW 3674   2.591   1.521   3.045 -0.1270 -0.2563  0.1740
  581SOL    HW1 3675   2.686   1.527   3.039 -0.2715  0.9086 -1.5887
  581SOL    HW2 3676   2.564   1.604   3.084 -0.4551 -0.3220  0.0908
  582SOL     OW 3677   8.500   7.989   6.281  0.0206  0.0654 -0.0008
  582SOL    HW1 3678   8.452   8.070   6.300  0.1273 -0.0104  0.6142
  582SOL    HW2 3679   8.442   7.940   6.222  0.0980  0.7251 -0.6447
  583SOL     OW 3680   5.787   7.906   2.826 -0.4710 -0.0199 -0.5423
  583SOL    HW1 3681   5.704   7.894   2.872 -0.7822  1.2528 -0.7311
  583SOL    HW2 3682   5.764   7.958   2.749  0.4304 -0.0322 -0.8235
  584SOL     OW 3683   1.817   5.198   0.552 -0.0376  0.8241 -0.2867
  584SOL    HW1 3684   1.892   5.251   0.580  0.4880  1.8162 -3.1462
  584SOL    HW2 3685   1.848   5.108   0.556  0.9845  1.1494 -0.4638
  585SOL     OW 3686   3.601   7.756   6.879 -0.0629  0.1473 -0.2300
  585SOL    HW1 3687   3.635   7.673   6.913  2.4711  1.9584  2.0653
  585SOL    HW2 3688   3.554   7.795   6.953 -1.4921  0.6612 -1.3696
  586SOL     OW 3689   1.604   0.792   7.163  0.6681 -0.4501  0.6303
  586SOL    HW1 3690   1.609   0.743   7.081  0.4372 -0.8066  0.8287
  586SOL    HW2 3691   1.523   0.843   7.156  1.1068  0.2124  0.2567
  587SOL     OW 3692   2.474   5.548   7.883 -0.7538 -0.1549  0.1974
  587SOL    HW1 3693   2.446   5.543   7.792 -0.9763 -1.4218  0.3134
  587SOL    HW2 3694   2.506   5.460   7.903  1.7350  0.7820  0.5879
  588SOL     OW 3695   7.901   1.181   6.606  0.3769 -0.1958 -0.7697
  588SOL    HW1 3696   7.974   1.163   6.665  0.3351 -0.1442 -0.7013
  588SOL    HW2 3697   7.933   1.252   6.550  0.4078 -0.2276 -0.7916
  589SOL     OW 3698   5.118   2.759   0.316  0.1814  0.2557  0.2286
  589SOL    HW1 3699   5.067   2.730   0.392 -0.2059 -0.6673 -0.3604
  589SOL    HW2 3700   5.094   2.851   0.304 -0.3379  0.1944  0.7521
  590SOL     OW 3701   1.024   2.110   0.831  0.2373 -0.1716  0.2151
  590SOL    HW1 3702   0.946   2.159   0.805  0.0403 -0.9256 -0.6688
  590SOL    HW2 3703   1.094   2.147   0.779 -0.1584 -1.6860 -1.5044
  591SOL     OW 3704   1.091   6.370   0.363  0.0627  0.3464  0.1466
  591SOL    HW1 3705   1.065   6.395   0.451 -1.1658  0.8894 -0.3509
  591SOL    HW2 3706   1.112   6.453   0.319  0.0248  0.1361 -0.2740
  592SOL     OW 3707   7.815   0.633   8.197 -0.3519 -0.1518  0.2038
  592SOL    HW1 3708   7.764   0.622   8.118 -1.9772 -0.5909  1.2729
  592SOL    HW2 3709   7.838   0.544   8.224  2.0860  0.0677 -0.9037
  593SOL     OW 3710   0.541   3.632   0.512  0.3788  0.2699 -0.2353
  593SOL    HW1 3711   0.484   3.657   0.440 -1.0329 -1.0220  0.3780
  593SOL    HW2 3712   0.504   3.676   0.588 -0.9213 -1.8973  0.4770
  594SOL     OW 3713   2.911   5.227   0.362  0.3000  0.0547  0.1860
  594SOL    HW1 3714   2.906   5.312   0.319  0.6600 -0.4035 -0.7820
  594SOL    HW2 3715   2.950   5.168   0.297 -1.0873 -1.1484  0.3801
  595SOL     OW 3716   1.532   7.546   4.428  0.4593 -0.5850  0.6328
  595SOL    HW1 3717   1.465   7.479   4.436 -0.5593  0.3368  0.0760
  595SOL    HW2 3718   1.532   7.591   4.512 -2.4119  1.9048 -0.5232
  596SOL     OW 3719   0.571   0.245   3.364 -0.3339 -0.5474 -0.2096
  596SOL    HW1 3720   0.490   0.208   3.331  0.2060 -0.3068 -1.8694
  596SOL    HW2 3721   0.640   0.200   3.316  0.4150  1.1381 -0.7898
  597SOL     OW 3722   7.695   6.954   4.011 -0.0605  0.0505  0.0990
  597SOL    HW1 3723   7.613   7.002   4.024  1.1231  2.0618  0.4732
  597SOL    HW2 3724   7.762   7.022   4.002  1.9013 -1.5014  1.8309
  598SOL     OW 3725   6.194   0.824   3.986  0.3296 -0.1607 -0.1732
  598SOL    HW1 3726   6.155   0.764   3.922  0.8877 -1.8652  1.0091
  598SOL    HW2 3727   6.132   0.825   4.059  1.0557 -0.5632  0.4651
  599SOL     OW 3728   5.316   7.893   3.197  0.5133 -0.2475  0.0670
  599SOL    HW1 3729   5.329   7.863   3.287  0.0941 -1.7868 -0.3381
  599SOL    HW2 3730   5.222   7.884   3.182  0.4592  0.7941 -0.2703
  600SOL     OW 3731   7.155   3.372   0.851  0.6347 -0.0180  0.7239
  600SOL    HW1 3732   7.133   3.314   0.777 -0.0223  1.2855 -0.1468
  600SOL    HW2 3733   7.081   3.363   0.911  0.9897 -0.7954  1.0532
  601SOL     OW 3734   2.700   8.126   6.732 -0.1282  0.4329  0.0896
  601SOL    HW1 3735   2.718   8.033   6.744 -3.2520 -0.3612 -0.4687
  601SOL    HW2 3736   2.611   8.138   6.767 -1.1396  2.4639 -2.7671
  602SOL     OW 3737   5.055   2.904   3.450 -0.5497 -0.5883  0.1910
  602SOL    HW1 3738   5.068   2.820   3.405  1.3018  0.9323 -2.4118
  602SOL    HW2 3739   5.142   2.945   3.448 -1.3369  1.2717  1.6612
  603SOL     OW 3740   5.218   8.556   4.915  0.1901  0.1954  0.0488
  603SOL    HW1 3741   5.234   8.621   4.983  0.1126  0.5094 -0.2279
  603SOL    HW2 3742   5.154   8.597   4.857 -0.6413 -0.5297  0.4299
  604SOL     OW 3743   1.216   8.288   4.060  0.4362 -0.0005  0.1920
  604SOL    HW1 3744   1.175   8.204   4.080  1.6817 -0.5760  0.3956
  604SOL    HW2 3745   1.263   8.312   4.139  2.5133 -0.5841 -0.7944
  605SOL     OW 3746   6.615   0.705   6.203 -0.3727 -0.4400 -0.0226
  605SOL    HW1 3747   6.580   0.755   6.129 -0.4801 -1.1485 -0.4608
  605SOL    HW2 3748   6.618   0.615   6.171  1.7068 -0.4529  0.0296
  606SOL     OW 3749   2.021   4.723   6.924 -0.4698 -0.1273  0.0100
  606SOL    HW1 3750   2.009   4.635   6.958  0.1480 -0.6681 -1.1149
  606SOL    HW2 3751   2.115   4.733   6.915 -0.6083 -0.2555 -2.0766
  607SOL     OW 3752   5.350   4.561   6.532  0.3529 -0.0713  0.4573
  607SOL    HW1 3753   5.387   4.580   6.446  0.7654 -0.7305  0.4797
  607SOL    HW2 3754   5.301   4.640   6.555 -2.4104 -0.9611 -1.7438
  608SOL     OW 3755   7.603   2.348   4.333  0.5189  0.3664  0.0857
  608SOL    HW1 3756   7.654   2.270   4.310 -0.5625  0.1701 -1.9136
  608SOL    HW2 3757   7.665   2.404   4.378  2.3328 -0.1936 -1.5557
  609SOL     OW 3758   4.730   5.832   5.786  0.0789 -0.0128 -0.9592
  609SOL    HW1 3759   4.815   5.834   5.830 -0.5827  0.6705  0.3455
  609SOL    HW2 3760   4.666   5.830   5.857 -1.0206  0.5066 -1.8992
  610SOL     OW 3761   1.063   6.711   8.629 -0.3163  0.0248  0.3239
  610SOL    HW1 3762   1.111   6.638   8.669  0.1680  0.0320 -0.2316
  610SOL    HW2 3763   1.126   6.783   8.627 -0.4214  0.1033 -0.2167
  611SOL     OW 3764   2.098   0.060   8.058  0.5315  0.3335  0.0527
  611SOL    HW1 3765   2.049   0.081   8.137  1.3976 -2.2720  1.3913
  611SOL    HW2 3766   2.160   0.132   8.049 -1.9408  2.5916 -0.4614
  612SOL     OW 3767   4.358   7.881   0.583 -0.3514 -0.2237  0.0287
  612SOL    HW1 3768   4.331   7.929   0.661  0.9400  1.4430 -0.4852
  612SOL    HW2 3769   4.286   7.890   0.522 -0.8904 -0.5526  0.6068
  613SOL     OW 3770   0.721   2.045   7.702 -0.1277  0.1200 -0.0877
  613SOL    HW1 3771   0.639   1.999   7.723 -0.4766  1.1596  0.9560
  613SOL    HW2 3772   0.699   2.097   7.625 -1.5073  2.8093  1.9233
  614SOL     OW 3773   4.769   4.316   8.728  0.4278 -0.0732 -0.3650
  614SOL    HW1 3774   4.756   4.361   8.644  3.0872  1.8152  0.0865
  614SOL    HW2 3775   4.710   4.361   8.789 -0.9745 -0.9688 -1.0107
  615SOL     OW 3776   6.828   7.843   3.460 -0.4909 -0.6851  0.1884
  615SOL    HW1 3777   6.886   7.917   3.474 -0.5083 -0.6879  0.2740
  615SOL    HW2 3778   6.814   7.841   3.365  0.7367 -1.5079 -0.0033
  616SOL     OW 3779   7.233   5.708   6.072 -0.1811 -0.2784 -0.1196
  616SOL    HW1 3780   7.231   5.622   6.114 -1.8959 -0.1339  0.1569
  616SOL    HW2 3781   7.220   5.770   6.144  2.8490  0.4129 -0.0174
  617SOL     OW 3782   5.978   2.513   7.678 -0.7189 -0.4766  0.1986
  617SOL    HW1 3783   6.033   2.485   7.752 -0.7323 -1.2647 -0.0867
  617SOL    HW2 3784   5.928   2.587   7.713 -1.6891 -1.6418  1.4160
  618SOL     OW 3785   4.312   7.192   8.833  0.6378 -0.1564  0.4370
  618SOL    HW1 3786   4.324   7.101   8.861 -0.7670 -0.0324  1.5501
  618SOL    HW2 3787   4.259   7.232   8.902  0.1478  1.1728 -0.6641
  619SOL     OW 3788   7.189   0.988   0.534  0.5840  0.3935 -0.2275
  619SOL    HW1 3789   7.196   0.938   0.452  0.1963  0.0047 -0.0228
  619SOL    HW2 3790   7.280   0.998   0.563  0.9379  2.3204 -1.7590
  620SOL     OW 3791   8.565   4.508   0.216 -0.3499 -0.0997  0.0118
  620SOL    HW1 3792   8.478   4.478   0.242 -0.2071 -0.0071  0.6239
  620SOL    HW2 3793   8.584   4.461   0.136 -0.6497 -0.6945  0.2832
  621SOL     OW 3794   7.770   4.503   4.776  0.1008  0.4608 -0.3190
  621SOL    HW1 3795   7.782   4.554   4.856  1.9471 -1.4192  0.6977
  621SOL    HW2 3796   7.846   4.526   4.722  0.0577  0.0220 -0.5677
  622SOL     OW 3797   1.308   2.259   5.152 -0.1512  0.1144 -0.3078
  622SOL    HW1 3798   1.269   2.173   5.171  0.5595 -0.4766 -1.4214
  622SOL    HW2 3799   1.383   2.265   5.211 -1.1355  0.7157  0.9480
  623SOL     OW 3800   6.344   6.974   4.452 -0.2845 -0.3537  0.2605
  623SOL    HW1 3801   6.342   6.884   4.484 -0.6420  0.1978  1.8537
  623SOL    HW2 3802   6.253   7.003   4.456 -0.3535 -0.2529 -1.3064
  624SOL     OW 3803   5.622   2.865   2.436  0.1670 -0.1577 -0.2887
  624SOL    HW1 3804   5.703   2.916   2.445  0.0075 -0.2157  2.4111
  624SOL    HW2 3805   5.597   2.875   2.344  1.6196  2.3399 -0.5004
  625SOL     OW 3806   6.970   2.860   2.403  0.2027  0.5277  0.2919
  625SOL    HW1 3807   6.898   2.800   2.422 -0.0999  1.1409  1.1694
  625SOL    HW2 3808   6.955   2.888   2.312  0.7720 -1.2547 -0.4001
  626SOL     OW 3809   4.950   8.248   3.801 -0.3961 -0.2608 -0.0330
  626SOL    HW1 3810   5.044   8.259   3.793 -0.1179 -0.4996  2.1837
  626SOL    HW2 3811   4.933   8.160   3.768 -0.2732  0.6886 -2.8238
  627SOL     OW 3812   3.793   2.644   0.677 -0.1543 -0.5238 -0.0497
  627SOL    HW1 3813   3.747   2.562   0.695  0.8786 -0.9521  0.7435
  627SOL    HW2 3814   3.799   2.688   0.762  1.5350 -0.8329  0.0220
  628SOL     OW 3815   8.448   8.033   5.723  0.3549  0.4306  0.0768
  628SOL    HW1 3816   8.370   7.992   5.685  0.7076 -0.2231  0.0367
  628SOL    HW2 3817   8.486   7.964   5.778  0.9369  0.7219  0.0415
  629SOL     OW 3818   1.507   2.027   1.423  0.1096  0.1611 -0.6015
  629SOL    HW1 3819   1.437   2.039   1.359  0.7298 -0.3400 -1.3931
  629SOL    HW2 3820   1.580   2.078   1.388  0.1837  0.6170  0.1780
  630SOL     OW 3821   1.115   5.274   7.731  0.3193  0.2747 -0.1580
  630SOL    HW1 3822   1.172   5.349   7.718  0.3343  0.2761 -0.0857
  630SOL    HW2 3823   1.170   5.197   7.716  0.5742  0.2557  0.8118
  631SOL     OW 3824   5.429   7.103   0.358  0.1571 -0.3102  0.1868
  631SOL    HW1 3825   5.347   7.150   0.341  0.0255  0.0073  1.5355
  631SOL    HW2 3826   5.465   7.083   0.272 -1.9225 -1.5078 -0.4474
  632SOL     OW 3827   0.205   3.165   8.500 -0.4509  0.2690 -0.3144
  632SOL    HW1 3828   0.215   3.094   8.563 -0.3598 -0.4651 -1.1380
  632SOL    HW2 3829   0.246   3.240   8.543  0.7037 -0.5127  0.0265
  633SOL     OW 3830   0.013   2.950   4.561  0.0879  0.7332 -0.1036
  633SOL    HW1 3831   0.100   2.939   4.523 -0.1667 -0.9364 -0.3123
  633SOL    HW2 3832   0.029   2.954   4.656  0.3933  0.1128 -0.1190
  634SOL     OW 3833   2.668   1.278   0.495  0.2083 -0.0551 -0.4110
  634SOL    HW1 3834   2.666   1.272   0.399 -0.1606 -1.2689 -0.3364
  634SOL    HW2 3835   2.601   1.344   0.516  0.1834  0.1088 -0.9711
  635SOL     OW 3836   8.755   6.618   0.911 -0.2445 -0.7208  0.3105
  635SOL    HW1 3837   8.690   6.637   0.843 -2.2756 -0.3510  2.2363
  635SOL    HW2 3838   8.810   6.696   0.914 -0.8191 -0.2917 -0.1327
  636SOL     OW 3839   8.106   0.556   0.159 -0.2088 -0.3076  0.0219
  636SOL    HW1 3840   8.194   0.534   0.126 -0.4493  0.0318 -0.8949
  636SOL    HW2 3841   8.121   0.615   0.232  0.3569 -1.1278  0.5788
  637SOL     OW 3842   1.025   1.004   7.228 -0.3118  0.0446  0.0784
  637SOL    HW1 3843   1.011   1.023   7.135  0.1259 -1.4883 -0.3335
  637SOL    HW2 3844   0.943   0.965   7.258 -0.4889  0.6289  0.3849
  638SOL     OW 3845   1.265   7.229   5.183 -0.0242  0.1964  0.7957
  638SOL    HW1 3846   1.261   7.257   5.092  2.4002 -2.3533 -0.2272
  638SOL    HW2 3847   1.335   7.281   5.222  1.1786 -0.9801  0.2482
  639SOL     OW 3848   3.632   4.111   8.076 -0.3246 -0.1940  0.3775
  639SOL    HW1 3849   3.587   4.120   7.992  0.7158  1.2223 -0.0673
  639SOL    HW2 3850   3.580   4.047   8.124 -0.4402 -1.7342 -1.6727
  640SOL     OW 3851   2.472   7.904   6.254  0.1565  0.0527 -0.0304
  640SOL    HW1 3852   2.517   7.947   6.181 -0.6983  0.1976 -0.4792
  640SOL    HW2 3853   2.380   7.927   6.243  0.1304  1.0266  1.7243
  641SOL     OW 3854   3.627   6.647   6.754 -0.1688 -0.2226 -0.3916
  641SOL    HW1 3855   3.566   6.684   6.818 -2.2092 -2.8131 -0.6907
  641SOL    HW2 3856   3.637   6.716   6.688 -1.1680  1.0113  0.6795
  642SOL     OW 3857   0.867   0.686   5.860 -0.6824  0.2098  0.4964
  642SOL    HW1 3858   0.924   0.678   5.937 -0.3008 -3.8343 -0.0018
  642SOL    HW2 3859   0.918   0.737   5.798  0.5527  0.4167  1.6386
  643SOL     OW 3860   2.964   0.386   5.135  0.1680  0.2358  0.4153
  643SOL    HW1 3861   2.965   0.482   5.134  0.4283  0.2363  0.6703
  643SOL    HW2 3862   3.030   0.361   5.071 -1.2974  0.2163 -1.1416
  644SOL     OW 3863   6.729   2.999   2.102 -0.0500  0.2452 -0.2440
  644SOL    HW1 3864   6.722   2.904   2.098 -1.1570  0.3068 -0.0450
  644SOL    HW2 3865   6.714   3.021   2.194  1.7508  0.5289  0.0342
  645SOL     OW 3866   0.105   3.328   1.877  0.2107 -0.9092  0.4606
  645SOL    HW1 3867   0.102   3.286   1.963  0.0117 -0.5095  0.6532
  645SOL    HW2 3868   0.114   3.255   1.815  0.3523 -1.1994  0.8181
  646SOL     OW 3869   8.470   2.584   7.874 -0.4791  0.3609  0.1659
  646SOL    HW1 3870   8.466   2.489   7.887 -2.6107  0.0025 -2.3218
  646SOL    HW2 3871   8.456   2.620   7.962 -1.2232 -1.6411  0.9367
  647SOL     OW 3872   2.661   4.202   2.873 -0.3300  0.3880 -0.2536
  647SOL    HW1 3873   2.679   4.288   2.834 -0.3691  0.7793  0.5716
  647SOL    HW2 3874   2.643   4.221   2.965  1.0271 -0.6472  0.2577
  648SOL     OW 3875   3.829   7.623   5.432  0.6439 -0.9101  0.4815
  648SOL    HW1 3876   3.749   7.586   5.471 -0.3917 -0.3225 -0.9644
  648SOL    HW2 3877   3.800   7.706   5.393  2.2294 -0.1345  0.8910
  649SOL     OW 3878   2.261   0.310   7.924  0.4128 -0.5760  0.0715
  649SOL    HW1 3879   2.213   0.333   8.003 -1.9104 -1.3110 -1.0271
  649SOL    HW2 3880   2.346   0.279   7.955  0.5881  1.6450  2.0625
  650SOL     OW 3881   2.789   4.911   6.758 -0.3018  0.0673  0.0293
  650SOL    HW1 3882   2.695   4.915   6.741 -0.0112  0.1367 -1.6916
  650SOL    HW2 3883   2.799   4.836   6.817 -1.6576  1.4990  2.2286
  651SOL     OW 3884   5.631   2.654   7.755  0.3772  0.3223  0.9702
  651SOL    HW1 3885   5.580   2.585   7.712  0.8713  0.1055  0.7251
  651SOL    HW2 3886   5.671   2.702   7.683 -1.2525  1.9070  1.0452
  652SOL     OW 3887   3.678   3.421   1.460 -0.1056 -0.6502 -0.2146
  652SOL    HW1 3888   3.681   3.465   1.545 -0.5592  0.6321 -0.8425
  652SOL    HW2 3889   3.752   3.457   1.412  0.0013 -1.1877 -0.4538
  653SOL     OW 3890   2.179   1.719   4.673 -0.0556  0.1412 -0.1815
  653SOL    HW1 3891   2.237   1.702   4.600  1.1710 -0.7130  0.9437
  653SOL    HW2 3892   2.178   1.815   4.682  2.0033  0.1542  0.3768
  654SOL     OW 3893   6.100   6.573   8.056  0.3016 -0.1777 -0.2008
  654SOL    HW1 3894   6.105   6.617   8.141  1.5288  2.4135 -1.4834
  654SOL    HW2 3895   6.034   6.622   8.008  1.0230 -0.3419 -1.3863
  655SOL     OW 3896   8.708   7.517   1.436 -0.1892 -0.3966 -0.1188
  655SOL    HW1 3897   8.772   7.550   1.373 -0.4859 -0.2038 -0.3247
  655SOL    HW2 3898   8.730   7.560   1.518 -0.4954  0.2364 -0.3560
  656SOL     OW 3899   6.497   2.478   7.206 -0.1545 -0.0645 -0.3428
  656SOL    HW1 3900   6.560   2.486   7.278 -0.4999  0.0323 -0.0510
  656SOL    HW2 3901   6.490   2.384   7.191 -0.6358 -0.1242  0.2410
  657SOL     OW 3902   0.252   3.253   1.376 -0.0189  0.2831  0.2821
  657SOL    HW1 3903   0.305   3.177   1.398 -0.5405 -0.4003 -0.7485
  657SOL    HW2 3904   0.163   3.228   1.402 -0.0249  0.9705  0.9466
  658SOL     OW 3905   5.081   2.511   1.790 -0.4618  0.2074 -0.5322
  658SOL    HW1 3906   5.052   2.459   1.715 -0.5426 -0.4957 -0.0237
  658SOL    HW2 3907   5.007   2.509   1.851  0.0936 -0.3929  0.1530
  659SOL     OW 3908   3.341   8.193   5.069  0.4770 -0.9167  0.2860
  659SOL    HW1 3909   3.370   8.215   4.980 -0.3479 -0.5739  0.0964
  659SOL    HW2 3910   3.246   8.185   5.063  0.3749 -0.5605  1.2089
  660SOL     OW 3911   5.619   1.052   0.085  0.1163  0.0184 -0.3261
  660SOL    HW1 3912   5.617   1.125   0.024  0.0276  0.7634  0.5618
  660SOL    HW2 3913   5.534   1.054   0.128  0.1430 -0.5654 -0.2376
  661SOL     OW 3914   6.063   2.922   3.271  0.0030  0.2801  0.6964
  661SOL    HW1 3915   6.069   2.834   3.308  0.4107  0.5831  1.3777
  661SOL    HW2 3916   6.096   2.979   3.341  0.0226  0.9446  0.1504
  662SOL     OW 3917   5.173   4.350   6.653 -0.2072  0.0622 -0.2568
  662SOL    HW1 3918   5.207   4.264   6.676  0.9354  0.2548 -1.0923
  662SOL    HW2 3919   5.250   4.397   6.618 -1.2990  0.5542 -2.1495
  663SOL     OW 3920   0.247   3.535   2.031 -0.1612  0.0061 -0.0577
  663SOL    HW1 3921   0.218   3.489   1.953  0.5694  1.1812 -1.0487
  663SOL    HW2 3922   0.342   3.542   2.022  0.1169 -1.0670  1.6294
  664SOL     OW 3923   2.567   6.419   0.107 -0.0443  1.1827 -0.0485
  664SOL    HW1 3924   2.494   6.404   0.167 -0.7496 -0.3347 -1.2072
  664SOL    HW2 3925   2.528   6.465   0.032  0.0910  0.1161 -0.7987
  665SOL     OW 3926   1.179   7.442   8.227 -0.0334 -0.8884  0.2416
  665SOL    HW1 3927   1.227   7.407   8.303 -2.9503 -0.5022  2.4320
  665SOL    HW2 3928   1.216   7.529   8.214 -1.0600  0.0407  2.8986
  666SOL     OW 3929   5.403   2.406   4.353 -0.2742  0.0641 -0.1956
  666SOL    HW1 3930   5.340   2.355   4.301  2.1441 -2.7095 -0.6821
  666SOL    HW2 3931   5.392   2.375   4.442 -1.9588  2.2299  0.4345
  667SOL     OW 3932   7.234   6.715   8.080  0.2959 -0.3916  0.3790
  667SOL    HW1 3933   7.204   6.650   8.016  4.3061  0.0544 -2.2692
  667SOL    HW2 3934   7.248   6.795   8.029  0.6117  0.9981  2.5046
  668SOL     OW 3935   6.041   5.461   8.789 -0.0072  0.3740 -0.0291
  668SOL    HW1 3936   6.072   5.484   8.702 -0.7537 -0.5376 -0.5566
  668SOL    HW2 3937   6.077   5.374   8.806  1.5988  1.2285  1.3419
  669SOL     OW 3938   2.047   7.941   7.264 -0.0148 -0.2104 -0.3772
  669SOL    HW1 3939   1.975   8.003   7.276  0.4288  0.1723  0.3436
  669SOL    HW2 3940   2.055   7.897   7.348 -0.9214 -1.9305 -1.1226
  670SOL     OW 3941   5.493   2.905   5.456 -0.0693 -0.1659 -0.1634
  670SOL    HW1 3942   5.449   2.988   5.475  1.5009  0.3233  1.6689
  670SOL    HW2 3943   5.441   2.865   5.386 -2.0488  1.4052  0.3251
  671SOL     OW 3944   4.435   4.801   5.835 -0.7300  0.2809  0.4807
  671SOL    HW1 3945   4.483   4.736   5.784 -0.9262  0.7733 -0.3624
  671SOL    HW2 3946   4.351   4.810   5.789 -0.3752  1.7523  0.0475
  672SOL     OW 3947   8.116   5.773   1.608  0.6614 -0.2742 -0.0239
  672SOL    HW1 3948   8.094   5.819   1.689  0.3581 -0.1484 -0.1756
  672SOL    HW2 3949   8.124   5.681   1.634  0.7635 -0.2053  0.1870
  673SOL     OW 3950   8.276   4.255   8.463 -0.3348 -0.1219 -0.0409
  673SOL    HW1 3951   8.348   4.193   8.478 -0.2756 -0.0999 -0.2212
  673SOL    HW2 3952   8.253   4.289   8.549  0.0459  0.0670 -0.0160
  674SOL     OW 3953   6.544   5.796   7.857 -0.6167 -0.6171 -0.1155
  674SOL    HW1 3954   6.585   5.878   7.831  0.9475 -1.1057  0.6835
  674SOL    HW2 3955   6.617   5.736   7.872 -1.4836 -1.1293  2.7404
  675SOL     OW 3956   2.939   7.121   8.058  0.1023  0.0668  0.2884
  675SOL    HW1 3957   3.005   7.178   8.096 -1.7855  1.7578  1.2517
  675SOL    HW2 3958   2.907   7.069   8.132 -0.0482 -0.3086 -0.0376
  676SOL     OW 3959   0.343   8.290   5.718  0.3395  0.5548 -0.6725
  676SOL    HW1 3960   0.323   8.360   5.656 -1.2949  0.5665 -0.1868
  676SOL    HW2 3961   0.257   8.259   5.747  1.0558 -0.3761  0.5487
  677SOL     OW 3962   4.533   6.475   7.334 -0.3175  0.3354 -0.1763
  677SOL    HW1 3963   4.446   6.435   7.336  0.1210 -0.6450  0.0248
  677SOL    HW2 3964   4.573   6.449   7.417 -0.0792  1.3756  0.0464
  678SOL     OW 3965   6.211   7.980   8.648  0.2877 -0.3177 -0.9053
  678SOL    HW1 3966   6.267   8.054   8.673  1.8247 -1.6728 -0.1465
  678SOL    HW2 3967   6.221   7.973   8.553  0.5367  0.1334 -0.9121
  679SOL     OW 3968   1.695   2.346   2.056  0.1351  0.3073 -0.4231
  679SOL    HW1 3969   1.685   2.282   2.126  1.4313  0.6370  0.0879
  679SOL    HW2 3970   1.753   2.304   1.993  0.2162  0.6148 -0.5551
  680SOL     OW 3971   6.107   8.537   6.238 -0.0872 -0.7797  0.0513
  680SOL    HW1 3972   6.096   8.531   6.333  0.4070  0.0692  0.1624
  680SOL    HW2 3973   6.032   8.488   6.203 -0.2153 -1.1925  0.8696
  681SOL     OW 3974   4.701   4.752   2.732  0.3768 -0.3961  0.1610
  681SOL    HW1 3975   4.625   4.804   2.709  1.5999  1.2598 -0.3653
  681SOL    HW2 3976   4.709   4.761   2.827  0.9613  1.0093  0.0046
  682SOL     OW 3977   1.265   5.704   3.955  0.0775 -0.5286 -0.0471
  682SOL    HW1 3978   1.218   5.677   3.876 -2.4794 -1.4629  1.6693
  682SOL    HW2 3979   1.255   5.630   4.015 -1.4447  1.5657  2.4821
  683SOL     OW 3980   6.518   4.089   3.812 -0.3714 -0.3732 -0.0358
  683SOL    HW1 3981   6.423   4.074   3.810 -0.5878  0.8501 -0.0276
  683SOL    HW2 3982   6.529   4.176   3.773  0.6327  0.0106  1.0380
  684SOL     OW 3983   3.780   4.705   3.549  0.1386  0.4879 -0.5408
  684SOL    HW1 3984   3.742   4.629   3.504 -1.0423  1.6378 -1.5537
  684SOL    HW2 3985   3.852   4.668   3.600  1.5901 -0.9001 -3.3548
  685SOL     OW 3986   3.864   4.132   1.101 -0.0263 -0.2887 -0.2639
  685SOL    HW1 3987   3.950   4.134   1.143 -1.1004  1.2715  2.0443
  685SOL    HW2 3988   3.849   4.222   1.074 -2.0657  0.0932  1.9121
  686SOL     OW 3989   3.578   2.207   1.978  0.3475  0.1473 -0.1997
  686SOL    HW1 3990   3.532   2.182   1.899  1.0066 -0.0210 -0.5401
  686SOL    HW2 3991   3.651   2.262   1.947 -0.2745  1.3623  0.4132
  687SOL     OW 3992   8.806   4.389   3.961  0.0645  0.0217 -0.0340
  687SOL    HW1 3993   8.825   4.303   3.924 -0.8906  0.1366 -0.8322
  687SOL    HW2 3994   8.892   4.424   3.985  0.3967 -1.5031  1.1681
  688SOL     OW 3995   1.116   5.594   0.877  0.2455  0.2883  0.4125
  688SOL    HW1 3996   1.146   5.668   0.823 -1.1420 -0.0480 -0.8706
  688SOL    HW2 3997   1.103   5.632   0.964 -0.5213  1.5842 -0.2478
  689SOL     OW 3998   6.219   8.867   8.105 -0.1273 -0.0099  0.1417
  689SOL    HW1 3999   6.222   8.795   8.169  2.7895  0.5012  0.7431
  689SOL    HW2 4000   6.217   8.823   8.020  2.5674 -0.9640  0.4642
  690SOL     OW 4001   5.758   1.349   4.152 -0.1893 -0.0674 -0.1262
  690SOL    HW1 4002   5.790   1.439   4.141  1.7786 -0.8024 -0.8601
  690SOL    HW2 4003   5.730   1.345   4.244  0.7032  1.0016  0.2197
  691SOL     OW 4004   2.425   0.572   2.049 -0.1079  0.2008  0.5532
  691SOL    HW1 4005   2.481   0.632   2.097 -0.1394 -0.8463  1.9511
  691SOL    HW2 4006   2.482   0.534   1.982  0.4367  0.2972  0.9547
  692SOL     OW 4007   0.278   1.622   3.798  0.0958  0.1478 -0.3539
  692SOL    HW1 4008   0.183   1.620   3.789 -0.0301  2.6465 -0.3333
  692SOL    HW2 4009   0.311   1.600   3.711 -0.4597 -0.9229 -0.3135
  693SOL     OW 4010   5.535   4.597   2.371 -0.5010 -0.0384 -0.0723
  693SOL    HW1 4011   5.471   4.609   2.442  1.5122  2.6405  1.4644
  693SOL    HW2 4012   5.493   4.636   2.295 -1.5189 -0.2625  0.3432
  694SOL     OW 4013   6.153   4.448   3.189 -0.4821 -0.4230 -0.0386
  694SOL    HW1 4014   6.108   4.493   3.260  0.2344  0.5195 -0.1708
  694SOL    HW2 4015   6.246   4.452   3.212 -0.2418 -0.1298 -1.0048
  695SOL     OW 4016   7.620   5.023   0.796  0.1572 -0.3851 -0.4725
  695SOL    HW1 4017   7.526   5.015   0.811  0.0431 -0.5107 -1.2271
  695SOL    HW2 4018   7.640   5.114   0.816 -0.0387 -0.4629  0.1165
  696SOL     OW 4019   2.484   6.654   8.831 -0.3622  0.4799 -0.2426
  696SOL    HW1 4020   2.416   6.648   8.897 -1.1606 -0.4691 -1.1159
  696SOL    HW2 4021   2.438   6.650   8.747  0.6188  1.7016 -0.8770
  697SOL     OW 4022   6.690   0.872   5.002 -0.4231  0.1382  0.3987
  697SOL    HW1 4023   6.710   0.885   5.094  0.4538  0.7756  0.1350
  697SOL    HW2 4024   6.681   0.961   4.967  1.4364 -0.0073 -0.5686
  698SOL     OW 4025   2.635   2.796   6.813 -0.4743 -0.6488  0.3507
  698SOL    HW1 4026   2.615   2.836   6.728 -0.5515 -1.7409 -0.1728
  698SOL    HW2 4027   2.551   2.764   6.844 -0.7995  1.4411  1.7950
  699SOL     OW 4028   0.925   5.775   4.238  0.0616  0.2380 -0.1282
  699SOL    HW1 4029   0.858   5.788   4.171 -0.7403  3.3324  1.0967
  699SOL    HW2 4030   0.979   5.854   4.234  1.8827 -0.8797  0.8602
  700SOL     OW 4031   1.994   1.815   3.211  0.3149  0.3032 -0.2810
  700SOL    HW1 4032   1.929   1.836   3.278  0.2415 -2.4110  0.6553
  700SOL    HW2 4033   2.019   1.899   3.173 -2.6671  1.5684  0.3149
  701SOL     OW 4034   4.012   7.453   1.724  0.5036  0.5466  0.9058
  701SOL    HW1 4035   4.009   7.544   1.695 -0.3395  0.6895  1.4026
  701SOL    HW2 4036   3.920   7.428   1.733  0.6871 -0.7143 -0.2881
  702SOL     OW 4037   6.811   1.729   1.291 -0.2491  0.2991 -0.4834
  702SOL    HW1 4038   6.805   1.772   1.377  2.2993 -0.1341 -0.0255
  702SOL    HW2 4039   6.887   1.769   1.249 -2.4852  1.8793 -3.4504
  703SOL     OW 4040   3.416   2.380   2.634 -0.2940  0.0133 -0.2633
  703SOL    HW1 4041   3.472   2.334   2.696 -1.3513  0.8946  1.4294
  703SOL    HW2 4042   3.469   2.453   2.603  0.7919 -1.2996 -1.6791
  704SOL     OW 4043   7.156   7.863   3.687 -0.2226  0.0776  0.2811
  704SOL    HW1 4044   7.094   7.872   3.615 -1.0548 -0.1655  0.9456
  704SOL    HW2 4045   7.239   7.844   3.645 -1.0074 -1.6710 -0.5670
  705SOL     OW 4046   3.970   5.684   2.012  0.0518 -0.3988  0.4311
  705SOL    HW1 4047   3.994   5.595   1.983  0.3714  0.4154 -2.0346
  705SOL    HW2 4048   4.034   5.741   1.969 -0.3142  1.0798  1.7682
  706SOL     OW 4049   1.304   2.174   4.220 -0.0260 -0.1641 -0.0654
  706SOL    HW1 4050   1.341   2.218   4.144 -1.7206  0.7969 -0.3993
  706SOL    HW2 4051   1.345   2.216   4.295 -0.4614  0.9168 -0.4136
  707SOL     OW 4052   1.091   3.967   8.429 -0.4151  0.0212 -0.6593
  707SOL    HW1 4053   1.070   3.901   8.495 -0.1102  0.5902  0.0077
  707SOL    HW2 4054   1.066   4.050   8.468  1.9397  0.6274 -0.2841
  708SOL     OW 4055   4.156   1.600   6.376  0.4532  0.2994  0.1607
  708SOL    HW1 4056   4.129   1.590   6.468 -0.3538 -2.8957 -0.2804
  708SOL    HW2 4057   4.086   1.558   6.327  1.5978  0.6032 -1.8230
  709SOL     OW 4058   5.660   7.763   6.475  0.0674 -0.1654  0.1693
  709SOL    HW1 4059   5.647   7.675   6.511  1.0037 -0.8299 -1.0328
  709SOL    HW2 4060   5.606   7.765   6.396 -0.3935  0.5585  0.4944
  710SOL     OW 4061   5.359   5.861   1.551  0.1652  0.0102 -0.1215
  710SOL    HW1 4062   5.363   5.790   1.487  2.1886  0.2011 -0.2836
  710SOL    HW2 4063   5.449   5.871   1.582 -0.3636  1.4124  1.1248
  711SOL     OW 4064   6.015   1.203   1.726  0.1879 -0.6216  0.2300
  711SOL    HW1 4065   6.042   1.112   1.741 -1.9187 -1.0406  2.0829
  711SOL    HW2 4066   5.968   1.227   1.805 -0.3291  1.7130 -0.7106
  712SOL     OW 4067   0.871   4.002   0.940 -0.3316 -0.5510  0.1327
  712SOL    HW1 4068   0.948   3.954   0.910 -1.4718 -1.8994 -0.7560
  712SOL    HW2 4069   0.907   4.079   0.985  1.5067 -0.6090 -1.1205
  713SOL     OW 4070   5.896   1.778   0.428 -0.4848  0.1076 -0.2593
  713SOL    HW1 4071   5.822   1.734   0.471 -0.3728 -0.7168 -0.8921
  713SOL    HW2 4072   5.974   1.737   0.466 -0.3675  0.2789 -0.3138
  714SOL     OW 4073   3.422   6.434   6.480  0.5345  0.3712 -0.1682
  714SOL    HW1 4074   3.399   6.460   6.570  1.6522  1.5619 -0.1812
  714SOL    HW2 4075   3.350   6.378   6.452 -0.4336  0.9307  1.0587
  715SOL     OW 4076   4.945   3.339   2.809  0.0081  0.1019 -0.5510
  715SOL    HW1 4077   4.977   3.316   2.722  1.8927  1.8898 -0.3940
  715SOL    HW2 4078   4.972   3.429   2.822 -0.6691  0.0489  1.7093
  716SOL     OW 4079   1.992   3.353   5.102  0.2513 -0.5953 -0.0661
  716SOL    HW1 4080   2.023   3.439   5.074  0.9820 -1.5730 -2.5647
  716SOL    HW2 4081   2.070   3.299   5.105 -0.5922 -2.2293 -3.0043
  717SOL     OW 4082   0.112   0.894   2.805 -0.4303  0.5773  0.1688
  717SOL    HW1 4083   0.137   0.805   2.829  1.5859  0.7153 -1.2161
  717SOL    HW2 4084   0.093   0.890   2.711 -2.1883  1.2646  0.4501
  718SOL     OW 4085   4.957   2.707   2.964 -0.0154  0.0026 -0.7418
  718SOL    HW1 4086   5.002   2.685   2.882 -1.0815 -0.3991 -1.2291
  718SOL    HW2 4087   4.899   2.633   2.981  0.6754 -0.2397  0.7506
  719SOL     OW 4088   0.640   8.765   6.023  0.5646 -0.0951  0.1075
  719SOL    HW1 4089   0.676   8.700   6.084 -1.4697 -1.9103 -0.5089
  719SOL    HW2 4090   0.675   8.739   5.937 -0.1856 -0.3499 -0.1284
  720SOL     OW 4091   3.618   1.641   0.063 -0.4761 -0.6096 -0.7066
  720SOL    HW1 4092   3.582   1.616  -0.022 -0.3777 -0.1065 -0.9038
  720SOL    HW2 4093   3.674   1.568   0.088 -0.3144 -0.6596 -1.1931
  721SOL     OW 4094   2.119   3.649   6.356 -0.2266  0.0841  0.0259
  721SOL    HW1 4095   2.187   3.624   6.293 -0.1535 -0.7093  0.4160
  721SOL    HW2 4096   2.124   3.583   6.424 -3.5596 -1.9459 -1.4772
  722SOL     OW 4097   5.394   7.943   8.323  0.0907 -0.3220  0.1398
  722SOL    HW1 4098   5.402   7.944   8.418  1.5870 -0.3768  0.0477
  722SOL    HW2 4099   5.365   8.031   8.300  1.4491  0.2759  0.5627
  723SOL     OW 4100   4.672   2.532   1.237 -0.0324 -0.3556  0.1804
  723SOL    HW1 4101   4.627   2.557   1.318 -0.4899  0.0704 -0.1968
  723SOL    HW2 4102   4.759   2.572   1.246  0.6029 -1.8841  1.2851
  724SOL     OW 4103   7.417   3.982   3.261  0.9067 -0.0845 -0.1004
  724SOL    HW1 4104   7.434   3.892   3.287 -0.3962 -0.3316 -0.0540
  724SOL    HW2 4105   7.342   3.977   3.202  0.0032  1.0785  0.9073
  725SOL     OW 4106   8.656   2.296   7.091  0.4736  0.1466 -0.1267
  725SOL    HW1 4107   8.745   2.271   7.115  0.4076  0.2252  0.2052
  725SOL    HW2 4108   8.654   2.391   7.100  0.4948  0.1952 -0.6120
  726SOL     OW 4109   1.094   4.748   5.073  0.1771  0.2351 -0.4320
  726SOL    HW1 4110   1.172   4.788   5.034  1.0878  0.4139  1.4585
  726SOL    HW2 4111   1.024   4.812   5.058  0.7939  0.8735 -0.6364
  727SOL     OW 4112   8.355   1.679   7.278 -0.4562 -0.3436 -0.4395
  727SOL    HW1 4113   8.407   1.758   7.261 -1.4404 -0.0917 -2.5326
  727SOL    HW2 4114   8.397   1.611   7.226 -1.3043 -0.4940 -0.9464
  728SOL     OW 4115   5.200   1.115   1.748 -0.8511  0.4391  0.2697
  728SOL    HW1 4116   5.161   1.201   1.763 -2.1570 -0.1873  0.6204
  728SOL    HW2 4117   5.163   1.059   1.817 -2.3137 -1.0951 -1.6532
  729SOL     OW 4118   0.065   8.563   5.363  0.5116 -0.1034 -0.1789
  729SOL    HW1 4119  -0.018   8.587   5.322  1.3203  1.3674 -1.0549
  729SOL    HW2 4120   0.073   8.469   5.348 -0.6451 -0.1322 -0.7247
  730SOL     OW 4121   4.825   5.028   5.532 -0.4335 -0.5607 -0.5428
  730SOL    HW1 4122   4.839   5.106   5.587 -0.2174 -0.8910 -0.1276
  730SOL    HW2 4123   4.744   5.048   5.483 -1.0387 -0.5623  0.4336
  731SOL     OW 4124   0.272   6.384   1.084 -0.0438  0.1916 -0.0510
  731SOL    HW1 4125   0.289   6.473   1.053 -1.6261  0.2760 -0.7555
  731SOL    HW2 4126   0.183   6.366   1.057  0.1223 -1.4867  0.4254
  732SOL     OW 4127   6.176   2.982   5.331  0.1891  0.1098  0.1125
  732SOL    HW1 4128   6.115   2.930   5.382 -3.2433  1.7742 -1.9387
  732SOL    HW2 4129   6.257   2.931   5.331 -1.9488 -3.6649  0.7446
  733SOL     OW 4130   2.858   1.017   4.797  0.0381  0.6024  0.0353
  733SOL    HW1 4131   2.801   1.092   4.782  0.3875  1.0932  1.0467
  733SOL    HW2 4132   2.943   1.044   4.762 -0.2741 -0.0549 -1.2990
  734SOL     OW 4133   1.503   3.628   6.347 -0.5660 -0.2470 -0.8044
  734SOL    HW1 4134   1.538   3.636   6.436 -1.3561  2.6035 -0.6832
  734SOL    HW2 4135   1.572   3.663   6.291 -1.2976  0.9131 -0.9995
  735SOL     OW 4136   6.512   5.141   5.303 -0.5491  0.4919  0.7585
  735SOL    HW1 4137   6.481   5.086   5.231 -0.5445  2.2822 -0.6870
  735SOL    HW2 4138   6.598   5.104   5.326  0.5392  1.2155 -1.7806
  736SOL     OW 4139   7.725   1.701   0.517 -0.4967  0.5865 -0.4977
  736SOL    HW1 4140   7.699   1.683   0.608  0.3981  0.6534 -0.2172
  736SOL    HW2 4141   7.748   1.794   0.517  1.7302  0.0864 -0.2072
  737SOL     OW 4142   3.013   8.178   0.666 -0.5399 -0.1150  0.1245
  737SOL    HW1 4143   2.935   8.153   0.616 -1.0989 -1.3946  1.5463
  737SOL    HW2 4144   3.081   8.119   0.634 -0.1925  0.8428 -0.9504
  738SOL     OW 4145   4.055   2.815   5.415  0.1626  0.2737  0.1467
  738SOL    HW1 4146   4.088   2.823   5.505  0.6425  0.4860 -0.0461
  738SOL    HW2 4147   4.028   2.723   5.407  1.7127 -0.1877 -0.0282
  739SOL     OW 4148   4.596   0.378   0.708  0.1759  0.5007  0.3701
  739SOL    HW1 4149   4.576   0.443   0.776 -0.9219  0.5940 -0.0358
  739SOL    HW2 4150   4.520   0.321   0.705  0.4682  0.1369 -0.3821
  740SOL     OW 4151   3.175   5.145   2.948 -0.6019 -0.2322 -0.5575
  740SOL    HW1 4152   3.261   5.111   2.970 -0.1140  1.3352  0.1176
  740SOL    HW2 4153   3.117   5.069   2.951  0.6088 -1.1600 -0.1655
  741SOL     OW 4154   5.134   6.854   6.468 -0.1077  0.7929  0.0243
  741SOL    HW1 4155   5.214   6.821   6.426 -0.0037 -0.0792  0.8691
  741SOL    HW2 4156   5.076   6.876   6.395  0.6147  0.6897 -0.5915
  742SOL     OW 4157   0.013   2.134   7.455 -0.1995 -0.0123  0.4467
  742SOL    HW1 4158   0.079   2.140   7.524 -1.5361  0.0682  1.7966
  742SOL    HW2 4159   0.017   2.217   7.409  2.2399 -0.8792 -1.1191
  743SOL     OW 4160   2.107   5.058   8.187 -0.5192  0.5037 -0.2956
  743SOL    HW1 4161   2.187   5.112   8.181  0.7697 -1.4277 -2.6636
  743SOL    HW2 4162   2.074   5.073   8.275  2.7413  1.0612  0.9747
  744SOL     OW 4163   8.012   2.301   3.411  0.2546  0.0830 -0.3555
  744SOL    HW1 4164   7.986   2.279   3.501 -0.8319 -1.9117 -1.0944
  744SOL    HW2 4165   8.096   2.346   3.421  0.4987 -0.6878  1.6195
  745SOL     OW 4166   4.391   4.575   7.194 -0.3179 -0.0244 -0.3155
  745SOL    HW1 4167   4.297   4.567   7.174 -0.1198  1.4590 -2.0398
  745SOL    HW2 4168   4.399   4.662   7.235  0.4992  0.5178 -1.5812
  746SOL     OW 4169   4.845   6.200   1.330  0.1071 -0.5134 -0.0010
  746SOL    HW1 4170   4.893   6.248   1.397 -0.6109  0.5163 -0.2001
  746SOL    HW2 4171   4.910   6.144   1.288  1.0681  0.6372 -0.0757
  747SOL     OW 4172   1.873   7.563   0.054 -0.0145 -0.3119  0.0922
  747SOL    HW1 4173   1.923   7.575  -0.027  1.5593 -2.8604  0.5529
  747SOL    HW2 4174   1.794   7.516   0.026  1.3766 -2.8461  0.1306
  748SOL     OW 4175   5.654   0.762   2.950 -0.8091 -0.0568 -0.2357
  748SOL    HW1 4176   5.601   0.840   2.963  0.2949  0.5044  1.1478
  748SOL    HW2 4177   5.744   0.793   2.955 -0.2411 -0.7938 -3.6578
  749SOL     OW 4178   6.687   7.877   0.374 -0.0110 -0.0246 -0.2588
  749SOL    HW1 4179   6.756   7.890   0.439 -0.6094  0.2285  0.3370
  749SOL    HW2 4180   6.725   7.910   0.292  0.9125 -0.7612 -0.1509
  750SOL     OW 4181   8.354   4.739   1.385  0.4676  0.2756  0.3973
  750SOL    HW1 4182   8.287   4.751   1.453  0.3941  2.3844  0.0271
  750SOL    HW2 4183   8.307   4.748   1.303  0.8935 -0.2462  0.0896
  751SOL     OW 4184   6.829   1.790   7.013 -0.0345  0.3199  0.5191
  751SOL    HW1 4185   6.812   1.728   7.083 -1.9192  1.1221  0.8424
  751SOL    HW2 4186   6.774   1.761   6.941  0.5984  0.4681 -0.0298
  752SOL     OW 4187   0.270   8.813   3.432  0.1143  0.1349  0.3574
  752SOL    HW1 4188   0.212   8.762   3.489 -1.0226  0.2455 -0.6704
  752SOL    HW2 4189   0.292   8.890   3.485 -2.8881  1.4785 -0.1155
  753SOL     OW 4190   3.205   8.497   8.571  0.2836 -0.5644  0.2316
  753SOL    HW1 4191   3.232   8.461   8.655  1.3496  0.0749  0.1824
  753SOL    HW2 4192   3.202   8.421   8.513  1.4919 -0.7499  0.3810
  754SOL     OW 4193   0.105   5.761   1.645 -0.0599 -0.3014  0.4391
  754SOL    HW1 4194   0.087   5.791   1.556 -2.0378  1.6790  1.4048
  754SOL    HW2 4195   0.039   5.694   1.662  0.7313 -1.1488  0.2149
  755SOL     OW 4196   8.837   1.658   5.238 -0.4133 -0.0189 -0.7568
  755SOL    HW1 4197   8.886   1.683   5.316  0.4006 -1.3127 -0.8192
  755SOL    HW2 4198   8.835   1.737   5.184  1.9841  0.0107 -0.9261
  756SOL     OW 4199   2.224   3.436   3.045 -0.3799  0.0978 -0.4128
  756SOL    HW1 4200   2.202   3.372   2.977 -0.7139  1.0010 -1.1781
  756SOL    HW2 4201   2.148   3.435   3.103  0.2992 -1.3540  0.5074
  757SOL     OW 4202   5.610   7.853   7.560  0.0378  0.6529  0.0412
  757SOL    HW1 4203   5.516   7.867   7.572 -0.0572  1.4791 -1.4196
  757SOL    HW2 4204   5.651   7.894   7.637 -0.7473  1.1247  0.2164
  758SOL     OW 4205   3.527   3.926   0.320  0.1001  0.8518 -0.6731
  758SOL    HW1 4206   3.593   3.860   0.342  1.2681  2.0896 -0.3446
  758SOL    HW2 4207   3.454   3.876   0.284  0.4937 -0.7152  0.6057
  759SOL     OW 4208   4.327   3.978   0.503 -0.1157 -0.0660 -0.1942
  759SOL    HW1 4209   4.317   3.923   0.580 -0.6793 -0.0641 -0.2643
  759SOL    HW2 4210   4.413   3.955   0.468 -0.3608 -0.9231 -0.2409
  760SOL     OW 4211   0.189   6.328   7.934 -0.4228 -0.4037 -0.5265
  760SOL    HW1 4212   0.143   6.351   7.853 -1.3946 -1.2048 -0.2276
  760SOL    HW2 4213   0.134   6.364   8.004  0.3187  0.1320 -0.2102
  761SOL     OW 4214   8.100   8.406   6.236  0.0130 -0.0821 -0.5200
  761SOL    HW1 4215   8.014   8.418   6.277  0.2968  1.1210 -0.2468
  761SOL    HW2 4216   8.085   8.422   6.143  0.0425  0.6759 -0.3964
  762SOL     OW 4217   6.687   4.345   8.554  0.4842 -0.3867 -0.1626
  762SOL    HW1 4218   6.660   4.433   8.578 -1.4204 -0.4615 -1.7563
  762SOL    HW2 4219   6.628   4.287   8.602 -1.8736 -0.5738 -2.9758
  763SOL     OW 4220   2.447   7.107   0.229  0.0189  0.0716 -0.2429
  763SOL    HW1 4221   2.400   7.024   0.222  2.3510 -1.3180 -0.5425
  763SOL    HW2 4222   2.514   7.090   0.296  2.1589  0.8246 -2.0849
  764SOL     OW 4223   7.415   3.972   4.473 -0.4765 -0.2237 -0.0423
  764SOL    HW1 4224   7.474   4.047   4.463 -1.4399  0.3489 -1.8579
  764SOL    HW2 4225   7.433   3.917   4.397  0.0243 -1.7589  1.1222
  765SOL     OW 4226   4.580   0.019   7.100  0.4120 -0.0845 -0.0303
  765SOL    HW1 4227   4.560  -0.048   7.165  0.1683 -0.6167 -0.6457
  765SOL    HW2 4228   4.526  -0.003   7.024  0.9437  0.3254 -0.5423
  766SOL     OW 4229   3.593   1.639   2.655  0.4545  0.3013  0.8061
  766SOL    HW1 4230   3.659   1.600   2.711  1.4585  1.6330  0.5776
  766SOL    HW2 4231   3.577   1.726   2.692  1.5032  1.4080 -1.2033
  767SOL     OW 4232   2.686   5.681   4.977 -0.5303  0.1383  0.3283
  767SOL    HW1 4233   2.711   5.656   4.887 -2.2116 -0.3475 -0.0542
  767SOL    HW2 4234   2.591   5.689   4.973 -0.7796 -1.1372  2.3715
  768SOL     OW 4235   8.536   4.942   5.384 -0.3723  0.1994  0.3592
  768SOL    HW1 4236   8.441   4.935   5.389 -0.4047  0.4397  0.1169
  768SOL    HW2 4237   8.564   4.959   5.474 -0.7740  2.6196  0.0887
  769SOL     OW 4238   7.292   5.541   8.004  0.2525  0.5944  0.1390
  769SOL    HW1 4239   7.368   5.507   7.957 -0.3084  0.8052 -0.9738
  769SOL    HW2 4240   7.322   5.552   8.094  1.1196 -0.6386  0.0234
  770SOL     OW 4241   1.586   8.130   6.755  0.2774  0.0812  0.6482
  770SOL    HW1 4242   1.556   8.080   6.680  1.8893 -1.1421  0.7735
  770SOL    HW2 4243   1.507   8.175   6.787 -0.5475  0.2029 -1.4069
  771SOL     OW 4244   1.237   5.032   6.436  0.4083 -0.7628 -0.4471
  771SOL    HW1 4245   1.145   5.059   6.439  0.1832 -1.4511 -0.7848
  771SOL    HW2 4246   1.280   5.084   6.504 -0.2015 -0.3330 -0.3808
  772SOL     OW 4247   4.571   7.488   2.101  0.1844  0.8739  0.4234
  772SOL    HW1 4248   4.570   7.418   2.166 -1.3614 -1.8609 -2.3201
  772SOL    HW2 4249   4.489   7.535   2.115 -1.9090 -1.8896 -1.5417
  773SOL     OW 4250   6.545   7.709   6.146  0.0935  0.0431 -0.0012
  773SOL    HW1 4251   6.582   7.790   6.180 -0.3712 -0.1769  1.0598
  773SOL    HW2 4252   6.459   7.703   6.187 -0.8210  0.1418 -1.7805
  774SOL     OW 4253   4.609   8.519   6.116 -0.3628  0.5209  0.5516
  774SOL    HW1 4254   4.689   8.563   6.087  0.4166 -0.7684  0.6959
  774SOL    HW2 4255   4.574   8.478   6.037 -1.3849  1.7953  0.3043
  775SOL     OW 4256   7.382   0.423   2.996  0.5437  0.1345  0.0450
  775SOL    HW1 4257   7.441   0.448   2.926  0.0449 -0.1740 -0.4916
  775SOL    HW2 4258   7.402   0.484   3.067  1.8971 -0.3365  0.0936
  776SOL     OW 4259   3.962   2.194   3.567  0.2990 -0.6965 -0.1873
  776SOL    HW1 4260   3.874   2.201   3.605 -0.0646 -0.7680 -0.9874
  776SOL    HW2 4261   3.948   2.150   3.483  1.2656 -1.8635  0.2344
  777SOL     OW 4262   4.451   4.303   6.711  0.3974  0.8431  0.0995
  777SOL    HW1 4263   4.503   4.334   6.637  1.8000 -1.2672  0.1338
  777SOL    HW2 4264   4.502   4.327   6.788  0.3334  0.5363  0.2376
  778SOL     OW 4265   8.025   3.184   8.167 -0.2979  0.4844  0.2603
  778SOL    HW1 4266   8.000   3.171   8.075  0.4670  0.6483  0.0208
  778SOL    HW2 4267   8.100   3.125   8.179 -1.7556 -1.2480  1.4199
  779SOL     OW 4268   7.328   4.443   7.935  0.5064 -0.2057 -0.2692
  779SOL    HW1 4269   7.351   4.535   7.922  0.5378  0.0057  1.0879
  779SOL    HW2 4270   7.368   4.421   8.020 -1.9789 -0.5998  0.8697
  780SOL     OW 4271   2.098   0.785   6.219  0.2577  0.3666  0.3835
  780SOL    HW1 4272   2.109   0.864   6.271 -0.4980  1.0974 -0.5430
  780SOL    HW2 4273   2.033   0.733   6.267 -1.0344  1.3947 -0.2031
  781SOL     OW 4274   5.139   1.403   3.877  0.2075  1.2680 -0.0098
  781SOL    HW1 4275   5.209   1.435   3.933 -0.5430 -1.0388  2.4555
  781SOL    HW2 4276   5.059   1.423   3.925 -0.5492  0.1807 -0.7630
  782SOL     OW 4277   0.723   8.256   8.831  0.5069 -0.0382 -0.5232
  782SOL    HW1 4278   0.680   8.174   8.856  0.5840 -0.2781 -1.1474
  782SOL    HW2 4279   0.755   8.293   8.913  1.7774 -1.3810 -0.3779
  783SOL     OW 4280   8.463   7.972   3.349  0.3692  0.0111 -0.8571
  783SOL    HW1 4281   8.517   7.903   3.312 -1.1808 -1.2425 -0.8986
  783SOL    HW2 4282   8.465   7.956   3.444 -0.8154 -0.7711 -0.9414
  784SOL     OW 4283   3.248   3.271   1.345 -0.4647 -0.2896  0.1925
  784SOL    HW1 4284   3.232   3.253   1.252 -0.8287  2.6006 -0.3832
  784SOL    HW2 4285   3.161   3.282   1.383 -0.2818  1.5554  0.1575
  785SOL     OW 4286   1.692   7.693   8.353  0.0288 -0.1660  0.3582
  785SOL    HW1 4287   1.609   7.701   8.306  0.4959  1.6769 -0.2243
  785SOL    HW2 4288   1.673   7.632   8.425 -2.0087  0.7122  0.6280
  786SOL     OW 4289   5.357   5.133   7.469  0.2998  0.6037 -0.5591
  786SOL    HW1 4290   5.326   5.131   7.378 -1.8617  1.3183  0.1260
  786SOL    HW2 4291   5.418   5.207   7.471 -1.0590  1.7720 -1.0179
  787SOL     OW 4292   0.272   2.446   2.524 -0.9108  0.1332 -0.1178
  787SOL    HW1 4293   0.228   2.531   2.530  1.6660  1.8086 -2.5198
  787SOL    HW2 4294   0.319   2.437   2.606 -1.1269  1.0779  0.1184
  788SOL     OW 4295   3.414   0.034   0.062 -0.1557 -0.5426 -0.6240
  788SOL    HW1 4296   3.492  -0.020   0.072  0.1659  0.3122  3.0115
  788SOL    HW2 4297   3.341  -0.029   0.064  0.3345 -1.1178 -0.6045
  789SOL     OW 4298   8.079   7.339   8.101  0.5166  0.1779 -0.1814
  789SOL    HW1 4299   8.063   7.328   8.007 -0.5990  1.2072 -0.1258
  789SOL    HW2 4300   8.140   7.267   8.123  1.1788  0.2018 -1.7705
  790SOL     OW 4301   7.691   1.067   3.608 -0.1478  0.5140  0.9509
  790SOL    HW1 4302   7.749   1.143   3.599 -0.3204  0.7222  1.4905
  790SOL    HW2 4303   7.691   1.049   3.702 -0.5475  0.1940  0.8899
  791SOL     OW 4304   5.975   0.569   4.126  0.0855 -0.5150  0.0401
  791SOL    HW1 4305   5.980   0.595   4.034  0.5033 -1.6325 -0.2703
  791SOL    HW2 4306   6.024   0.636   4.173  1.0060 -0.6316 -0.7138
  792SOL     OW 4307   0.454   4.392   0.559 -0.7167 -0.5202  0.0720
  792SOL    HW1 4308   0.446   4.300   0.582 -0.5493 -0.3458  0.8542
  792SOL    HW2 4309   0.542   4.417   0.587 -1.1879  0.1789  1.0045
  793SOL     OW 4310   2.537   4.616   0.441 -0.3936 -0.0653 -0.4320
  793SOL    HW1 4311   2.543   4.675   0.366  3.6302 -2.0393 -1.9335
  793SOL    HW2 4312   2.560   4.670   0.517 -1.2098  1.2173 -1.0633
  794SOL     OW 4313   8.464   4.063   5.542  0.5428  0.1261  0.3255
  794SOL    HW1 4314   8.477   4.152   5.576  0.7974  1.2003 -2.3795
  794SOL    HW2 4315   8.541   4.014   5.571 -0.7847 -0.0911  4.1061
  795SOL     OW 4316   4.600   5.901   4.582 -0.0264 -0.3738  0.1824
  795SOL    HW1 4317   4.657   5.874   4.655  0.0045  0.4113  0.4625
  795SOL    HW2 4318   4.658   5.953   4.525  0.1510 -1.6393 -0.8232
  796SOL     OW 4319   4.952   7.515   0.602 -0.7738 -0.1427 -0.0377
  796SOL    HW1 4320   4.886   7.482   0.542 -0.3715 -0.5993 -0.2372
  796SOL    HW2 4321   5.035   7.508   0.554 -0.4784 -0.3030  0.4789
  797SOL     OW 4322   1.661   7.944   5.464 -0.1332 -0.1383  0.3589
  797SOL    HW1 4323   1.698   7.977   5.545 -0.0861  0.2676  0.1720
  797SOL    HW2 4324   1.646   7.851   5.481  3.6752 -1.0709 -0.4907
  798SOL     OW 4325   5.380   2.219   6.627  0.1487 -0.8868  0.7261
  798SOL    HW1 4326   5.460   2.238   6.578  0.3454 -0.6480  1.1325
  798SOL    HW2 4327   5.378   2.286   6.695 -2.0241  1.1585 -1.1453
  799SOL     OW 4328   2.792   6.704   2.957 -0.2649 -0.5410  0.3787
  799SOL    HW1 4329   2.819   6.781   2.908  0.3614 -0.7188  0.4248
  799SOL    HW2 4330   2.782   6.734   3.047  1.9246 -0.8774  0.8037
  800SOL     OW 4331   5.023   5.677   2.773  0.5527 -0.6819  0.0983
  800SOL    HW1 4332   5.085   5.608   2.794  1.4617 -0.1313 -0.6933
  800SOL    HW2 4333   4.984   5.649   2.689 -0.7810 -1.3478  0.8997
  801SOL     OW 4334   0.896   0.675   0.674  0.1081  0.4407 -0.3457
  801SOL    HW1 4335   0.873   0.765   0.697 -0.6964 -0.1968  1.5640
  801SOL    HW2 4336   0.941   0.641   0.752  1.7212 -0.3846 -1.5809
  802SOL     OW 4337   8.491   2.211   7.340  0.0275 -0.4024  0.6170
  802SOL    HW1 4338   8.557   2.227   7.272  0.8310  0.0238  1.4828
  802SOL    HW2 4339   8.541   2.202   7.421 -0.9023 -1.1601  1.1272
  803SOL     OW 4340   1.602   6.575   1.558 -0.0065 -0.0127 -0.1033
  803SOL    HW1 4341   1.517   6.551   1.596  0.3532 -1.0567  0.0953
  803SOL    HW2 4342   1.628   6.654   1.605 -1.8059  1.5808 -1.6270
  804SOL     OW 4343   3.074   7.404   3.897  0.1935  0.1875  0.5561
  804SOL    HW1 4344   3.118   7.412   3.982  0.1077  2.2270  0.4580
  804SOL    HW2 4345   3.025   7.486   3.888 -1.3605 -0.8281 -0.6062
  805SOL     OW 4346   3.682   0.862   7.906 -0.4397  0.6017 -0.5697
  805SOL    HW1 4347   3.610   0.836   7.963  0.7624  0.6252  1.0208
  805SOL    HW2 4348   3.677   0.803   7.831 -1.3535 -0.2100  0.1175
  806SOL     OW 4349   5.892   1.092   7.641 -0.0744  0.0721  0.0698
  806SOL    HW1 4350   5.960   1.151   7.675 -1.4589  1.9588 -0.3012
  806SOL    HW2 4351   5.810   1.139   7.654 -1.2438 -1.6816 -0.5117
  807SOL     OW 4352   0.570   2.867   1.949 -0.2540 -0.2505  0.2175
  807SOL    HW1 4353   0.548   2.959   1.966  2.1279  0.0270  2.2793
  807SOL    HW2 4354   0.488   2.820   1.965 -0.4901  1.0751  3.7547
  808SOL     OW 4355   4.246   7.839   6.690 -0.0963 -0.4686  0.0499
  808SOL    HW1 4356   4.162   7.810   6.726  0.4722  0.0327  1.8589
  808SOL    HW2 4357   4.233   7.836   6.595 -1.9856 -0.9042  0.2784
  809SOL     OW 4358   8.041   6.171   8.438 -0.2932  0.0131 -0.0566
  809SOL    HW1 4359   7.993   6.134   8.365 -2.0031  1.5032  0.2395
  809SOL    HW2 4360   8.129   6.136   8.429 -0.6172 -0.3671 -2.4493
  810SOL     OW 4361   2.620   8.675   2.866  0.1737  0.0452  0.0056
  810SOL    HW1 4362   2.538   8.716   2.841 -0.0291 -0.3888 -0.0497
  810SOL    HW2 4363   2.659   8.736   2.928  1.3444  1.8235 -2.3197
  811SOL     OW 4364   2.563   5.541   0.335 -0.1005  0.2908 -0.0919
  811SOL    HW1 4365   2.596   5.520   0.423 -1.0397 -1.8955 -0.2121
  811SOL    HW2 4366   2.470   5.520   0.338  0.1909 -1.7328 -2.1143
  812SOL     OW 4367   5.001   3.974   3.950  0.5161 -0.0142  0.1693
  812SOL    HW1 4368   4.943   4.036   3.906 -0.5680  0.0720  1.6391
  812SOL    HW2 4369   4.946   3.934   4.018  2.2526  0.3942  1.9079
  813SOL     OW 4370   5.504   6.769   8.325  0.3116  0.0944  0.1871
  813SOL    HW1 4371   5.429   6.766   8.385 -0.8882 -0.8574 -1.2884
  813SOL    HW2 4372   5.479   6.833   8.259  0.9555  0.0116 -0.1438
  814SOL     OW 4373   4.105   1.472   5.887 -0.0449  0.0381 -0.4246
  814SOL    HW1 4374   4.047   1.482   5.962  0.4588 -0.9375  0.1010
  814SOL    HW2 4375   4.066   1.401   5.836 -0.1292  0.3886 -0.8560
  815SOL     OW 4376   0.261   7.408   2.826  0.1030 -0.3400  0.2591
  815SOL    HW1 4377   0.263   7.458   2.908  1.8411 -1.4652  0.9620
  815SOL    HW2 4378   0.273   7.473   2.757 -0.4080  0.5058  0.9538
  816SOL     OW 4379   7.059   5.205   6.525 -0.3049  0.2034  0.1517
  816SOL    HW1 4380   7.018   5.134   6.475 -0.3989  0.5286 -0.2424
  816SOL    HW2 4381   7.022   5.285   6.488  1.8638  0.6106 -1.3509
  817SOL     OW 4382   3.461   8.702   8.438  0.0856  0.5311 -0.1294
  817SOL    HW1 4383   3.482   8.791   8.410  2.0867  0.6991  1.5718
  817SOL    HW2 4384   3.546   8.665   8.462 -0.9177 -1.2038  0.9369
  818SOL     OW 4385   5.183   2.409   7.055  0.0996  0.2896 -0.0255
  818SOL    HW1 4386   5.169   2.316   7.074 -3.6150  0.8001  0.4534
  818SOL    HW2 4387   5.233   2.441   7.129  0.3050 -1.0723  0.4618
  819SOL     OW 4388   6.027   0.898   1.168 -0.1736  0.0041 -0.3345
  819SOL    HW1 4389   5.955   0.897   1.232 -0.7947  2.9739 -0.8283
  819SOL    HW2 4390   6.105   0.917   1.220 -0.6163  1.9894 -0.2960
  820SOL     OW 4391   0.255   6.172   0.176  0.0030  0.2030 -0.1111
  820SOL    HW1 4392   0.255   6.136   0.265 -0.6116  1.3879  0.3892
  820SOL    HW2 4393   0.341   6.213   0.166  1.0484 -2.0178 -0.9900
  821SOL     OW 4394   1.086   3.324   1.006 -0.0500  0.2848 -0.2579
  821SOL    HW1 4395   1.004   3.367   0.981 -0.7287 -0.3586  0.8258
  821SOL    HW2 4396   1.070   3.291   1.094  1.0962 -0.5733 -0.3574
  822SOL     OW 4397   7.161   4.686   8.173  0.2097 -0.6666  0.1753
  822SOL    HW1 4398   7.081   4.691   8.226  0.3413  0.0579  0.3125
  822SOL    HW2 4399   7.158   4.763   8.117  0.2927 -1.1996 -0.5767
  823SOL     OW 4400   3.343   3.269   3.017  0.0894  0.4998 -0.2535
  823SOL    HW1 4401   3.408   3.332   2.987  0.1722  0.2860 -0.5287
  823SOL    HW2 4402   3.259   3.306   2.989  0.2255 -0.1971 -1.7193
  824SOL     OW 4403   2.375   5.653   0.014  0.2001  0.0708 -0.0958
  824SOL    HW1 4404   2.360   5.660   0.108 -3.0341  1.0880 -0.5724
  824SOL    HW2 4405   2.377   5.743  -0.018  2.0006 -0.2254 -0.9768
  825SOL     OW 4406   7.094   5.123   6.889  0.5891  0.1241  0.1429
  825SOL    HW1 4407   7.038   5.195   6.918 -0.1158  0.1285 -1.1932
  825SOL    HW2 4408   7.122   5.081   6.971 -2.0689 -0.4214  0.8692
  826SOL     OW 4409   4.711   2.046   8.710  0.7616 -0.4693  0.1565
  826SOL    HW1 4410   4.764   1.969   8.691  1.6882  0.8174 -2.9453
  826SOL    HW2 4411   4.771   2.107   8.753  0.7336 -0.4645  0.1894
  827SOL     OW 4412   2.701   7.057   2.203 -0.2996 -0.1395  0.3650
  827SOL    HW1 4413   2.731   7.048   2.112 -0.5279  1.9410  0.0296
  827SOL    HW2 4414   2.609   7.029   2.200  0.0506 -1.3493  0.2676
  828SOL     OW 4415   6.699   7.823   0.799 -0.2961  0.4740 -0.2172
  828SOL    HW1 4416   6.674   7.895   0.742  1.8523  0.2181 -1.6193
  828SOL    HW2 4417   6.625   7.762   0.794 -1.7223  2.0844  0.2196
  829SOL     OW 4418   1.010   5.678   2.724 -0.1249 -0.0001  0.0895
  829SOL    HW1 4419   0.925   5.666   2.766  0.6865 -0.5237  1.6574
  829SOL    HW2 4420   1.062   5.604   2.753  0.9060  0.3584 -0.7724
  830SOL     OW 4421   8.512   2.232   1.912 -0.3485  0.1182 -0.5760
  830SOL    HW1 4422   8.457   2.187   1.848 -1.3378  1.1951 -0.5092
  830SOL    HW2 4423   8.540   2.312   1.867  0.3669  0.0596 -0.2541
  831SOL     OW 4424   3.182   0.579   4.169  0.8525  0.2352  0.0797
  831SOL    HW1 4425   3.255   0.640   4.162  0.0046  1.1930 -0.7020
  831SOL    HW2 4426   3.116   0.625   4.221  0.6661 -0.4847  0.4958
  832SOL     OW 4427   7.876   2.934   4.943  0.4516  0.4461 -0.6423
  832SOL    HW1 4428   7.916   3.020   4.960 -0.4399  0.7992 -0.3074
  832SOL    HW2 4429   7.794   2.935   4.991 -0.3356  0.0223 -1.9298
  833SOL     OW 4430   2.141   4.167   7.371 -0.0144  0.3404  0.0306
  833SOL    HW1 4431   2.092   4.132   7.445  1.3762  0.2066  0.9351
  833SOL    HW2 4432   2.206   4.100   7.352 -0.1120  0.5482 -1.0808
  834SOL     OW 4433   8.232   5.475   5.265 -0.7830 -0.6121  0.1125
  834SOL    HW1 4434   8.181   5.475   5.346 -2.4273  0.8654 -0.8446
  834SOL    HW2 4435   8.310   5.527   5.285 -1.7159  0.6946  0.4745
  835SOL     OW 4436   4.414   1.527   5.220 -0.7494 -0.5898  0.7828
  835SOL    HW1 4437   4.334   1.560   5.181 -1.6502 -1.5279  1.7523
  835SOL    HW2 4438   4.402   1.541   5.314 -0.1996 -1.5850  1.0180
  836SOL     OW 4439   4.212   1.349   6.709 -0.1496  0.2994  0.0519
  836SOL    HW1 4440   4.285   1.410   6.698  0.6863 -0.5278  0.8527
  836SOL    HW2 4441   4.137   1.394   6.670  0.7037  1.3203 -0.4558
  837SOL     OW 4442   8.641   1.288   5.628  0.0598 -0.2387 -0.1144
  837SOL    HW1 4443   8.564   1.306   5.682  0.5215 -1.7071  1.0808
  837SOL    HW2 4444   8.622   1.333   5.545 -1.8358 -0.1066  0.3355
  838SOL     OW 4445   4.224   6.478   6.282 -0.3468 -0.8183 -0.0768
  838SOL    HW1 4446   4.273   6.412   6.332 -0.7348 -1.0953 -0.0559
  838SOL    HW2 4447   4.292   6.531   6.240 -0.0277 -1.3082 -0.1915
  839SOL     OW 4448   6.443   7.224   4.523  0.2127 -0.2077  0.1387
  839SOL    HW1 4449   6.387   7.153   4.492 -0.4539  0.0600  0.6813
  839SOL    HW2 4450   6.490   7.186   4.598 -0.8037  0.1587  0.9906
  840SOL     OW 4451   3.272   6.326   2.812  0.5184  0.2897 -0.4826
  840SOL    HW1 4452   3.350   6.295   2.858  0.7126 -1.3899 -1.8289
  840SOL    HW2 4453   3.239   6.397   2.866  2.2078  0.1460  0.8340
  841SOL     OW 4454   8.059   4.570   2.838 -0.3873 -0.8010  0.9473
  841SOL    HW1 4455   8.114   4.492   2.830 -0.7011 -1.2864  2.9594
  841SOL    HW2 4456   8.070   4.598   2.929 -3.4798 -0.9528  1.4795
  842SOL     OW 4457   8.119   3.495   7.446 -0.3689 -0.2668  0.7274
  842SOL    HW1 4458   8.169   3.427   7.401  1.7304 -0.9075  3.7750
  842SOL    HW2 4459   8.180   3.568   7.456 -0.9330  0.0498  2.0579
  843SOL     OW 4460   6.715   2.942   2.659 -0.2966  0.2336 -0.4872
  843SOL    HW1 4461   6.763   3.013   2.616  0.8471 -0.7869 -0.9476
  843SOL    HW2 4462   6.712   2.872   2.594 -0.7767 -0.4003  0.2030
  844SOL     OW 4463   1.138   1.690   4.226  0.2350 -0.0232 -0.1873
  844SOL    HW1 4464   1.231   1.668   4.226 -0.2206 -2.3323 -1.7829
  844SOL    HW2 4465   1.134   1.778   4.189  1.7248 -0.4022 -1.3366
  845SOL     OW 4466   8.160   3.921   4.416 -0.0253  0.3781 -0.3221
  845SOL    HW1 4467   8.202   3.949   4.335 -0.6295  3.0933  0.2012
  845SOL    HW2 4468   8.072   3.894   4.389 -0.0912  0.8805 -0.6149
  846SOL     OW 4469   4.632   0.267   5.686 -0.5232  0.2166  0.4853
  846SOL    HW1 4470   4.701   0.266   5.752 -0.7737 -0.6491  0.7561
  846SOL    HW2 4471   4.590   0.352   5.696  0.3815  0.6801  0.4413
  847SOL     OW 4472   8.223   0.939   6.624 -0.6615 -0.0696 -0.5778
  847SOL    HW1 4473   8.174   1.002   6.677 -0.0159  1.1100 -1.3624
  847SOL    HW2 4474   8.249   0.871   6.686 -1.1492  0.5538  0.3289
  848SOL     OW 4475   6.276   1.826   6.461  0.0540  0.3958 -0.5634
  848SOL    HW1 4476   6.206   1.817   6.396  0.3931  0.2804 -0.9110
  848SOL    HW2 4477   6.257   1.757   6.525 -0.8065  1.0856 -0.0386
  849SOL     OW 4478   4.111   2.098   1.759 -0.1889 -0.4941 -0.9476
  849SOL    HW1 4479   4.149   2.086   1.846  0.7860 -0.4256 -1.3579
  849SOL    HW2 4480   4.175   2.060   1.699 -0.4103  0.3144 -1.7090
  850SOL     OW 4481   2.662   5.321   0.633 -0.3807  0.0861  0.7441
  850SOL    HW1 4482   2.646   5.239   0.586 -1.0618 -0.2903  1.6117
  850SOL    HW2 4483   2.729   5.299   0.698  0.5755  0.6114 -0.0388
  851SOL     OW 4484   5.786   1.674   7.053  0.2193 -0.4283  0.2957
  851SOL    HW1 4485   5.757   1.602   7.109 -0.7086 -0.2610  0.0385
  851SOL    HW2 4486   5.747   1.655   6.968  0.8861 -0.2064 -0.0619
  852SOL     OW 4487   4.056   6.392   4.808 -0.7768  0.2114 -0.2089
  852SOL    HW1 4488   3.968   6.376   4.839 -1.1271 -0.7603 -1.5972
  852SOL    HW2 4489   4.112   6.335   4.861 -0.8308  1.4639  1.2668
  853SOL     OW 4490   2.628   8.503   1.137 -0.5524 -0.4004 -0.1255
  853SOL    HW1 4491   2.580   8.551   1.204 -1.2948 -0.0877 -0.8621
  853SOL    HW2 4492   2.720   8.525   1.153 -0.8372  1.0002 -0.2163
  854SOL     OW 4493   6.078   6.854   5.963 -0.6591 -0.1376  0.2965
  854SOL    HW1 4494   6.168   6.876   5.939 -0.5154 -0.3617  0.6224
  854SOL    HW2 4495   6.048   6.929   6.015 -0.8653  0.2066 -0.3042
  855SOL     OW 4496   1.473   4.704   7.169  0.0369 -0.4299 -0.2946
  855SOL    HW1 4497   1.527   4.665   7.239  0.2526  0.9247  0.3242
  855SOL    HW2 4498   1.512   4.671   7.088  2.0291  0.7035  0.1251
  856SOL     OW 4499   7.796   4.894   2.493  0.0501 -0.0566  0.0506
  856SOL    HW1 4500   7.809   4.811   2.447 -1.0568 -0.3913  0.3067
  856SOL    HW2 4501   7.847   4.885   2.574  0.6945 -0.1000 -0.3516
  857SOL     OW 4502   5.971   2.180   7.095  0.2763  0.2213 -0.1500
  857SOL    HW1 4503   5.893   2.221   7.057 -0.7995 -0.1022  1.5782
  857SOL    HW2 4504   5.970   2.091   7.060  0.6956  0.6382 -1.2531
  858SOL     OW 4505   0.512   5.968   4.628  0.0788  0.0083 -0.3843
  858SOL    HW1 4506   0.527   5.882   4.588  1.9376  0.0421  0.1637
  858SOL    HW2 4507   0.429   5.958   4.674 -1.2606 -0.5586 -2.7433
  859SOL     OW 4508   3.072   3.740   4.007 -0.0707 -0.4673  0.0170
  859SOL    HW1 4509   2.980   3.755   3.985  0.2318 -0.4718 -1.3202
  859SOL    HW2 4510   3.104   3.826   4.036  0.4439  0.5397 -3.1356
  860SOL     OW 4511   8.845   7.930   8.733  0.3972 -0.1234 -0.2752
  860SOL    HW1 4512   8.750   7.926   8.721  0.3295  0.1575  0.1202
  860SOL    HW2 4513   8.877   7.971   8.653  0.1472  0.0844 -0.2719
  861SOL     OW 4514   4.874   8.573   1.121 -0.2802 -0.5847 -0.2409
  861SOL    HW1 4515   4.830   8.494   1.152  0.8632 -1.1774 -0.0638
  861SOL    HW2 4516   4.838   8.644   1.174  0.3070 -1.3240  1.1733
  862SOL     OW 4517   0.884   1.270   3.009  0.0924 -0.0998 -0.1619
  862SOL    HW1 4518   0.968   1.271   2.963  0.3578 -0.9815  0.2719
  862SOL    HW2 4519   0.908   1.261   3.101 -0.4768 -1.8919 -0.1448
  863SOL     OW 4520   7.640   7.154   7.055  0.1965  0.3099  0.4178
  863SOL    HW1 4521   7.678   7.127   6.972  1.0967 -0.5534  1.0797
  863SOL    HW2 4522   7.548   7.125   7.050  0.6343 -1.1252  0.3115
  864SOL     OW 4523   7.792   4.162   6.060 -0.6451 -0.0355  0.2529
  864SOL    HW1 4524   7.852   4.117   6.002  0.3629 -0.6120  1.6868
  864SOL    HW2 4525   7.705   4.147   6.022  0.1241  1.4773 -2.2826
  865SOL     OW 4526   1.293   1.568   6.285 -0.8770 -0.1232  0.2375
  865SOL    HW1 4527   1.367   1.621   6.255 -1.8538  2.4350  2.0491
  865SOL    HW2 4528   1.220   1.595   6.230 -1.1855 -0.3044  0.5603
  866SOL     OW 4529   5.463   5.712   0.927 -0.3434  0.4089  0.5565
  866SOL    HW1 4530   5.407   5.686   1.000  0.9675  0.3420  1.5822
  866SOL    HW2 4531   5.550   5.678   0.950  0.1650  0.6418 -0.9025
  867SOL     OW 4532   0.931   0.513   6.889 -0.1175  0.0131  0.0891
  867SOL    HW1 4533   0.855   0.516   6.831  0.3705 -0.3632 -0.5850
  867SOL    HW2 4534   0.966   0.602   6.888 -0.3129  0.0902  0.0782
  868SOL     OW 4535   1.907   3.993   1.533 -0.2633  0.2404 -0.0724
  868SOL    HW1 4536   1.824   3.957   1.564  1.1405 -1.9782  1.4012
  868SOL    HW2 4537   1.926   3.943   1.453  0.4038 -0.4216  0.4893
  869SOL     OW 4538   4.164   5.232   2.456 -0.1046 -0.1113  0.6785
  869SOL    HW1 4539   4.104   5.183   2.400 -0.4556  0.7857  0.2550
  869SOL    HW2 4540   4.180   5.313   2.409  1.4429 -0.3211  0.7889
  870SOL     OW 4541   7.817   1.404   1.651  0.1084  0.3947 -0.4539
  870SOL    HW1 4542   7.824   1.499   1.650  3.4704  0.2710 -1.9680
  870SOL    HW2 4543   7.817   1.380   1.558 -2.4011 -1.1046 -0.1606
  871SOL     OW 4544   6.753   5.789   3.998  0.4089 -0.1957 -0.3416
  871SOL    HW1 4545   6.806   5.868   4.011  0.2352 -0.0469 -0.5321
  871SOL    HW2 4546   6.673   5.804   4.048  0.9307 -0.8174  0.7195
  872SOL     OW 4547   0.921   8.691   7.497  0.6659  0.0735 -0.3368
  872SOL    HW1 4548   0.966   8.756   7.552  0.0209 -0.7394  1.2290
  872SOL    HW2 4549   0.934   8.722   7.408  0.3680  2.3806  0.3419
  873SOL     OW 4550   6.076   7.975   6.863  0.2589  0.0505 -0.0609
  873SOL    HW1 4551   6.095   8.064   6.894 -0.8281 -0.0947  1.1196
  873SOL    HW2 4552   6.038   7.988   6.776 -0.1678  0.7802  0.2233
  874SOL     OW 4553   0.617   0.008   1.976  0.5832 -0.3385  0.4615
  874SOL    HW1 4554   0.653  -0.035   1.899  0.3330 -2.8465  1.6575
  874SOL    HW2 4555   0.686   0.069   2.004  2.2082 -2.0513  0.3556
  875SOL     OW 4556   4.607   6.795   3.813 -0.1133  0.0257 -0.1274
  875SOL    HW1 4557   4.630   6.702   3.819 -2.7882 -0.9259 -2.2884
  875SOL    HW2 4558   4.610   6.827   3.903  0.7116 -2.2014  0.7061
  876SOL     OW 4559   8.554   2.135   2.455 -0.1032 -0.0784 -0.0515
  876SOL    HW1 4560   8.494   2.201   2.489  0.8199  0.5018  0.4748
  876SOL    HW2 4561   8.555   2.150   2.360 -2.8749 -1.8675 -0.4743
  877SOL     OW 4562   2.073   0.469   8.390 -0.0393  0.2926 -0.5181
  877SOL    HW1 4563   2.039   0.559   8.394  0.2015  0.3684 -0.1188
  877SOL    HW2 4564   2.002   0.415   8.425 -1.2143  0.0142 -3.0929
  878SOL     OW 4565   5.029   5.844   5.529 -0.1832  0.1596 -0.5433
  878SOL    HW1 4566   4.954   5.788   5.510  0.1126 -0.2894 -0.4183
  878SOL    HW2 4567   4.999   5.905   5.596 -0.0456 -0.9229  0.5512
  879SOL     OW 4568   0.686   1.764   5.638  0.1416 -0.3993  0.2315
  879SOL    HW1 4569   0.596   1.749   5.610  0.7945 -1.8747 -1.2576
  879SOL    HW2 4570   0.686   1.744   5.731 -0.9105 -1.2048  0.0755
  880SOL     OW 4571   6.441   1.056   3.770  0.2613 -0.2944 -0.4509
  880SOL    HW1 4572   6.517   1.065   3.712  1.2390  1.2705  1.0095
  880SOL    HW2 4573   6.460   1.112   3.845 -1.3000 -1.6750  1.0752
  881SOL     OW 4574   8.335   5.590   4.634  0.0104 -0.4602  0.1254
  881SOL    HW1 4575   8.275   5.584   4.709  0.1323 -1.2859  0.1743
  881SOL    HW2 4576   8.372   5.502   4.627  3.4884  0.6846  1.9496
  882SOL     OW 4577   4.024   3.353   1.977 -0.2668  0.4605 -0.0969
  882SOL    HW1 4578   3.978   3.365   2.060 -0.8920  0.2565 -0.4052
  882SOL    HW2 4579   4.077   3.432   1.968  1.3257 -0.3626  1.4240
  883SOL     OW 4580   5.874   6.505   3.563  0.0066 -0.0104  0.6802
  883SOL    HW1 4581   5.932   6.563   3.515  1.0389  0.3934  2.3348
  883SOL    HW2 4582   5.839   6.446   3.497 -0.0940  1.6694 -0.8556
  884SOL     OW 4583   7.359   7.220   1.168  0.4863 -0.3506  0.5672
  884SOL    HW1 4584   7.433   7.281   1.157  1.0840 -1.1368  0.1264
  884SOL    HW2 4585   7.399   7.141   1.204  0.2596 -1.5570 -1.6302
  885SOL     OW 4586   3.211   2.862   8.843  0.3167 -0.1143 -0.6765
  885SOL    HW1 4587   3.213   2.841   8.937  1.4397  0.0899 -0.6429
  885SOL    HW2 4588   3.303   2.876   8.820 -0.0380  0.7717 -1.5987
  886SOL     OW 4589   7.650   6.932   8.066 -0.1345 -0.3669 -0.3133
  886SOL    HW1 4590   7.664   7.026   8.052  0.0255 -0.4034 -0.3983
  886SOL    HW2 4591   7.606   6.902   7.986 -0.4399 -0.3096 -0.1693
  887SOL     OW 4592   1.817   2.789   1.530  0.1252  0.1147 -0.2255
  887SOL    HW1 4593   1.875   2.738   1.473 -1.4710 -0.4820 -1.3963
  887SOL    HW2 4594   1.764   2.841   1.469  0.0309  1.2977  0.8460
  888SOL     OW 4595   7.362   4.162   7.509 -0.5032  0.8709  0.0113
  888SOL    HW1 4596   7.312   4.084   7.485  0.3188  0.7796 -1.4899
  888SOL    HW2 4597   7.299   4.217   7.556 -0.9330 -0.9501  1.7333
  889SOL     OW 4598   8.375   5.956   7.627  0.1988  0.0473 -0.4127
  889SOL    HW1 4599   8.376   5.860   7.633 -1.4120  0.0232 -0.1616
  889SOL    HW2 4600   8.448   5.984   7.683  0.0190 -0.9995  0.3835
  890SOL     OW 4601   3.030   6.866   0.054  0.1852  0.0807 -0.1921
  890SOL    HW1 4602   3.016   6.833  -0.035  0.4702 -0.9452  0.1209
  890SOL    HW2 4603   3.023   6.787   0.109 -0.5679  0.7827  0.7550
  891SOL     OW 4604   5.012   6.685   0.817 -0.1391 -0.0483  0.8913
  891SOL    HW1 4605   4.988   6.769   0.777  0.1591 -0.5265 -0.3588
  891SOL    HW2 4606   5.001   6.699   0.911  0.9358  1.7169  0.8019
  892SOL     OW 4607   0.642   3.655   5.369  0.1287  0.3567  0.4438
  892SOL    HW1 4608   0.696   3.602   5.428  0.7860  0.3814 -0.1236
  892SOL    HW2 4609   0.552   3.629   5.389  0.4719 -2.2398 -0.9454
  893SOL     OW 4610   3.214   0.180   0.637  0.3000  0.0222  0.4735
  893SOL    HW1 4611   3.251   0.268   0.640  0.0956  0.0749  1.7377
  893SOL    HW2 4612   3.151   0.177   0.708  0.2023 -1.1012  0.3625
  894SOL     OW 4613   2.169   2.855   1.681 -0.2089 -0.0607  0.1152
  894SOL    HW1 4614   2.253   2.881   1.718  0.8362 -1.6165 -1.0339
  894SOL    HW2 4615   2.176   2.876   1.588 -1.8176  1.4373  0.2683
  895SOL     OW 4616   8.469   2.327   7.938 -0.2600 -0.4999 -0.7327
  895SOL    HW1 4617   8.422   2.253   7.899  1.0516 -2.2784  0.8542
  895SOL    HW2 4618   8.518   2.289   8.010  1.5444  1.7238 -0.6589
  896SOL     OW 4619   4.880   2.334   1.668  0.1320 -0.0663 -0.4793
  896SOL    HW1 4620   4.799   2.328   1.618 -0.4682  0.7627  0.3721
  896SOL    HW2 4621   4.853   2.358   1.756  1.3423  1.2080 -0.4081
  897SOL     OW 4622   2.312   4.755   2.073 -0.1131  0.1778  0.0962
  897SOL    HW1 4623   2.361   4.732   1.994 -1.0554 -0.2464 -0.3859
  897SOL    HW2 4624   2.348   4.840   2.100  0.4765  0.1473 -0.5736
  898SOL     OW 4625   1.274   0.031   8.711  0.7581 -0.5899  0.4175
  898SOL    HW1 4626   1.219   0.002   8.784 -0.1608 -2.3261 -0.8914
  898SOL    HW2 4627   1.235   0.113   8.683 -0.2410 -1.0216  0.4986
  899SOL     OW 4628   6.696   8.856   7.032  0.2198  0.3955 -0.0478
  899SOL    HW1 4629   6.665   8.946   7.038 -1.4962 -0.0152 -1.8310
  899SOL    HW2 4630   6.637   8.814   6.970  0.5974 -2.1470  1.1862
  900SOL     OW 4631   8.561   0.006   1.177 -0.1301  0.5073  0.7030
  900SOL    HW1 4632   8.505  -0.048   1.122 -0.2213  1.7267 -0.4780
  900SOL    HW2 4633   8.628  -0.054   1.211 -0.7251 -0.4906  0.1530
  901SOL     OW 4634   7.632   1.012   0.918 -0.1952 -0.1102 -0.2547
  901SOL    HW1 4635   7.560   0.961   0.880 -1.6942  0.2736  1.8880
  901SOL    HW2 4636   7.694   0.946   0.949  0.1791 -0.4617 -1.6773
  902SOL     OW 4637   7.397   3.003   7.151 -0.4696  0.3068  0.4018
  902SOL    HW1 4638   7.485   2.966   7.146 -0.5765  0.1024 -0.0626
  902SOL    HW2 4639   7.406   3.092   7.117 -0.4886  0.1906  0.0828
  903SOL     OW 4640   4.939   4.002   3.393  0.0187 -0.2487 -0.8863
  903SOL    HW1 4641   4.974   3.943   3.326  2.0119  1.4403 -1.4421
  903SOL    HW2 4642   5.016   4.030   3.442 -1.0739  0.6979  0.3558
  904SOL     OW 4643   0.873   2.057   6.050  0.2887 -0.3053  0.0464
  904SOL    HW1 4644   0.892   2.094   6.136  1.3063 -0.1526 -0.2231
  904SOL    HW2 4645   0.886   1.963   6.061 -1.2579 -0.4981  0.4663
  905SOL     OW 4646   3.244   8.857   8.077 -0.3351 -0.4695  0.2374
  905SOL    HW1 4647   3.274   8.774   8.113 -0.7883 -0.1495  1.4003
  905SOL    HW2 4648   3.305   8.922   8.111 -0.8538 -0.1385  0.5470
  906SOL     OW 4649   0.301   5.612   7.157  0.0102 -0.2340 -0.3001
  906SOL    HW1 4650   0.384   5.648   7.189  0.1191 -0.1622 -0.6606
  906SOL    HW2 4651   0.325   5.527   7.119  0.3241  0.7742 -2.5192
  907SOL     OW 4652   8.604   5.467   2.827  0.2767  0.3460  0.3191
  907SOL    HW1 4653   8.624   5.373   2.821  0.3174  0.3468  0.4525
  907SOL    HW2 4654   8.597   5.485   2.920 -0.8915  0.2399  0.2627
  908SOL     OW 4655   2.810   5.446   0.020  0.0953  0.1063  0.1192
  908SOL    HW1 4656   2.745   5.379   0.002 -0.5272  0.4488  1.0102
  908SOL    HW2 4657   2.870   5.442  -0.055 -1.1752  0.0581 -0.9442
  909SOL     OW 4658   5.083   1.959   7.691  0.7846  0.1815 -0.2642
  909SOL    HW1 4659   5.135   1.898   7.743  0.4850  0.8528  0.8583
  909SOL    HW2 4660   5.132   1.969   7.610  2.0310  0.2296  0.4705
  910SOL     OW 4661   2.530   8.850   6.548 -0.0233 -0.0678  0.0884
  910SOL    HW1 4662   2.552   8.882   6.635  1.8198  0.2914 -0.4561
  910SOL    HW2 4663   2.557   8.758   6.548  2.0049  0.4776 -0.7091
  911SOL     OW 4664   1.648   5.097   5.289 -0.2190  0.6452 -0.3173
  911SOL    HW1 4665   1.552   5.098   5.291 -0.5130 -4.3519  0.8777
  911SOL    HW2 4666   1.674   5.110   5.381  0.2175  1.0367 -0.4902
  912SOL     OW 4667   4.813   3.634   5.457  0.4771  0.6223  0.5057
  912SOL    HW1 4668   4.771   3.658   5.539 -0.7617  0.6441 -0.1197
  912SOL    HW2 4669   4.825   3.539   5.462 -0.7675  0.4293  0.2049
  913SOL     OW 4670   1.544   6.068   6.885  0.1509  0.3759  0.6556
  913SOL    HW1 4671   1.504   6.099   6.803 -0.9677  1.6770  1.6289
  913SOL    HW2 4672   1.602   6.139   6.911  0.4030  0.0248  1.0511
  914SOL     OW 4673   5.391   2.393   6.860 -0.4005  0.2490 -0.2804
  914SOL    HW1 4674   5.329   2.456   6.897 -1.0426 -0.0381 -0.8470
  914SOL    HW2 4675   5.390   2.319   6.921  0.5224  0.8537  0.5062
  915SOL     OW 4676   6.032   2.270   0.905  0.1741 -0.4545 -0.0567
  915SOL    HW1 4677   6.097   2.329   0.866  0.7485 -0.9733  0.1090
  915SOL    HW2 4678   6.074   2.236   0.983  0.6060 -2.5306 -1.1166
  916SOL     OW 4679   4.185   0.903   7.684 -0.4339 -0.1351 -0.1326
  916SOL    HW1 4680   4.187   0.998   7.679  1.3432 -0.0752  0.7633
  916SOL    HW2 4681   4.277   0.878   7.694 -0.8822 -1.9343 -0.1868
  917SOL     OW 4682   2.516   8.533   8.787  0.4893 -0.0286 -0.1159
  917SOL    HW1 4683   2.469   8.474   8.846 -0.1439 -0.2157 -0.7914
  917SOL    HW2 4684   2.480   8.514   8.701  0.2672  1.3574 -0.3456
  918SOL     OW 4685   0.598   6.413   1.022  0.4505 -0.0436 -0.0253
  918SOL    HW1 4686   0.542   6.397   0.946 -0.5002 -1.3362  0.9022
  918SOL    HW2 4687   0.687   6.405   0.988  0.0548 -2.4242 -0.7027
  919SOL     OW 4688   4.457   3.094   5.862 -0.3019 -0.0653  0.3358
  919SOL    HW1 4689   4.536   3.104   5.809  0.1194  3.0024  1.3467
  919SOL    HW2 4690   4.477   3.024   5.923  0.5760 -1.1518 -1.1440
  920SOL     OW 4691   0.889   5.369   4.094 -0.4859 -0.0409 -0.2311
  920SOL    HW1 4692   0.878   5.318   4.175  1.0536  0.5888  0.4093
  920SOL    HW2 4693   0.809   5.421   4.089  1.1569  3.4483  3.5604
  921SOL     OW 4694   8.426   4.052   1.928 -0.1418  0.0469 -0.2582
  921SOL    HW1 4695   8.355   3.995   1.898  1.1838 -3.0390  1.9441
  921SOL    HW2 4696   8.488   4.054   1.855  0.1867 -2.2140 -0.1197
  922SOL     OW 4697   0.925   3.974   4.232  0.0804 -0.1270 -0.2558
  922SOL    HW1 4698   0.920   4.027   4.311  1.4789 -3.4313  2.2727
  922SOL    HW2 4699   0.858   3.907   4.244  1.4013 -1.6589 -1.0380
  923SOL     OW 4700   7.919   4.357   5.867  0.4094 -0.6134  0.1033
  923SOL    HW1 4701   8.012   4.372   5.884  0.6765 -1.9429 -0.1212
  923SOL    HW2 4702   7.887   4.313   5.946 -0.6239  1.9550  1.2397
  924SOL     OW 4703   5.724   6.302   2.017 -0.1032 -0.4679 -0.5193
  924SOL    HW1 4704   5.774   6.281   2.096 -2.2425 -0.9083  0.7811
  924SOL    HW2 4705   5.693   6.218   1.985 -2.7647 -0.0397  0.6527
  925SOL     OW 4706   2.906   2.005   6.110 -0.7186  0.2970 -0.5315
  925SOL    HW1 4707   2.995   2.027   6.138 -1.4391  0.8155  1.5308
  925SOL    HW2 4708   2.868   2.089   6.083 -0.6761  0.1326 -1.0937
  926SOL     OW 4709   8.506   0.083   7.958  0.3437  0.6063 -0.0663
  926SOL    HW1 4710   8.471   0.114   8.041  1.4175  0.4044  0.4800
  926SOL    HW2 4711   8.467  -0.004   7.947 -1.9212  1.6524 -1.1377
  927SOL     OW 4712   1.561   2.124   0.416  0.1550  0.2571 -0.0129
  927SOL    HW1 4713   1.645   2.165   0.437 -1.2016  2.7719  0.8850
  927SOL    HW2 4714   1.552   2.054   0.481  1.0443  0.7014  0.6049
  928SOL     OW 4715   2.286   5.538   0.920 -0.2875 -0.2860  0.0586
  928SOL    HW1 4716   2.235   5.619   0.921 -0.8411 -0.3867 -4.0855
  928SOL    HW2 4717   2.377   5.567   0.922 -0.4704  0.2754  0.7617
  929SOL     OW 4718   8.352   7.603   0.985  0.3567 -0.2409 -0.1117
  929SOL    HW1 4719   8.369   7.560   1.069 -2.3661  0.8516  1.1318
  929SOL    HW2 4720   8.313   7.534   0.930 -0.6873 -0.2745  0.6372
  930SOL     OW 4721   8.048   3.447   6.089 -0.0033 -0.1676 -1.1463
  930SOL    HW1 4722   8.132   3.492   6.096 -0.1657 -0.0671  0.8204
  930SOL    HW2 4723   7.998   3.499   6.027  0.3226  1.5848 -0.0190
  931SOL     OW 4724   8.016   4.395   7.780 -0.3038 -0.4422  0.4532
  931SOL    HW1 4725   8.043   4.408   7.689 -2.3321 -0.1046 -0.1540
  931SOL    HW2 4726   8.019   4.482   7.819 -1.5505 -0.1968  0.0484
  932SOL     OW 4727   7.018   3.406   0.565 -0.2218 -0.0844 -0.5849
  932SOL    HW1 4728   6.925   3.409   0.588  0.1600  1.1933  1.0130
  932SOL    HW2 4729   7.047   3.497   0.569  1.3699 -0.5814  0.2785
  933SOL     OW 4730   3.578   6.717   3.946  0.2316 -0.2070 -0.0483
  933SOL    HW1 4731   3.515   6.748   3.880  0.7706  0.7799 -0.1089
  933SOL    HW2 4732   3.609   6.796   3.989 -0.1365 -0.8432  1.4370
  934SOL     OW 4733   3.963   4.924   3.859  0.2809 -0.6374 -0.2207
  934SOL    HW1 4734   3.900   4.995   3.844 -0.8144 -1.5381  0.0190
  934SOL    HW2 4735   3.961   4.872   3.779  0.2768 -0.9995  0.0117
  935SOL     OW 4736   3.213   5.834   7.501 -0.2129  0.1064 -0.2715
  935SOL    HW1 4737   3.251   5.749   7.479 -1.4532  0.1505 -2.9349
  935SOL    HW2 4738   3.145   5.814   7.565 -0.3784 -0.8836 -0.7329
  936SOL     OW 4739   1.931   2.130   7.866  0.2639 -0.0753  1.0207
  936SOL    HW1 4740   1.953   2.042   7.897  0.3770 -0.6705 -0.6383
  936SOL    HW2 4741   1.967   2.189   7.932  0.0580 -1.2657  2.2389
  937SOL     OW 4742   4.720   1.178   7.057 -0.0226  0.0601 -0.6037
  937SOL    HW1 4743   4.784   1.182   6.986  0.8716 -0.0012  0.1719
  937SOL    HW2 4744   4.773   1.183   7.137 -1.1365  2.5409  0.0702
  938SOL     OW 4745   5.085   7.928   7.231 -0.0833 -0.1625  0.0681
  938SOL    HW1 4746   5.162   7.965   7.275  0.9610  0.1106 -1.8677
  938SOL    HW2 4747   5.063   7.850   7.281  2.1594 -0.8624  0.0346
  939SOL     OW 4748   8.043   4.978   3.275 -0.4130  0.0322 -0.1379
  939SOL    HW1 4749   8.036   5.074   3.276  3.1183  0.4588  2.0125
  939SOL    HW2 4750   8.022   4.952   3.365 -0.6449 -1.1616 -0.5181
  940SOL     OW 4751   1.815   1.218   4.989 -0.6866 -0.0728  0.0171
  940SOL    HW1 4752   1.824   1.256   4.902 -2.7716  2.3799  0.7254
  940SOL    HW2 4753   1.758   1.142   4.976 -0.7170  0.0818 -0.8062
  941SOL     OW 4754   6.196   6.144   0.424  0.4347  0.4226 -0.3285
  941SOL    HW1 4755   6.235   6.212   0.479  0.1345  0.4120 -0.1004
  941SOL    HW2 4756   6.195   6.182   0.336  0.0812  0.7926 -0.1661
  942SOL     OW 4757   6.129   5.720   7.046 -0.1391 -0.2065  0.1622
  942SOL    HW1 4758   6.058   5.659   7.026 -0.4613 -0.5715  2.2441
  942SOL    HW2 4759   6.147   5.707   7.139 -0.0641  2.6857  0.6500
  943SOL     OW 4760   6.165   7.220   1.162  0.2313  0.7647 -0.2978
  943SOL    HW1 4761   6.183   7.268   1.081  3.3725  0.0296 -0.2011
  943SOL    HW2 4762   6.232   7.251   1.223  1.4317 -2.5013  0.2413
  944SOL     OW 4763   7.566   7.191   0.214  0.1213  0.5115 -0.3726
  944SOL    HW1 4764   7.627   7.137   0.165 -0.6801 -0.6146 -0.1646
  944SOL    HW2 4765   7.479   7.162   0.184 -0.3470  0.7639  0.7014
  945SOL     OW 4766   3.435   1.152   2.557 -0.4659 -0.0449  0.0059
  945SOL    HW1 4767   3.488   1.106   2.492  0.9726  1.5502 -0.0130
  945SOL    HW2 4768   3.498   1.203   2.609 -1.8680  1.1179  0.6543
  946SOL     OW 4769   2.263   0.415   7.305 -0.3597 -0.2727 -0.2494
  946SOL    HW1 4770   2.310   0.345   7.259  0.4839  0.0713  0.0693
  946SOL    HW2 4771   2.277   0.397   7.397  0.0527  0.4378 -0.1686
  947SOL     OW 4772   5.612   4.471   2.741 -0.0660 -0.2354 -0.1504
  947SOL    HW1 4773   5.672   4.400   2.716  0.4537 -0.1162  0.6901
  947SOL    HW2 4774   5.570   4.439   2.821 -0.3156  0.1359 -0.1306
  948SOL     OW 4775   7.340   1.963   4.123  0.3667 -0.2013 -0.3449
  948SOL    HW1 4776   7.427   1.996   4.105 -0.8152  3.1781 -0.5573
  948SOL    HW2 4777   7.312   2.010   4.202 -1.3711 -0.9758 -0.4476
  949SOL     OW 4778   7.111   1.053   8.006  0.2921  0.8071  0.2097
  949SOL    HW1 4779   7.082   0.980   7.951  0.1277 -0.6822  2.1655
  949SOL    HW2 4780   7.177   1.097   7.953 -0.4452 -0.0408 -1.5025
  950SOL     OW 4781   4.784   1.727   7.398  0.5772  0.0777 -0.2756
  950SOL    HW1 4782   4.721   1.658   7.378 -0.8840  1.4487 -0.6046
  950SOL    HW2 4783   4.869   1.682   7.400 -0.4236 -1.8989  0.6208
  951SOL     OW 4784   0.122   7.005   0.695 -0.0102  0.0291  0.3371
  951SOL    HW1 4785   0.132   7.010   0.600  0.3545  1.1073  0.4176
  951SOL    HW2 4786   0.154   7.089   0.727 -1.4043  0.2243  1.3177
  952SOL     OW 4787   0.614   0.995   8.396  0.4370 -0.1639  0.2048
  952SOL    HW1 4788   0.630   0.985   8.490  0.2395 -1.0607  0.1523
  952SOL    HW2 4789   0.566   0.916   8.371  0.0500  0.2989 -0.5586
  953SOL     OW 4790   2.342   0.781   2.371 -0.3624  0.2826  0.3148
  953SOL    HW1 4791   2.343   0.838   2.293 -0.9415 -0.9952 -0.6674
  953SOL    HW2 4792   2.251   0.782   2.400 -0.6652 -1.1334 -0.4982
  954SOL     OW 4793   5.128   7.395   8.773  0.7524  0.3022 -0.4103
  954SOL    HW1 4794   5.150   7.336   8.845  2.1101  1.0762 -0.1646
  954SOL    HW2 4795   5.106   7.337   8.700  0.1567 -0.4927  0.3750
  955SOL     OW 4796   6.407   1.155   4.730 -0.4408 -0.0295 -0.0546
  955SOL    HW1 4797   6.473   1.088   4.710  1.5256  1.8706 -0.3483
  955SOL    HW2 4798   6.329   1.127   4.682  0.9428 -1.0688 -1.8241
  956SOL     OW 4799   2.449   0.168   5.197  0.1704 -0.4396 -0.4728
  956SOL    HW1 4800   2.475   0.179   5.105 -0.1460 -0.6567 -0.5911
  956SOL    HW2 4801   2.521   0.119   5.236  0.6790  0.3389 -0.4098
  957SOL     OW 4802   8.713   0.537   1.988  0.4548 -0.4536 -0.7193
  957SOL    HW1 4803   8.722   0.627   2.020  0.8055 -0.0122 -1.9860
  957SOL    HW2 4804   8.801   0.500   1.998  0.4846 -0.4196 -0.8451
  958SOL     OW 4805   5.886   8.004   8.071 -0.1616  0.2448  0.1573
  958SOL    HW1 4806   5.876   7.980   8.163  0.9359 -1.7823 -0.2045
  958SOL    HW2 4807   5.803   8.047   8.049 -0.7928 -0.0164  1.8459
  959SOL     OW 4808   5.786   5.477   0.055 -0.2180  0.0427  0.5892
  959SOL    HW1 4809   5.723   5.415   0.018 -1.6388  1.3693  0.6582
  959SOL    HW2 4810   5.864   5.469  -0.000 -0.6727 -1.1841  0.1005
  960SOL     OW 4811   6.539   5.614   3.420 -0.6589 -0.1281 -0.2019
  960SOL    HW1 4812   6.578   5.691   3.379  2.5589 -0.9828  0.9353
  960SOL    HW2 4813   6.500   5.565   3.348  1.0189  0.5047 -1.5969
  961SOL     OW 4814   0.763   2.898   7.095 -0.0951  0.0829  0.2247
  961SOL    HW1 4815   0.830   2.858   7.150  0.4863  1.6317  0.7080
  961SOL    HW2 4816   0.807   2.913   7.011 -0.5505 -0.9908 -0.2139
  962SOL     OW 4817   0.009   4.838   4.448  0.3855 -0.5109 -0.0035
  962SOL    HW1 4818   0.005   4.785   4.368  3.4887  0.2480 -0.8138
  962SOL    HW2 4819   0.029   4.776   4.518 -0.3812 -0.9229 -0.1376
  963SOL     OW 4820   3.872   2.456   6.121  0.2408 -1.0118  0.1832
  963SOL    HW1 4821   3.863   2.550   6.101 -0.1308 -0.8096  1.2307
  963SOL    HW2 4822   3.909   2.454   6.210  1.4437 -1.8629 -0.3181
  964SOL     OW 4823   0.908   3.740   4.424 -0.0303  1.1042  0.0169
  964SOL    HW1 4824   0.823   3.732   4.382  0.0905  1.9171 -0.3927
  964SOL    HW2 4825   0.891   3.787   4.506 -0.6866 -2.6470  2.2621
  965SOL     OW 4826   5.971   7.591   3.417 -0.3137  0.2083 -0.6959
  965SOL    HW1 4827   5.884   7.621   3.444 -0.2208  0.8834 -1.1102
  965SOL    HW2 4828   6.009   7.554   3.497 -0.2533  1.6696 -0.0116
  966SOL     OW 4829   3.546   6.927   5.662  0.7880  0.1423 -0.0802
  966SOL    HW1 4830   3.617   6.915   5.599  0.5820  0.4544 -0.3686
  966SOL    HW2 4831   3.527   6.838   5.693  0.1256 -0.1635 -1.2905
  967SOL     OW 4832   2.591   7.429   5.440  0.1710  0.0399  0.6434
  967SOL    HW1 4833   2.672   7.433   5.492  0.6003  2.7666 -0.0628
  967SOL    HW2 4834   2.597   7.505   5.382 -1.5378 -1.3919 -1.5502
  968SOL     OW 4835   0.423   6.562   1.909  0.0271  0.2153  0.1115
  968SOL    HW1 4836   0.381   6.544   1.825 -0.2112  2.7687 -0.3873
  968SOL    HW2 4837   0.500   6.614   1.887 -0.1583  1.1089  1.4655
  969SOL     OW 4838   3.871   3.513   1.275 -0.2698 -0.3054 -0.3966
  969SOL    HW1 4839   3.865   3.600   1.236 -0.0359 -0.3562 -0.5447
  969SOL    HW2 4840   3.946   3.472   1.233 -0.4408 -0.6175 -0.4019
  970SOL     OW 4841   4.788   0.622   7.197  0.2565 -0.5609 -0.5264
  970SOL    HW1 4842   4.744   0.551   7.150 -0.9628 -0.1160 -0.0952
  970SOL    HW2 4843   4.720   0.690   7.207  0.7966 -0.2033  0.9012
  971SOL     OW 4844   0.848   2.281   6.323  0.1243  0.6890  0.3061
  971SOL    HW1 4845   0.775   2.220   6.332  0.3772 -0.6953 -4.2662
  971SOL    HW2 4846   0.810   2.368   6.337 -2.4886 -0.0050 -1.8485
  972SOL     OW 4847   4.791   0.529   6.013  0.8845  0.1649  0.2851
  972SOL    HW1 4848   4.756   0.444   5.986  1.0524  0.1210  0.2049
  972SOL    HW2 4849   4.859   0.549   5.949  0.8316  0.3708  0.2923
  973SOL     OW 4850   1.413   6.970   2.065 -0.0756 -0.4491 -0.1487
  973SOL    HW1 4851   1.507   6.958   2.050 -0.0285 -0.2501 -0.0185
  973SOL    HW2 4852   1.403   7.063   2.081 -0.3369 -0.4247 -0.4370
  974SOL     OW 4853   1.458   1.040   3.911 -0.3153 -0.2744  0.6345
  974SOL    HW1 4854   1.389   1.067   3.851  0.0627  0.1240  0.3687
  974SOL    HW2 4855   1.540   1.060   3.865 -0.0172  0.1336  1.3173
  975SOL     OW 4856   2.175   4.794   3.845 -0.9671 -0.5500  0.0823
  975SOL    HW1 4857   2.269   4.784   3.864 -0.4211  0.9140 -1.6683
  975SOL    HW2 4858   2.155   4.721   3.786 -1.5560 -2.2408  2.1984
  976SOL     OW 4859   7.229   3.610   7.828  0.0076 -0.4351  0.5195
  976SOL    HW1 4860   7.220   3.531   7.774  0.5196  1.3957 -2.5092
  976SOL    HW2 4861   7.323   3.624   7.836 -0.0300  0.8983 -0.7918
  977SOL     OW 4862   5.286   0.794   0.780 -0.5833 -0.2749 -0.0834
  977SOL    HW1 4863   5.234   0.772   0.703 -1.3138  0.2077  0.2599
  977SOL    HW2 4864   5.221   0.805   0.850  0.0993 -1.1866  0.7215
  978SOL     OW 4865   7.947   4.011   2.563 -0.3835  0.3022 -0.1632
  978SOL    HW1 4866   7.936   4.034   2.470 -0.3380 -0.0781 -0.2669
  978SOL    HW2 4867   8.000   3.931   2.561  0.0931  0.6050  0.2158
  979SOL     OW 4868   1.186   7.124   1.760 -0.4641 -0.6445 -0.2716
  979SOL    HW1 4869   1.101   7.142   1.801 -0.5053 -1.7281  0.1518
  979SOL    HW2 4870   1.200   7.030   1.774 -0.0382 -0.8566 -1.9513
  980SOL     OW 4871   2.215   7.913   3.915 -0.1909 -0.1183 -0.0245
  980SOL    HW1 4872   2.188   8.003   3.933  0.4072  0.3391 -1.2543
  980SOL    HW2 4873   2.252   7.916   3.826  1.1464 -1.2839  0.4361
  981SOL     OW 4874   5.590   2.111   4.968 -0.1237  0.2954  0.0652
  981SOL    HW1 4875   5.601   2.020   4.940  0.6878  1.2572 -3.2505
  981SOL    HW2 4876   5.506   2.112   5.014 -1.3143 -1.7756 -1.8314
  982SOL     OW 4877   4.145   4.742   8.190  0.4553 -0.1542  0.0188
  982SOL    HW1 4878   4.238   4.720   8.186  0.1616 -1.4814  0.0384
  982SOL    HW2 4879   4.141   4.817   8.250  1.4930 -0.1893  0.1502
  983SOL     OW 4880   6.099   1.619   8.731 -0.5791  0.9044  0.2628
  983SOL    HW1 4881   6.148   1.611   8.812 -0.3113 -0.1929 -0.0021
  983SOL    HW2 4882   6.009   1.637   8.759  0.0981  4.1583  0.7424
  984SOL     OW 4883   5.263   5.045   1.102  0.3137 -0.1531 -0.3932
  984SOL    HW1 4884   5.210   4.989   1.045 -0.2790 -0.0519  0.0585
  984SOL    HW2 4885   5.241   5.134   1.075  0.2810 -0.1118 -0.2296
  985SOL     OW 4886   3.383   4.070   1.711  1.1778 -0.3875  0.3431
  985SOL    HW1 4887   3.384   4.020   1.793 -0.1934  0.2507  0.7865
  985SOL    HW2 4888   3.469   4.054   1.672  1.2313 -2.1145  1.0502
  986SOL     OW 4889   3.494   5.356   4.883  0.7310  0.3819 -0.0484
  986SOL    HW1 4890   3.568   5.304   4.915 -1.2455 -1.8296  1.2443
  986SOL    HW2 4891   3.472   5.317   4.798  0.2732  0.1976  0.1530
  987SOL     OW 4892   2.593   7.348   2.295 -0.2582  0.6837  0.0315
  987SOL    HW1 4893   2.599   7.444   2.288  1.8572  0.6232  0.2736
  987SOL    HW2 4894   2.535   7.322   2.223 -1.4725  2.1837  0.4193
  988SOL     OW 4895   3.254   7.430   6.538  0.1057 -0.2410  0.1663
  988SOL    HW1 4896   3.344   7.443   6.569  0.5749 -1.9907 -0.3381
  988SOL    HW2 4897   3.234   7.339   6.560 -2.3488  0.6757  2.1441
  989SOL     OW 4898   8.233   5.191   4.359  0.1005  0.1499 -0.1009
  989SOL    HW1 4899   8.272   5.248   4.293  0.3470  0.9600  0.7098
  989SOL    HW2 4900   8.142   5.218   4.365 -0.2799 -0.8409 -1.0471
  990SOL     OW 4901   0.048   0.026   2.359  0.2533  0.2526 -0.0963
  990SOL    HW1 4902   0.011   0.049   2.274  1.1642  0.7026 -0.3794
  990SOL    HW2 4903   0.057   0.110   2.405 -3.1861 -0.1808  1.7489
  991SOL     OW 4904   8.370   1.146   2.677 -0.9837  0.5308  0.0631
  991SOL    HW1 4905   8.305   1.097   2.626  0.1265 -0.6436 -0.2886
  991SOL    HW2 4906   8.388   1.089   2.752 -0.1838  0.7162  0.0191
  992SOL     OW 4907   4.346   6.690   8.023 -0.2015 -0.1677 -0.0974
  992SOL    HW1 4908   4.263   6.692   7.976 -0.6167 -0.0559  0.6110
  992SOL    HW2 4909   4.322   6.661   8.111  0.5035 -0.0717  0.1285
  993SOL     OW 4910   1.783   8.734   6.871 -0.2428  0.1552 -0.3969
  993SOL    HW1 4911   1.692   8.749   6.897 -0.9050 -0.5339 -2.1381
  993SOL    HW2 4912   1.789   8.639   6.862  0.5539  0.2220 -0.6342
  994SOL     OW 4913   6.535   8.785   1.411 -0.1726 -0.2272  0.3278
  994SOL    HW1 4914   6.443   8.770   1.390 -0.7938  1.5226  1.5188
  994SOL    HW2 4915   6.583   8.752   1.336 -1.7963 -0.7944 -0.5056
  995SOL     OW 4916   7.144   3.262   3.121 -0.3481  0.0006 -0.1620
  995SOL    HW1 4917   7.049   3.258   3.135 -0.3834  0.3438 -0.2860
  995SOL    HW2 4918   7.159   3.351   3.088 -0.0743 -0.2825 -0.8250
  996SOL     OW 4919   1.028   2.015   1.153  0.2460  1.1145  0.2289
  996SOL    HW1 4920   0.987   2.079   1.211 -0.1146  0.5302  0.6320
  996SOL    HW2 4921   0.956   1.984   1.097  0.6735  1.9965 -0.8496
  997SOL     OW 4922   7.741   8.672   7.623 -0.1219 -0.2091 -0.1211
  997SOL    HW1 4923   7.717   8.681   7.531  0.8540 -0.8039 -0.4506
  997SOL    HW2 4924   7.827   8.629   7.622  0.1862  0.3193  1.0481
  998SOL     OW 4925   1.230   0.902   7.349 -0.4039 -0.0740  0.6806
  998SOL    HW1 4926   1.162   0.942   7.295  0.7795  1.0678 -0.0452
  998SOL    HW2 4927   1.213   0.808   7.345 -0.9180  0.0595 -0.9149
  999SOL     OW 4928   8.778   7.740   3.880 -0.5257  0.1054 -0.2879
  999SOL    HW1 4929   8.703   7.762   3.935 -0.2882 -1.3014  0.6403
  999SOL    HW2 4930   8.841   7.811   3.896 -0.8987  0.2886  0.4089
 1000SOL     OW 4931   2.537   6.465   7.916  0.8283 -0.0661  0.0331
 1000SOL    HW1 4932   2.559   6.558   7.905  0.3034 -0.2627 -4.0502
 1000SOL    HW2 4933   2.444   6.466   7.938  0.9489  0.3550  0.5598
 1001SOL     OW 4934   0.146   1.637   3.259 -0.5152 -0.7568 -0.4024
 1001SOL    HW1 4935   0.150   1.636   3.355  0.3089 -1.8037 -0.4254
 1001SOL    HW2 4936   0.053   1.643   3.239 -0.7644 -1.4368  0.4809
 1002SOL     OW 4937   2.097   2.914   6.697  0.1994 -0.4014  0.7054
 1002SOL    HW1 4938   2.123   2.830   6.658  4.2649  1.0371 -0.1658
 1002SOL    HW2 4939   2.089   2.973   6.623  3.2524  1.2426  1.5207
 1003SOL     OW 4940   6.073   1.815   1.473  0.3420 -0.1349  0.2866
 1003SOL    HW1 4941   5.979   1.815   1.492  0.2048  2.6925  0.0062
 1003SOL    HW2 4942   6.080   1.772   1.388 -0.7240 -0.1524  0.1943
 1004SOL     OW 4943   7.159   1.374   7.440  0.3263 -0.5029 -0.2430
 1004SOL    HW1 4944   7.157   1.352   7.533 -0.2294 -2.4300 -0.6714
 1004SOL    HW2 4945   7.149   1.470   7.438  0.5971 -0.3926  1.6635
 1005SOL     OW 4946   5.692   7.459   8.148 -0.5399  0.1800 -0.0589
 1005SOL    HW1 4947   5.641   7.512   8.210  0.5558  0.3746  0.7035
 1005SOL    HW2 4948   5.626   7.420   8.090 -1.6770 -0.5296  1.6289
 1006SOL     OW 4949   8.057   4.319   8.310 -0.8227 -0.3795 -0.2975
 1006SOL    HW1 4950   8.092   4.297   8.223 -0.7682 -1.5260  0.0004
 1006SOL    HW2 4951   8.134   4.338   8.363 -0.7956 -0.6207 -0.2495
 1007SOL     OW 4952   3.328   8.126   3.104 -0.0922 -0.0174  0.3059
 1007SOL    HW1 4953   3.394   8.180   3.147  1.0368 -1.4423  0.4183
 1007SOL    HW2 4954   3.334   8.150   3.011 -1.3380  1.8048  0.6337
 1008SOL     OW 4955   4.531   1.990   3.761  0.0359 -0.1052  0.3696
 1008SOL    HW1 4956   4.514   1.974   3.668 -0.1399 -0.4127  0.4567
 1008SOL    HW2 4957   4.573   2.077   3.762 -0.1967  0.0143  0.0285
 1009SOL     OW 4958   4.505   5.835   5.006  0.4805  0.5246 -0.8486
 1009SOL    HW1 4959   4.421   5.829   5.053  1.3705 -0.5929  0.6884
 1009SOL    HW2 4960   4.480   5.844   4.914 -1.3416 -0.8813 -0.5515
 1010SOL     OW 4961   5.085   2.737   8.537 -0.3243 -0.1039  0.1567
 1010SOL    HW1 4962   5.018   2.799   8.508 -1.5221 -0.8043  1.2751
 1010SOL    HW2 4963   5.152   2.791   8.577 -0.7620  0.5497  0.0280
 1011SOL     OW 4964   3.075   5.052   8.539  0.0694 -0.3062 -0.2991
 1011SOL    HW1 4965   3.036   5.076   8.455 -0.4496 -0.2056 -0.0323
 1011SOL    HW2 4966   3.001   5.042   8.598  0.4741  0.6227  0.4101
 1012SOL     OW 4967   8.804   3.367   6.628 -0.2147  0.0151 -0.3924
 1012SOL    HW1 4968   8.790   3.446   6.681  0.0876  1.0712 -1.8410
 1012SOL    HW2 4969   8.719   3.322   6.631 -0.5392  0.6341  0.0639
 1013SOL     OW 4970   5.647   5.568   7.415 -0.6037 -0.6264 -0.5382
 1013SOL    HW1 4971   5.634   5.644   7.359 -1.5632 -0.0145  0.4850
 1013SOL    HW2 4972   5.606   5.496   7.367 -0.4717 -0.3318 -1.1044
 1014SOL     OW 4973   7.812   7.960   0.236  0.3169 -0.2596 -0.4546
 1014SOL    HW1 4974   7.718   7.944   0.243  0.4319 -0.2014  2.3313
 1014SOL    HW2 4975   7.823   8.052   0.260  1.1416 -0.4709  0.0386
 1015SOL     OW 4976   3.204   2.578   4.223 -0.2935 -0.0971 -0.1309
 1015SOL    HW1 4977   3.293   2.601   4.248 -0.5463  0.8543 -0.0756
 1015SOL    HW2 4978   3.214   2.498   4.170  0.6186  0.1707 -0.3814
 1016SOL     OW 4979   5.669   7.189   1.676  0.3963 -0.1046 -0.0953
 1016SOL    HW1 4980   5.724   7.122   1.635  2.0595  0.2162  1.4766
 1016SOL    HW2 4981   5.726   7.265   1.684 -0.3787  0.3585  1.3015
 1017SOL     OW 4982   0.247   2.523   6.540 -0.5879 -0.0512 -0.0536
 1017SOL    HW1 4983   0.281   2.613   6.544 -0.8962  0.0551  0.2655
 1017SOL    HW2 4984   0.297   2.476   6.607 -1.2276  0.1660  0.5953
 1018SOL     OW 4985   4.399   7.078   5.218 -0.2966 -0.3221 -0.4141
 1018SOL    HW1 4986   4.308   7.068   5.247 -0.1929 -0.0884 -0.0016
 1018SOL    HW2 4987   4.398   7.052   5.126 -1.0286  0.8995 -0.7751
 1019SOL     OW 4988   8.268   5.594   4.936  0.1106  0.1131 -0.6110
 1019SOL    HW1 4989   8.289   5.501   4.940  0.6320  0.2664  2.0833
 1019SOL    HW2 4990   8.336   5.637   4.989  0.1256  2.0984 -2.1070
 1020SOL     OW 4991   6.712   7.631   7.084  0.2155  0.6444 -0.2718
 1020SOL    HW1 4992   6.617   7.632   7.091  0.1127  4.5672 -0.3712
 1020SOL    HW2 4993   6.729   7.613   6.992 -0.4796  1.1169 -0.4996
 1021SOL     OW 4994   1.008   8.681   8.685  0.2851 -0.0209 -0.1289
 1021SOL    HW1 4995   0.960   8.681   8.767 -1.5259  0.2433 -1.1342
 1021SOL    HW2 4996   1.100   8.678   8.711 -0.1648  1.6380  1.9321
 1022SOL     OW 4997   1.336   0.425   8.196 -0.1035 -0.0935 -0.1073
 1022SOL    HW1 4998   1.423   0.408   8.233 -0.7769 -0.7036  1.2816
 1022SOL    HW2 4999   1.335   0.518   8.178  1.7186 -0.4670 -2.5740
 1023SOL     OW 5000   7.402   8.275   0.480 -0.0306 -0.5860 -0.0677
 1023SOL    HW1 5001   7.392   8.338   0.551 -0.7225  1.4739 -1.8720
 1023SOL    HW2 5002   7.496   8.257   0.477  0.3554  1.2526 -0.1930
 1024SOL     OW 5003   5.681   7.508   3.325  0.1398 -0.0215 -0.0375
 1024SOL    HW1 5004   5.661   7.532   3.415 -1.8138  0.4029 -0.5474
 1024SOL    HW2 5005   5.691   7.592   3.279 -0.5741 -0.2138 -0.5605
 1025SOL     OW 5006   4.105   2.490   2.668  0.6709  0.1797  0.1475
 1025SOL    HW1 5007   4.198   2.472   2.683  0.1810 -1.2375  1.7873
 1025SOL    HW2 5008   4.064   2.404   2.666 -0.6718  0.8039 -0.2366
 1026SOL     OW 5009   7.766   2.852   8.651  0.2178 -0.0224 -0.0651
 1026SOL    HW1 5010   7.799   2.925   8.704  0.4669 -1.8631  2.5668
 1026SOL    HW2 5011   7.836   2.787   8.655 -0.3224 -0.7421 -1.6257
 1027SOL     OW 5012   5.016   1.113   8.702  0.4885  0.2109 -0.4913
 1027SOL    HW1 5013   4.975   1.028   8.686  2.2483 -0.4493 -1.7909
 1027SOL    HW2 5014   5.029   1.116   8.797  0.5801 -1.0492 -0.4456
 1028SOL     OW 5015   3.048   4.192   4.492 -0.3654 -0.3050  0.3831
 1028SOL    HW1 5016   3.090   4.129   4.552  0.4197  0.4425  0.6520
 1028SOL    HW2 5017   2.981   4.234   4.545 -0.3461 -0.3522  0.4455
 1029SOL     OW 5018   0.362   8.085   1.575 -0.4740 -0.1801 -0.1884
 1029SOL    HW1 5019   0.407   8.102   1.492  1.0152 -1.4725  0.2943
 1029SOL    HW2 5020   0.308   8.008   1.558  1.0547 -1.4362  0.4047
 1030SOL     OW 5021   1.230   0.597   7.412  0.4787  0.0332  0.4484
 1030SOL    HW1 5022   1.309   0.629   7.456  0.7782 -0.4424  0.2551
 1030SOL    HW2 5023   1.260   0.524   7.359  0.5495  1.9226 -2.3044
 1031SOL     OW 5024   8.196   8.435   5.628  0.4572 -0.8969  0.1156
 1031SOL    HW1 5025   8.198   8.507   5.691  1.7839 -0.9487  0.1507
 1031SOL    HW2 5026   8.104   8.431   5.599  0.0519 -0.2029  1.2565
 1032SOL     OW 5027   8.348   8.418   0.567  0.1935 -0.1521  0.4597
 1032SOL    HW1 5028   8.432   8.389   0.532 -0.4022  0.3361 -1.5231
 1032SOL    HW2 5029   8.296   8.339   0.575 -0.2193 -0.1306 -1.4806
 1033SOL     OW 5030   8.317   1.156   0.781  0.1941  0.2757  0.1117
 1033SOL    HW1 5031   8.245   1.213   0.757  0.8140  1.6404  1.3596
 1033SOL    HW2 5032   8.278   1.089   0.837 -0.0733  1.1662  1.0070
 1034SOL     OW 5033   4.615   6.363   7.600  0.3475 -0.0137 -0.1616
 1034SOL    HW1 5034   4.676   6.290   7.616  0.4862 -0.2213 -1.5186
 1034SOL    HW2 5035   4.672   6.440   7.593  0.2417  0.1635  0.7967
 1035SOL     OW 5036   2.332   8.668   5.305  0.1720 -0.4955 -0.4182
 1035SOL    HW1 5037   2.308   8.759   5.286  0.4329 -0.5678 -1.1108
 1035SOL    HW2 5038   2.301   8.618   5.230 -1.2020 -1.1939  0.5788
 1036SOL     OW 5039   5.370   7.195   7.151  0.0134 -0.1100  0.2838
 1036SOL    HW1 5040   5.311   7.145   7.095 -2.1164  1.9377  0.5714
 1036SOL    HW2 5041   5.333   7.184   7.239  1.6855 -0.9785  0.9274
 1037SOL     OW 5042   6.881   0.024   2.193 -0.4733 -0.4882 -0.1674
 1037SOL    HW1 5043   6.797   0.007   2.151 -1.2397  2.1008  0.0981
 1037SOL    HW2 5044   6.858   0.045   2.284  0.1790  1.9455 -0.4848
 1038SOL     OW 5045   0.567   0.918   2.619 -0.4531  0.4329 -0.8460
 1038SOL    HW1 5046   0.609   0.986   2.671 -1.0818 -0.3856  0.7834
 1038SOL    HW2 5047   0.636   0.853   2.604  0.3861  1.7286 -3.1159
 1039SOL     OW 5048   0.738   8.070   5.862 -0.0337  0.5570 -0.2489
 1039SOL    HW1 5049   0.805   8.094   5.926 -1.1448 -0.6549  1.4357
 1039SOL    HW2 5050   0.750   8.133   5.791  2.3556  0.8703  0.3360
 1040SOL     OW 5051   8.025   0.050   0.165  0.0023  0.0379  0.3365
 1040SOL    HW1 5052   8.030  -0.032   0.214  2.5410 -1.7424 -2.5296
 1040SOL    HW2 5053   8.107   0.095   0.184 -0.0134  0.4319 -0.4599
 1041SOL     OW 5054   6.896   0.626   1.347 -0.3946  0.4360  0.4083
 1041SOL    HW1 5055   6.938   0.582   1.273  1.6399  2.1147  0.4788
 1041SOL    HW2 5056   6.855   0.555   1.397 -0.0478 -0.9582 -1.2039
 1042SOL     OW 5057   8.521   0.347   6.731  0.2020  0.4185  0.0224
 1042SOL    HW1 5058   8.430   0.328   6.752  0.1102  1.4543  0.6314
 1042SOL    HW2 5059   8.570   0.319   6.808  0.0107  2.9194  1.1784
 1043SOL     OW 5060   5.368   3.486   6.903 -0.1364 -0.0320  0.7613
 1043SOL    HW1 5061   5.335   3.424   6.837 -0.0216 -0.4416  1.0833
 1043SOL    HW2 5062   5.293   3.542   6.922 -0.8211 -1.2595  1.8473
 1044SOL     OW 5063   7.728   7.410   5.064 -0.0841  0.1717 -0.9452
 1044SOL    HW1 5064   7.740   7.329   5.114  0.2293 -0.0102 -1.3058
 1044SOL    HW2 5065   7.767   7.478   5.118 -0.4686  0.1068 -0.5778
 1045SOL     OW 5066   7.007   7.287   3.011 -0.4501  0.0218  0.5615
 1045SOL    HW1 5067   7.017   7.250   3.099  1.8848 -1.8240 -0.3547
 1045SOL    HW2 5068   6.976   7.214   2.958 -1.6415  1.0594 -0.2285
 1046SOL     OW 5069   5.400   3.124   7.326 -0.6340  0.0868  0.1200
 1046SOL    HW1 5070   5.435   3.154   7.242 -0.9868 -0.6371 -0.3024
 1046SOL    HW2 5071   5.308   3.149   7.324 -0.4943  0.6372  0.5704
 1047SOL     OW 5072   8.130   7.596   2.638  0.1279 -0.1292 -0.1907
 1047SOL    HW1 5073   8.063   7.664   2.638  0.0889 -0.1672 -0.1827
 1047SOL    HW2 5074   8.090   7.523   2.592  0.6447  0.3070 -1.3573
 1048SOL     OW 5075   6.841   8.816   0.404 -0.5808  0.5745 -0.4128
 1048SOL    HW1 5076   6.849   8.771   0.320  0.9086 -1.6215  0.8081
 1048SOL    HW2 5077   6.787   8.757   0.458  1.1658  0.3132  1.1528
 1049SOL     OW 5078   4.655   7.273   3.862  0.3445 -0.4888 -0.1083
 1049SOL    HW1 5079   4.639   7.339   3.929  1.2005 -0.0246 -0.3409
 1049SOL    HW2 5080   4.620   7.192   3.900  1.2425 -0.3372  1.1230
 1050SOL     OW 5081   1.778   8.293   1.202 -0.7317 -0.2873 -0.2024
 1050SOL    HW1 5082   1.768   8.264   1.293  0.7848 -1.2027 -0.2963
 1050SOL    HW2 5083   1.867   8.326   1.197 -1.7124  2.6239 -0.6417
 1051SOL     OW 5084   5.663   7.590   1.216 -0.0536  0.5283  0.2702
 1051SOL    HW1 5085   5.628   7.676   1.193  0.0825  0.4365 -0.2684
 1051SOL    HW2 5086   5.664   7.541   1.134 -1.4463 -0.4608  0.8017
 1052SOL     OW 5087   3.441   7.237   6.810  0.0710 -0.7592  0.2397
 1052SOL    HW1 5088   3.446   7.312   6.750 -0.5120 -2.2809 -1.8245
 1052SOL    HW2 5089   3.373   7.181   6.773 -1.3970 -1.1153  3.1957
 1053SOL     OW 5090   5.037   0.728   3.586 -0.4617 -0.6405  0.8367
 1053SOL    HW1 5091   5.100   0.683   3.643  2.7718  0.3128 -1.6473
 1053SOL    HW2 5092   5.064   0.820   3.589 -1.6423 -0.2272 -0.4568
 1054SOL     OW 5093   5.326   2.654   4.409  0.8086  0.2569 -0.5443
 1054SOL    HW1 5094   5.320   2.653   4.504 -1.3965  2.6401 -0.5374
 1054SOL    HW2 5095   5.336   2.562   4.385 -1.2847 -0.7429  1.9043
 1055SOL     OW 5096   2.641   6.484   3.793  1.0663  0.3120 -0.5765
 1055SOL    HW1 5097   2.696   6.469   3.716  0.3280  3.0371 -1.7579
 1055SOL    HW2 5098   2.651   6.577   3.813  0.2115 -0.0348  1.8568
 1056SOL     OW 5099   0.649   4.220   2.215  0.4472  0.0715  0.3740
 1056SOL    HW1 5100   0.585   4.253   2.151 -0.3122 -3.0811 -0.6697
 1056SOL    HW2 5101   0.725   4.196   2.162  0.3268 -1.3353  0.8213
 1057SOL     OW 5102   0.051   6.609   4.181  0.4665  0.6738 -0.6015
 1057SOL    HW1 5103   0.110   6.616   4.257 -1.0532 -0.3681  0.7381
 1057SOL    HW2 5104  -0.036   6.602   4.219 -0.3350 -0.0419 -2.4533
 1058SOL     OW 5105   8.027   6.844   4.979  1.1093 -0.4319 -0.4126
 1058SOL    HW1 5106   8.011   6.765   4.928  1.1024  0.0797 -1.2233
 1058SOL    HW2 5107   7.998   6.822   5.068  1.1907 -1.3602 -0.6096
 1059SOL     OW 5108   3.730   7.322   0.351  0.4454 -0.6216 -0.3962
 1059SOL    HW1 5109   3.781   7.402   0.344 -1.0361  0.4296  0.2036
 1059SOL    HW2 5110   3.768   7.263   0.287  2.1461  0.2343 -0.2185
 1060SOL     OW 5111   8.481   8.290   3.024  0.3232 -0.2575 -0.4304
 1060SOL    HW1 5112   8.479   8.378   3.062  0.6209 -0.4268 -0.0137
 1060SOL    HW2 5113   8.438   8.235   3.090  1.7095 -0.7262  0.1162
 1061SOL     OW 5114   5.299   5.660   3.220 -0.7501  0.7449 -0.2231
 1061SOL    HW1 5115   5.359   5.593   3.188  1.4029  2.3495  0.1934
 1061SOL    HW2 5116   5.212   5.621   3.211  0.3810 -2.0606 -0.0119
 1062SOL     OW 5117   0.802   7.122   5.288  0.4504 -0.0202 -0.1086
 1062SOL    HW1 5118   0.750   7.067   5.348  1.3511  0.8159  1.5038
 1062SOL    HW2 5119   0.785   7.085   5.201 -2.6131  0.0533  0.3609
 1063SOL     OW 5120   7.332   4.037   8.062  0.0220 -0.2942  0.5792
 1063SOL    HW1 5121   7.349   4.115   8.010  2.7174 -0.7946  0.5672
 1063SOL    HW2 5122   7.387   4.047   8.140 -2.9556 -0.1558  2.8537
 1064SOL     OW 5123   2.205   2.672   6.657  0.5384  0.9177  0.2829
 1064SOL    HW1 5124   2.280   2.647   6.711  0.0239 -2.4205 -0.3344
 1064SOL    HW2 5125   2.152   2.593   6.651 -2.6118  2.8718 -0.1041
 1065SOL     OW 5126   7.003   0.107   7.321  0.9487 -0.3887  0.6239
 1065SOL    HW1 5127   6.949   0.041   7.277  1.3798 -0.1132 -0.3597
 1065SOL    HW2 5128   7.062   0.057   7.376 -1.1986 -0.6520  2.8536
 1066SOL     OW 5129   7.185   7.470   4.403  0.0094 -0.1962  0.0438
 1066SOL    HW1 5130   7.138   7.503   4.480  1.0763 -0.6385  0.9035
 1066SOL    HW2 5131   7.275   7.501   4.414 -0.1075  1.0233 -1.8028
 1067SOL     OW 5132   3.274   1.310   3.448  0.1193 -0.0282 -0.1970
 1067SOL    HW1 5133   3.191   1.312   3.495 -0.3282 -1.7550 -0.8369
 1067SOL    HW2 5134   3.333   1.262   3.506 -0.1277 -1.2007 -0.8790
 1068SOL     OW 5135   2.076   5.486   0.446  0.2889 -0.1659  1.0636
 1068SOL    HW1 5136   2.002   5.518   0.395 -0.3965 -1.3891  1.2411
 1068SOL    HW2 5137   2.046   5.486   0.536 -0.6659 -3.4106  0.8994
 1069SOL     OW 5138   7.079   1.506   3.563 -0.3347  0.5593 -0.4969
 1069SOL    HW1 5139   7.088   1.582   3.506 -0.5727  0.0209 -1.2727
 1069SOL    HW2 5140   7.095   1.540   3.651 -1.7608  1.7733 -0.6686
 1070SOL     OW 5141   0.056   1.471   8.734 -0.2133  0.2239 -0.3810
 1070SOL    HW1 5142   0.053   1.481   8.639  1.0184 -1.3129 -0.6277
 1070SOL    HW2 5143  -0.029   1.503   8.764 -1.0440 -0.2293 -2.1024
 1071SOL     OW 5144   5.304   4.251   6.352 -0.4287 -0.5593  0.2939
 1071SOL    HW1 5145   5.245   4.202   6.410 -0.7897 -1.6599 -0.9455
 1071SOL    HW2 5146   5.263   4.244   6.265 -0.2602  1.6122 -0.0178
 1072SOL     OW 5147   2.730   5.795   3.037 -0.0324 -0.0072  0.2024
 1072SOL    HW1 5148   2.740   5.731   3.108  0.1480 -2.0304 -1.5254
 1072SOL    HW2 5149   2.696   5.873   3.080  2.8889 -0.0697  2.9622
 1073SOL     OW 5150   3.217   2.714   6.761  0.4459  0.0687 -0.7942
 1073SOL    HW1 5151   3.134   2.743   6.723  0.9453  0.1119 -1.8871
 1073SOL    HW2 5152   3.193   2.638   6.814 -0.2981  0.0960 -1.0678
 1074SOL     OW 5153   4.770   7.822   5.497 -0.3181  0.8843  0.1509
 1074SOL    HW1 5154   4.733   7.734   5.492  1.1582  0.1074  1.8559
 1074SOL    HW2 5155   4.760   7.857   5.409 -2.5684 -0.2745 -0.1373
 1075SOL     OW 5156   8.848   1.281   4.690  0.1092 -0.0592 -0.3947
 1075SOL    HW1 5157   8.918   1.334   4.728 -0.4772  0.0738  0.5521
 1075SOL    HW2 5158   8.768   1.314   4.731 -0.5744  0.0844 -1.7794
 1076SOL     OW 5159   5.418   3.582   0.173 -0.2957 -1.0905  0.1415
 1076SOL    HW1 5160   5.429   3.494   0.138  0.8996 -0.5341 -0.9663
 1076SOL    HW2 5161   5.351   3.573   0.240  1.0791 -3.1925  1.3545
 1077SOL     OW 5162   5.326   8.205   0.132 -0.7032  0.6838 -0.6631
 1077SOL    HW1 5163   5.297   8.295   0.151  1.0948  0.9574  1.0363
 1077SOL    HW2 5164   5.302   8.155   0.210 -0.7603 -0.1124 -1.1763
 1078SOL     OW 5165   7.358   5.115   4.697  0.4280  0.1267 -0.3700
 1078SOL    HW1 5166   7.370   5.021   4.711  1.7174  0.1766 -0.9989
 1078SOL    HW2 5167   7.417   5.136   4.625  0.4929  1.5132  0.0625
 1079SOL     OW 5168   8.535   7.701   7.351 -0.0159  1.0091  0.2494
 1079SOL    HW1 5169   8.469   7.699   7.420  0.8812  0.7527  1.1132
 1079SOL    HW2 5170   8.579   7.785   7.363  0.2689  0.8800  0.1121
 1080SOL     OW 5171   8.588   5.928   1.767  0.1876  0.5405 -1.1341
 1080SOL    HW1 5172   8.639   5.848   1.754 -1.9139 -1.2618  0.9256
 1080SOL    HW2 5173   8.505   5.911   1.723 -0.8737  0.9049  0.6210
 1081SOL     OW 5174   5.449   0.788   6.542  0.1972  0.4726  0.0035
 1081SOL    HW1 5175   5.355   0.768   6.543 -0.0581  1.3838 -1.8585
 1081SOL    HW2 5176   5.483   0.736   6.470  1.2476 -0.2173  0.9672
 1082SOL     OW 5177   8.260   6.876   2.733 -0.0348  0.0712  0.5226
 1082SOL    HW1 5178   8.243   6.970   2.728 -1.2180 -0.1821 -2.1204
 1082SOL    HW2 5179   8.176   6.838   2.760 -0.0146 -0.3303  0.0327
 1083SOL     OW 5180   6.541   5.383   2.305 -0.5598  0.0046 -0.2412
 1083SOL    HW1 5181   6.525   5.310   2.365  0.7112  0.8416  1.2199
 1083SOL    HW2 5182   6.621   5.358   2.259 -0.0832  0.4719  0.3129
 1084SOL     OW 5183   4.396   5.784   2.025  0.3555 -0.2599  0.0096
 1084SOL    HW1 5184   4.452   5.857   2.000 -0.3620 -0.5197 -2.7349
 1084SOL    HW2 5185   4.321   5.825   2.068  0.3159  0.5675 -0.8190
 1085SOL     OW 5186   2.749   6.874   3.186  0.0723 -0.0172  0.4523
 1085SOL    HW1 5187   2.832   6.886   3.232  1.3014  1.5488 -1.9734
 1085SOL    HW2 5188   2.705   6.958   3.195  0.1641  0.1821 -0.8709
 1086SOL     OW 5189   4.776   1.774   2.452 -0.3145 -0.0171 -0.7309
 1086SOL    HW1 5190   4.742   1.756   2.365  0.8678 -0.9672 -1.0220
 1086SOL    HW2 5191   4.727   1.716   2.510 -0.5124  0.0004 -0.8800
 1087SOL     OW 5192   1.592   0.434   2.955 -0.2598 -0.3862  0.1145
 1087SOL    HW1 5193   1.546   0.396   2.880 -0.2425 -1.1191  0.4664
 1087SOL    HW2 5194   1.588   0.366   3.022  1.4227 -0.5212  0.1269
 1088SOL     OW 5195   1.410   7.908   7.603  0.2332 -0.2919 -0.1093
 1088SOL    HW1 5196   1.335   7.925   7.547 -1.6838 -0.7662  2.1647
 1088SOL    HW2 5197   1.417   7.813   7.606  0.7564 -0.2578 -0.0571
 1089SOL     OW 5198   2.021   8.816   0.156 -1.0360  0.6884 -0.0780
 1089SOL    HW1 5199   2.007   8.737   0.104  0.2684  1.6847 -2.0253
 1089SOL    HW2 5200   2.083   8.788   0.224  1.0201  0.4269 -1.9495
 1090SOL     OW 5201   1.205   5.901   4.492  0.1984  0.7852  0.0944
 1090SOL    HW1 5202   1.151   5.967   4.447 -0.2093  0.2932 -0.1577
 1090SOL    HW2 5203   1.211   5.932   4.582  0.4299  1.4246 -0.1363
 1091SOL     OW 5204   7.264   1.758   8.270  0.1299 -0.6509 -0.0542
 1091SOL    HW1 5205   7.345   1.765   8.219  0.5064  0.8633  0.6677
 1091SOL    HW2 5206   7.257   1.843   8.315 -0.4145 -1.7176  2.0247
 1092SOL     OW 5207   1.107   4.351   3.083  0.2954 -0.5482  0.0646
 1092SOL    HW1 5208   1.108   4.349   2.987  1.6449 -1.7356  0.0764
 1092SOL    HW2 5209   1.014   4.357   3.105 -0.0262  0.0247 -1.3125
 1093SOL     OW 5210   3.345   5.772   7.868 -0.2900  0.1056  0.3285
 1093SOL    HW1 5211   3.387   5.841   7.817  0.4547 -0.3486  0.3076
 1093SOL    HW2 5212   3.405   5.697   7.861 -1.4073 -0.7745 -0.2191
 1094SOL     OW 5213   2.427   2.454   7.463 -0.0885 -0.3928 -0.1957
 1094SOL    HW1 5214   2.424   2.538   7.510 -3.8855 -0.9862  1.0093
 1094SOL    HW2 5215   2.519   2.427   7.468  1.2480  3.4460 -0.3652
 1095SOL     OW 5216   2.671   2.255   4.693 -0.1421  0.4961 -0.4374
 1095SOL    HW1 5217   2.703   2.171   4.727 -1.6292 -0.6683 -1.7781
 1095SOL    HW2 5218   2.698   2.319   4.759  0.6005 -1.0862  0.8775
 1096SOL     OW 5219   1.157   1.334   4.523  0.1027  0.1878 -0.2014
 1096SOL    HW1 5220   1.081   1.305   4.472 -0.0241 -0.0709  0.1262
 1096SOL    HW2 5221   1.135   1.423   4.551 -1.6272 -1.0276  2.7658
 1097SOL     OW 5222   2.587   4.797   3.672 -0.0443 -0.3381 -0.0787
 1097SOL    HW1 5223   2.661   4.839   3.714 -0.1936 -1.5888  1.5337
 1097SOL    HW2 5224   2.513   4.812   3.731 -0.5149 -1.1959 -0.4207
 1098SOL     OW 5225   4.860   5.095   0.071  0.5319  0.2390 -0.7618
 1098SOL    HW1 5226   4.946   5.136   0.085  0.0763  2.5166 -3.8226
 1098SOL    HW2 5227   4.799   5.148   0.122  0.6969 -0.6004  0.3649
 1099SOL     OW 5228   0.128   4.086   2.008 -0.0225  0.1679  0.0209
 1099SOL    HW1 5229   0.136   4.168   1.959 -2.3098  0.7138  0.4334
 1099SOL    HW2 5230   0.091   4.024   1.946 -3.4040  0.9960  0.9969
 1100SOL     OW 5231   4.561   7.982   6.028 -0.7815  0.2786  0.4664
 1100SOL    HW1 5232   4.643   7.942   6.057 -0.5885  0.8094  0.6596
 1100SOL    HW2 5233   4.525   7.920   5.965  0.9697  1.1258 -1.5019
 1101SOL     OW 5234   7.583   8.427   2.871 -0.3232 -0.0146 -0.3166
 1101SOL    HW1 5235   7.583   8.375   2.951  0.0906  0.5221  0.0392
 1101SOL    HW2 5236   7.674   8.452   2.858 -0.3017 -0.5228 -1.2468
 1102SOL     OW 5237   7.874   1.887   1.292  0.2166  0.1939 -0.4055
 1102SOL    HW1 5238   7.834   1.800   1.291 -1.4191  0.8544  1.3050
 1102SOL    HW2 5239   7.958   1.875   1.336  0.8340 -0.7783 -1.7707
 1103SOL     OW 5240   0.280   5.108   8.457 -0.1496 -0.1729 -0.0433
 1103SOL    HW1 5241   0.292   5.119   8.363  0.3080 -0.6870 -0.0514
 1103SOL    HW2 5242   0.349   5.047   8.483 -1.4486 -1.5525  0.2884
 1104SOL     OW 5243   0.002   7.687   8.585 -1.1862  0.2020  0.2916
 1104SOL    HW1 5244   0.090   7.725   8.582 -0.7052 -0.9113 -0.1743
 1104SOL    HW2 5245  -0.003   7.630   8.509 -1.6629 -1.1082  1.2573
 1105SOL     OW 5246   6.535   6.726   7.799 -0.2117 -0.0473  0.0777
 1105SOL    HW1 5247   6.494   6.702   7.882 -0.1206  1.6451  0.6547
 1105SOL    HW2 5248   6.470   6.781   7.755 -0.0802 -0.5525 -0.7772
 1106SOL     OW 5249   4.984   4.706   1.912 -0.0309  0.6134  0.6640
 1106SOL    HW1 5250   5.030   4.719   1.995  0.4942 -0.3194  0.5357
 1106SOL    HW2 5251   4.908   4.652   1.935  0.5196 -0.2679  0.4277
 1107SOL     OW 5252   5.505   2.823   4.848 -0.1005  0.2720 -0.7625
 1107SOL    HW1 5253   5.521   2.887   4.917 -1.1678 -1.2171  0.9333
 1107SOL    HW2 5254   5.544   2.742   4.880  0.7710 -0.1103 -2.6367
 1108SOL     OW 5255   1.975   5.474   2.246 -0.5291 -0.0875 -0.4464
 1108SOL    HW1 5256   1.968   5.486   2.152 -1.9823  0.1664 -0.3233
 1108SOL    HW2 5257   2.042   5.537   2.273 -0.9890  0.7160 -1.1443
 1109SOL     OW 5258   2.825   7.811   2.853 -0.1415  0.3348 -0.3866
 1109SOL    HW1 5259   2.904   7.842   2.808  1.1392  0.3794  1.7583
 1109SOL    HW2 5260   2.845   7.720   2.875 -1.9620 -0.6369 -2.4679
 1110SOL     OW 5261   6.491   5.466   1.502  0.3483 -0.0228 -0.7079
 1110SOL    HW1 5262   6.430   5.515   1.557  0.1563  0.1564 -1.0786
 1110SOL    HW2 5263   6.474   5.497   1.413 -0.2745 -1.2615 -1.0441
 1111SOL     OW 5264   4.776   0.870   2.098  0.1658 -0.9712 -0.4444
 1111SOL    HW1 5265   4.746   0.843   2.185  1.2848  0.2299  0.3375
 1111SOL    HW2 5266   4.697   0.906   2.056  0.3025  2.0302  1.5312
 1112SOL     OW 5267   8.217   3.986   7.389  0.1583  0.5725 -1.2203
 1112SOL    HW1 5268   8.184   4.055   7.331  0.6892 -0.9695 -3.4851
 1112SOL    HW2 5269   8.312   3.991   7.380  0.2211 -0.0897 -0.9629
 1113SOL     OW 5270   0.210   7.229   1.130  0.1009  0.4296  0.2366
 1113SOL    HW1 5271   0.287   7.173   1.121 -0.8849 -1.0917  0.8474
 1113SOL    HW2 5272   0.163   7.193   1.206 -0.9214  1.6810  0.2351
 1114SOL     OW 5273   4.187   2.640   0.589 -0.5476 -0.1367 -0.3945
 1114SOL    HW1 5274   4.161   2.587   0.664 -1.2854 -0.2963 -0.7549
 1114SOL    HW2 5275   4.186   2.730   0.623  0.5125 -0.3186  0.1608
 1115SOL     OW 5276   5.097   7.404   8.229  0.4641 -0.3058 -0.2811
 1115SOL    HW1 5277   5.145   7.417   8.311  1.1118 -1.5747 -0.4367
 1115SOL    HW2 5278   5.063   7.491   8.207  1.1760  0.2591  0.7762
 1116SOL     OW 5279   7.930   2.168   3.685  0.0294  0.0903  0.5553
 1116SOL    HW1 5280   7.853   2.208   3.724 -0.5120 -3.1630  3.2847
 1116SOL    HW2 5281   7.900   2.083   3.653  1.9293 -0.0578 -1.0464
 1117SOL     OW 5282   2.853   0.088   2.871  0.0071  0.2376 -0.5785
 1117SOL    HW1 5283   2.765   0.121   2.856 -0.5219 -2.2011 -3.9137
 1117SOL    HW2 5284   2.844   0.028   2.945 -0.8884  0.7776 -0.2336
 1118SOL     OW 5285   5.676   5.911   2.641  0.4429 -0.7918 -0.2026
 1118SOL    HW1 5286   5.626   5.933   2.562 -0.6877 -0.6219  0.5277
 1118SOL    HW2 5287   5.736   5.984   2.654 -0.5106 -0.0197 -0.0089
 1119SOL     OW 5288   2.771   6.972   7.446 -0.1034 -0.4437  0.0122
 1119SOL    HW1 5289   2.796   6.927   7.365 -0.5922  0.6985 -0.8045
 1119SOL    HW2 5290   2.855   6.997   7.485  0.1550 -1.5159  0.1762
 1120SOL     OW 5291   2.359   2.730   8.731  0.2677 -0.3677 -0.1890
 1120SOL    HW1 5292   2.418   2.659   8.756 -0.4899 -0.7486  0.5297
 1120SOL    HW2 5293   2.271   2.693   8.738 -0.0566 -0.4979 -3.3535
 1121SOL     OW 5294   7.232   7.780   7.440  0.0562  0.2075 -0.2727
 1121SOL    HW1 5295   7.228   7.875   7.435  0.6758  0.4365  2.3179
 1121SOL    HW2 5296   7.141   7.751   7.432 -0.7886  1.4024  3.3466
 1122SOL     OW 5297   6.761   7.864   5.147 -0.1161  0.3374 -0.2957
 1122SOL    HW1 5298   6.805   7.947   5.132  1.0359 -0.2923 -0.5157
 1122SOL    HW2 5299   6.812   7.800   5.098 -1.4548 -0.3883 -0.8164
 1123SOL     OW 5300   4.207   1.126   4.995  0.7909 -0.2004 -0.1732
 1123SOL    HW1 5301   4.257   1.121   4.914  1.5454 -2.3227  0.3414
 1123SOL    HW2 5302   4.120   1.094   4.972  0.8339 -0.2407 -0.2790
 1124SOL     OW 5303   3.718   1.771   5.948  0.0094 -0.3636  0.3159
 1124SOL    HW1 5304   3.651   1.704   5.960 -0.0179 -0.0937  1.8664
 1124SOL    HW2 5305   3.714   1.824   6.027  2.6993 -0.9149  0.9418
 1125SOL     OW 5306   8.660   3.665   7.128  0.3371  0.3876  0.2403
 1125SOL    HW1 5307   8.643   3.690   7.037  3.0908  0.9114 -0.2381
 1125SOL    HW2 5308   8.638   3.572   7.132  0.3790  0.3042 -1.0580
 1126SOL     OW 5309   5.770   7.794   1.025 -0.1724 -0.6712  0.2546
 1126SOL    HW1 5310   5.770   7.771   0.932 -0.6626 -0.1927  0.1327
 1126SOL    HW2 5311   5.679   7.819   1.044  0.2786  0.9106  0.4373
 1127SOL     OW 5312   2.812   7.473   0.601  0.2004  0.2973  0.0073
 1127SOL    HW1 5313   2.819   7.453   0.695  0.1011 -1.8671 -0.4096
 1127SOL    HW2 5314   2.902   7.471   0.569  0.1523  0.0957 -0.1166
 1128SOL     OW 5315   5.507   4.096   5.263 -0.8013 -0.0703  0.3796
 1128SOL    HW1 5316   5.566   4.071   5.334 -0.3129  0.4475  0.1653
 1128SOL    HW2 5317   5.564   4.099   5.185 -1.0322  0.7840  0.2335
 1129SOL     OW 5318   7.267   7.911   2.218 -0.2489 -0.2269 -0.4669
 1129SOL    HW1 5319   7.298   8.001   2.225  1.0554 -0.8014  2.0300
 1129SOL    HW2 5320   7.171   7.919   2.213 -0.1497  1.2641 -0.5155
 1130SOL     OW 5321   4.383   4.857   0.878 -0.7339  0.0893  0.0828
 1130SOL    HW1 5322   4.459   4.808   0.846 -0.7439  0.9778 -1.3706
 1130SOL    HW2 5323   4.416   4.903   0.955  0.2527  0.5334 -0.5829
 1131SOL     OW 5324   8.443   3.297   5.466 -0.0911  0.0320 -0.1415
 1131SOL    HW1 5325   8.454   3.203   5.449  0.3984 -0.0856  0.7888
 1131SOL    HW2 5326   8.446   3.337   5.379 -0.3222 -0.8146 -0.5486
 1132SOL     OW 5327   8.409   7.238   1.737  0.5544 -1.0664  0.1321
 1132SOL    HW1 5328   8.354   7.173   1.692  0.4721 -1.3077  0.5732
 1132SOL    HW2 5329   8.467   7.186   1.792  1.1680 -0.8023 -0.2662
 1133SOL     OW 5330   0.106   8.046   3.416  0.0975 -0.3885 -0.0306
 1133SOL    HW1 5331   0.102   7.975   3.480  0.8553 -0.2401  0.1874
 1133SOL    HW2 5332   0.094   8.003   3.331  0.6286 -0.7866  0.0952
 1134SOL     OW 5333   8.584   6.710   4.262 -0.3301 -0.0426 -0.3794
 1134SOL    HW1 5334   8.570   6.714   4.167 -1.9425 -0.2007 -0.1858
 1134SOL    HW2 5335   8.584   6.801   4.290 -0.8661 -0.0235 -0.4232
 1135SOL     OW 5336   7.661   7.204   7.957 -0.4114 -0.2267 -0.4538
 1135SOL    HW1 5337   7.752   7.227   7.936 -0.0010 -0.1485  1.2765
 1135SOL    HW2 5338   7.610   7.240   7.885  0.7167  1.6923 -0.3456
 1136SOL     OW 5339   4.979   0.864   1.145 -0.4391  0.8326  0.5330
 1136SOL    HW1 5340   4.934   0.806   1.206  0.2846  0.4832  0.7450
 1136SOL    HW2 5341   5.027   0.925   1.200  0.7677  0.0913  0.3464
 1137SOL     OW 5342   6.468   0.503   7.635 -0.5476  0.0528  0.0918
 1137SOL    HW1 5343   6.553   0.475   7.668  0.7919  2.1109 -1.4168
 1137SOL    HW2 5344   6.432   0.560   7.703  0.3690  1.0536 -0.2465
 1138SOL     OW 5345   1.980   4.814   8.386 -0.0620  0.4808 -0.0267
 1138SOL    HW1 5346   1.962   4.908   8.380  2.0805  1.0260  1.1860
 1138SOL    HW2 5347   2.074   4.807   8.374 -0.1069 -1.4661  0.5161
 1139SOL     OW 5348   7.052   2.770   5.334  0.7422  0.4046  0.5946
 1139SOL    HW1 5349   7.135   2.787   5.290  0.1275  1.2528 -0.2972
 1139SOL    HW2 5350   7.013   2.857   5.344 -0.6846 -0.0870 -0.3423
 1140SOL     OW 5351   1.443   4.563   6.549  0.1313  0.7559  0.0695
 1140SOL    HW1 5352   1.410   4.650   6.571 -0.3532  0.4097  0.7524
 1140SOL    HW2 5353   1.364   4.513   6.527  0.5345  0.9060 -1.8768
 1141SOL     OW 5354   4.124   4.726   5.520  0.5017  0.1837 -0.2284
 1141SOL    HW1 5355   4.094   4.737   5.430 -1.4017  0.3188  0.3639
 1141SOL    HW2 5356   4.088   4.642   5.548 -0.0901  0.7479  0.7994
 1142SOL     OW 5357   2.993   2.523   2.254  0.0714  0.1633  0.3512
 1142SOL    HW1 5358   3.081   2.560   2.261  1.0250 -2.0861  1.0889
 1142SOL    HW2 5359   2.999   2.459   2.184 -0.8465 -0.3932  0.7680
 1143SOL     OW 5360   8.312   1.899   3.738 -0.5832 -0.5092 -0.2885
 1143SOL    HW1 5361   8.227   1.866   3.766 -1.4266  0.8998 -1.0917
 1143SOL    HW2 5362   8.363   1.820   3.718 -1.2250 -1.4217  1.4632
 1144SOL     OW 5363   7.128   8.276   0.449 -0.3458 -0.4529  0.7713
 1144SOL    HW1 5364   7.086   8.271   0.535  0.7635  1.5255  1.4825
 1144SOL    HW2 5365   7.219   8.296   0.468 -0.4020  1.7180 -0.8827
 1145SOL     OW 5366   2.842   5.702   1.137  0.2150 -0.2764  0.1200
 1145SOL    HW1 5367   2.835   5.797   1.145  0.0252 -0.1802 -1.0933
 1145SOL    HW2 5368   2.852   5.671   1.227 -3.1110  0.6003  0.9190
 1146SOL     OW 5369   2.365   7.154   8.312  0.0746  0.6836  0.2473
 1146SOL    HW1 5370   2.365   7.231   8.369  1.5900  0.8215  0.1142
 1146SOL    HW2 5371   2.309   7.179   8.238 -0.8692  0.9837  1.0414
 1147SOL     OW 5372   3.607   1.111   7.684  0.4404 -0.0152 -0.2275
 1147SOL    HW1 5373   3.564   1.034   7.648  0.5133  0.5303 -1.5574
 1147SOL    HW2 5374   3.553   1.137   7.759 -0.7477 -0.1652 -1.0074
 1148SOL     OW 5375   0.582   5.191   1.959  0.2883  0.2113 -0.1997
 1148SOL    HW1 5376   0.520   5.222   2.024  0.5250  3.4230 -1.3495
 1148SOL    HW2 5377   0.528   5.151   1.891 -0.2498  0.1777  0.2425
 1149SOL     OW 5378   4.491   6.366   8.112  0.5256  0.0832  0.4992
 1149SOL    HW1 5379   4.428   6.318   8.059 -0.1103  1.0831  0.3339
 1149SOL    HW2 5380   4.556   6.398   8.050 -0.2049  1.2316  0.2928
 1150SOL     OW 5381   3.376   1.455   1.036  0.1221 -0.0286  0.2779
 1150SOL    HW1 5382   3.333   1.540   1.052 -0.2358 -0.1071 -0.2687
 1150SOL    HW2 5383   3.310   1.390   1.060  0.1837 -0.1526  0.1097
 1151SOL     OW 5384   8.255   5.664   2.094  0.1371 -0.2107  0.0906
 1151SOL    HW1 5385   8.215   5.696   2.175 -0.5581 -0.0991 -0.2854
 1151SOL    HW2 5386   8.183   5.620   2.048  0.5971 -0.5323 -0.3256
 1152SOL     OW 5387   6.798   0.531   7.236  0.2906  0.6683  0.3896
 1152SOL    HW1 5388   6.825   0.463   7.298  0.2709 -0.7283 -1.0577
 1152SOL    HW2 5389   6.709   0.554   7.262 -0.0202 -0.4974  0.4133
 1153SOL     OW 5390   1.621   8.308   2.687  0.4222 -0.0484  0.1650
 1153SOL    HW1 5391   1.532   8.343   2.686 -0.3020 -1.7675  0.8877
 1153SOL    HW2 5392   1.655   8.324   2.599 -1.2519 -0.9437 -0.6784
 1154SOL     OW 5393   0.469   0.604   7.486  0.1110  0.3162 -0.1430
 1154SOL    HW1 5394   0.412   0.563   7.551  0.2515 -1.1964 -0.9471
 1154SOL    HW2 5395   0.556   0.567   7.503  0.8209  2.2322  0.7586
 1155SOL     OW 5396   4.335   2.410   0.474  0.6384  0.0274 -0.0285
 1155SOL    HW1 5397   4.330   2.378   0.384 -1.1014 -1.7354  0.6261
 1155SOL    HW2 5398   4.271   2.482   0.477 -0.8080 -1.2172  0.2406
 1156SOL     OW 5399   5.473   3.623   1.661 -0.1470 -0.1719  0.2708
 1156SOL    HW1 5400   5.557   3.580   1.674  0.6611  0.6492 -1.7394
 1156SOL    HW2 5401   5.472   3.693   1.725 -0.3886 -1.6193  1.9082
 1157SOL     OW 5402   2.017   4.287   0.247  0.3040 -0.0498 -0.1440
 1157SOL    HW1 5403   2.087   4.279   0.181  1.1323 -1.2490  0.8315
 1157SOL    HW2 5404   1.994   4.380   0.246  0.8823  0.1091 -1.5331
 1158SOL     OW 5405   7.321   3.127   8.536  0.1171 -0.1397  0.2607
 1158SOL    HW1 5406   7.254   3.119   8.468  2.0018  0.4444 -1.7848
 1158SOL    HW2 5407   7.391   3.068   8.508  1.5021  1.0894  0.9934
 1159SOL     OW 5408   7.288   7.232   2.866 -0.3523 -0.0418 -0.7917
 1159SOL    HW1 5409   7.207   7.250   2.913 -0.2933  0.5915 -0.9187
 1159SOL    HW2 5410   7.282   7.287   2.787  1.4752  2.3556  0.5821
 1160SOL     OW 5411   8.803   4.447   1.101  0.5602  0.1759  0.3192
 1160SOL    HW1 5412   8.764   4.382   1.044  0.0808 -0.5916  1.4790
 1160SOL    HW2 5413   8.852   4.504   1.042 -2.7138  1.5550 -1.2928
 1161SOL     OW 5414   4.108   8.452   4.391  0.6805  0.2426 -0.3081
 1161SOL    HW1 5415   4.096   8.374   4.446  0.3535  0.6325  0.1852
 1161SOL    HW2 5416   4.029   8.504   4.407  0.3487  0.1370 -1.5351
 1162SOL     OW 5417   3.396   3.226   7.949  0.2348  0.4131 -0.1329
 1162SOL    HW1 5418   3.445   3.306   7.931  0.7503 -0.2782 -2.0569
 1162SOL    HW2 5419   3.341   3.214   7.871 -2.3888  0.6616  1.5297
 1163SOL     OW 5420   4.298   1.535   2.905 -0.0328  0.2570  0.3854
 1163SOL    HW1 5421   4.226   1.485   2.944 -2.8965  2.6979 -1.3371
 1163SOL    HW2 5422   4.294   1.512   2.812 -0.8607  2.8510 -0.2925
 1164SOL     OW 5423   0.620   7.219   0.486 -0.5056  0.3961  0.1263
 1164SOL    HW1 5424   0.559   7.205   0.413 -0.4973  1.5827 -0.1233
 1164SOL    HW2 5425   0.608   7.311   0.510 -0.6948 -0.0230  1.8009
 1165SOL     OW 5426   1.129   7.917   5.996 -0.6711 -0.3313 -0.1816
 1165SOL    HW1 5427   1.066   7.898   6.066 -3.7810 -1.7904 -3.0681
 1165SOL    HW2 5428   1.075   7.946   5.922  2.0664 -1.2755 -2.7741
 1166SOL     OW 5429   6.737   0.892   6.359 -0.3838  0.2296 -0.3288
 1166SOL    HW1 5430   6.688   0.828   6.308 -0.1863 -0.9868  0.9586
 1166SOL    HW2 5431   6.776   0.842   6.430  1.9266  1.3252 -0.7185
 1167SOL     OW 5432   4.436   7.189   7.126  0.1621 -0.1212 -0.0035
 1167SOL    HW1 5433   4.411   7.101   7.155  1.0879 -0.4656 -0.1958
 1167SOL    HW2 5434   4.496   7.220   7.194  0.4248  0.0505 -0.3106
 1168SOL     OW 5435   3.255   2.630   2.279 -0.1278 -0.0636 -0.8375
 1168SOL    HW1 5436   3.299   2.545   2.268  0.3451  0.1878 -0.9328
 1168SOL    HW2 5437   3.313   2.692   2.235 -0.2828  0.3654 -0.4441
 1169SOL     OW 5438   2.163   7.206   1.537  0.7332  0.3299 -0.1226
 1169SOL    HW1 5439   2.154   7.256   1.455  0.4751 -0.4369 -0.5689
 1169SOL    HW2 5440   2.219   7.262   1.592  0.5233  1.0743 -0.6379
 1170SOL     OW 5441   3.188   2.593   3.176 -0.2342  0.1139  0.2563
 1170SOL    HW1 5442   3.255   2.528   3.156  0.7542  0.8436  1.1044
 1170SOL    HW2 5443   3.232   2.677   3.165 -1.5755  0.6938 -1.1278
 1171SOL     OW 5444   4.198   4.593   0.138  0.3079  0.4602  0.2904
 1171SOL    HW1 5445   4.213   4.513   0.088  0.9023  0.0711  1.0777
 1171SOL    HW2 5446   4.103   4.608   0.131  0.2898  0.0713 -0.4235
 1172SOL     OW 5447   3.058   4.405   2.575  0.0175  0.0309 -0.3090
 1172SOL    HW1 5448   3.010   4.465   2.632  0.7211 -0.3235  0.6777
 1172SOL    HW2 5449   3.150   4.420   2.595  0.3553  0.6175 -2.0966
 1173SOL     OW 5450   7.793   5.915   7.674  0.1220  0.2515  0.5397
 1173SOL    HW1 5451   7.813   5.957   7.591  0.7549 -1.8590 -0.4518
 1173SOL    HW2 5452   7.876   5.875   7.701 -0.9846 -2.5424  0.0682
 1174SOL     OW 5453   0.971   1.845   8.104 -0.7820 -0.5094  0.3912
 1174SOL    HW1 5454   0.913   1.914   8.137  1.2398  0.2107  2.7715
 1174SOL    HW2 5455   1.047   1.893   8.071  0.2252 -1.5290  1.1621
 1175SOL     OW 5456   7.875   1.822   8.514 -0.7032 -0.0966  0.4300
 1175SOL    HW1 5457   7.879   1.918   8.517 -1.3864  0.0453 -1.4280
 1175SOL    HW2 5458   7.832   1.803   8.430  1.0933 -2.0547 -0.1315
 1176SOL     OW 5459   2.124   8.233   1.518  0.4503  0.3237 -0.3649
 1176SOL    HW1 5460   2.126   8.152   1.467 -0.6124  0.7061 -1.0387
 1176SOL    HW2 5461   2.046   8.279   1.487 -0.3546  0.4956  1.7298
 1177SOL     OW 5462   8.373   8.331   6.918 -0.4656  0.0853  0.4549
 1177SOL    HW1 5463   8.416   8.376   6.845  0.9895 -0.7646  0.7585
 1177SOL    HW2 5464   8.387   8.389   6.993  0.4097 -0.3019  0.6051
 1178SOL     OW 5465   5.103   5.219   6.876  0.2295 -0.5195  0.1583
 1178SOL    HW1 5466   5.177   5.172   6.836 -0.2423  0.1531 -1.6338
 1178SOL    HW2 5467   5.027   5.193   6.823 -0.1430  1.7684 -0.5446
 1179SOL     OW 5468   1.675   2.076   0.800  0.1663  0.3062 -0.1609
 1179SOL    HW1 5469   1.586   2.061   0.770  0.2581 -1.5045  0.3110
 1179SOL    HW2 5470   1.669   2.071   0.896  0.8585 -0.5580 -0.1485
 1180SOL     OW 5471   0.271   8.258   4.576 -0.4087 -0.0694  0.6726
 1180SOL    HW1 5472   0.238   8.347   4.577 -0.1266  0.0371  1.5847
 1180SOL    HW2 5473   0.194   8.203   4.558 -0.1988  0.4702 -2.4964
 1181SOL     OW 5474   5.764   8.347   7.189  0.1499  0.6809  0.3024
 1181SOL    HW1 5475   5.725   8.366   7.104  0.0181  0.8416  0.3973
 1181SOL    HW2 5476   5.843   8.296   7.169  0.3481  1.0798  0.0630
 1182SOL     OW 5477   5.550   0.666   5.947  0.2613 -0.1397  0.6878
 1182SOL    HW1 5478   5.605   0.599   5.908 -0.8812  0.0082 -1.3201
 1182SOL    HW2 5479   5.460   0.633   5.937 -0.3073  1.5186 -0.1027
 1183SOL     OW 5480   4.148   7.528   7.480  0.1055  0.2506 -0.0736
 1183SOL    HW1 5481   4.137   7.463   7.550  0.2241 -0.0812 -0.3593
 1183SOL    HW2 5482   4.071   7.517   7.425  0.7480 -0.5495 -0.8455
 1184SOL     OW 5483   2.239   7.453   3.481 -0.0279 -0.4772 -0.1185
 1184SOL    HW1 5484   2.211   7.408   3.561 -0.7307 -0.7693 -0.5311
 1184SOL    HW2 5485   2.315   7.506   3.509 -1.8717  1.5639  1.3829
 1185SOL     OW 5486   5.962   3.372   3.961  0.5473  0.3964 -0.5174
 1185SOL    HW1 5487   5.991   3.394   3.872 -1.0209  0.1954 -1.1066
 1185SOL    HW2 5488   5.872   3.341   3.950  0.1034  0.9771  1.2283
 1186SOL     OW 5489   2.818   6.636   6.435  0.5931 -0.5205  0.1836
 1186SOL    HW1 5490   2.754   6.568   6.412  0.9771 -1.6688  2.2814
 1186SOL    HW2 5491   2.855   6.607   6.518  2.8917  0.8137 -0.3005
 1187SOL     OW 5492   2.220   6.082   8.464  0.0714  0.2459  0.1974
 1187SOL    HW1 5493   2.140   6.094   8.516 -0.0275 -0.0105  0.1080
 1187SOL    HW2 5494   2.278   6.031   8.520  0.5281  1.2108  0.6128
 1188SOL     OW 5495   6.399   1.497   3.789 -0.2058 -0.4002 -0.7379
 1188SOL    HW1 5496   6.412   1.562   3.858  0.5172  1.6496 -2.7039
 1188SOL    HW2 5497   6.480   1.500   3.738 -1.1540 -1.0119 -2.3408
 1189SOL     OW 5498   5.023   2.398   5.619 -0.2063  0.2832 -0.1305
 1189SOL    HW1 5499   5.024   2.391   5.524  1.1198 -1.1522 -0.0467
 1189SOL    HW2 5500   5.095   2.342   5.649  0.3703  1.8618  1.6592
 1190SOL     OW 5501   7.851   4.034   5.347  0.1462 -0.7527  0.0069
 1190SOL    HW1 5502   7.830   4.127   5.355  1.4801 -0.1478 -2.3163
 1190SOL    HW2 5503   7.865   4.004   5.436 -1.1289  1.0509  0.8787
 1191SOL     OW 5504   2.775   5.860   8.155 -0.2951 -0.3036  0.2927
 1191SOL    HW1 5505   2.688   5.899   8.140  0.2325  0.3527 -1.2092
 1191SOL    HW2 5506   2.793   5.810   8.076  1.8653  1.8464 -0.7106
 1192SOL     OW 5507   5.920   8.851   6.291 -0.3800  0.7212 -0.2867
 1192SOL    HW1 5508   5.893   8.943   6.281  0.2621  0.9307 -0.1390
 1192SOL    HW2 5509   5.982   8.852   6.364 -1.7509 -0.1230  0.9421
 1193SOL     OW 5510   3.903   7.001   7.538  0.0014 -0.8479 -0.1746
 1193SOL    HW1 5511   3.851   7.021   7.616 -0.2283 -1.8669 -0.0413
 1193SOL    HW2 5512   3.993   7.019   7.564 -0.2580  1.0710 -0.4515
 1194SOL     OW 5513   7.225   6.555   4.711  0.2469 -0.0634  0.0615
 1194SOL    HW1 5514   7.290   6.624   4.702  0.9128 -0.6925 -0.0106
 1194SOL    HW2 5515   7.142   6.602   4.723  1.1678  0.8287  4.5896
 1195SOL     OW 5516   4.968   8.155   1.975  0.3924 -0.5986 -0.0977
 1195SOL    HW1 5517   4.973   8.072   2.023  0.1138 -0.2231  0.5900
 1195SOL    HW2 5518   5.058   8.171   1.945  0.5263 -0.9401  0.1124
 1196SOL     OW 5519   1.650   7.075   1.615  0.0769  0.5217  0.0004
 1196SOL    HW1 5520   1.664   7.146   1.677 -0.7418  0.9751 -0.3155
 1196SOL    HW2 5521   1.592   7.113   1.548 -0.7910 -0.5878  0.1033
 1197SOL     OW 5522   6.038   4.083   8.810 -0.5762 -0.9017  0.4679
 1197SOL    HW1 5523   6.098   4.122   8.747  0.2753  0.0846  1.8286
 1197SOL    HW2 5524   6.088   4.078   8.892 -2.1037 -0.7527  1.4664
 1198SOL     OW 5525   4.036   4.162   8.734  0.4452 -0.1242 -0.2365
 1198SOL    HW1 5526   4.059   4.072   8.758 -1.7905 -0.4524  0.9292
 1198SOL    HW2 5527   3.968   4.187   8.796 -0.6031  1.5660 -1.9419
 1199SOL     OW 5528   0.422   2.447   7.590  0.2321 -0.3632  0.2618
 1199SOL    HW1 5529   0.405   2.518   7.651 -0.2475 -0.0825 -0.1958
 1199SOL    HW2 5530   0.465   2.488   7.515 -0.6228 -0.4395 -0.2847
 1200SOL     OW 5531   7.224   5.107   8.499 -0.8663  0.1328  0.5028
 1200SOL    HW1 5532   7.304   5.097   8.551 -0.2578 -0.4993 -0.5315
 1200SOL    HW2 5533   7.234   5.045   8.426 -1.0470  1.9393 -1.1506
 1201SOL     OW 5534   1.725   4.819   5.672  0.1374  0.2037 -0.3300
 1201SOL    HW1 5535   1.758   4.757   5.606 -1.9862 -1.4804  0.0696
 1201SOL    HW2 5536   1.708   4.765   5.749  0.1619  1.6978  0.7716
 1202SOL     OW 5537   1.146   6.407   8.413 -0.0728 -0.1774 -0.0318
 1202SOL    HW1 5538   1.139   6.447   8.500  1.8857 -1.2427  0.6520
 1202SOL    HW2 5539   1.122   6.316   8.426 -0.4727 -0.1912 -0.7770
 1203SOL     OW 5540   1.486   7.709   7.418 -0.0407 -0.5864 -0.1600
 1203SOL    HW1 5541   1.478   7.615   7.432  0.1544 -0.6583 -0.5305
 1203SOL    HW2 5542   1.435   7.727   7.339 -1.1569 -0.1726  0.6203
 1204SOL     OW 5543   5.241   7.672   1.649 -0.2780 -0.1162  0.7700
 1204SOL    HW1 5544   5.309   7.725   1.609  0.0015 -0.1125  1.2401
 1204SOL    HW2 5545   5.269   7.582   1.635 -0.8024 -0.1515 -0.1163
 1205SOL     OW 5546   5.040   3.440   3.354 -0.2542 -0.1060 -0.0768
 1205SOL    HW1 5547   5.128   3.407   3.338  0.6900  1.1118  2.1047
 1205SOL    HW2 5548   4.994   3.427   3.271  2.3523  0.4533 -1.7344
 1206SOL     OW 5549   8.103   0.858   6.353 -0.0276  0.2096  0.4362
 1206SOL    HW1 5550   8.190   0.824   6.331  0.6962  1.4773  1.2207
 1206SOL    HW2 5551   8.110   0.885   6.444 -1.0507  0.9233  0.3181
 1207SOL     OW 5552   3.418   5.795   5.629  0.2802 -0.3762 -0.0753
 1207SOL    HW1 5553   3.380   5.709   5.646  1.2707 -0.5061  1.7386
 1207SOL    HW2 5554   3.505   5.791   5.669  0.2892  1.5123  0.1876
 1208SOL     OW 5555   5.706   2.253   7.400  0.3990 -0.2421  0.8257
 1208SOL    HW1 5556   5.634   2.314   7.415 -0.0856 -0.8617  1.0561
 1208SOL    HW2 5557   5.784   2.309   7.394 -0.4726  0.8766 -3.0133
 1209SOL     OW 5558   8.766   4.462   1.880 -0.2739  0.3769  0.3958
 1209SOL    HW1 5559   8.771   4.482   1.973 -0.1872 -1.2650  0.7861
 1209SOL    HW2 5560   8.710   4.530   1.843 -0.3853  1.0002  1.6508
 1210SOL     OW 5561   5.656   0.686   4.011 -0.5319 -0.0257  0.1462
 1210SOL    HW1 5562   5.586   0.751   4.006 -1.6028 -1.2254 -1.1089
 1210SOL    HW2 5563   5.671   0.659   3.921  0.0351 -1.3762  0.6149
 1211SOL     OW 5564   4.167   2.272   5.302  0.6563 -0.8113  0.2078
 1211SOL    HW1 5565   4.145   2.202   5.241 -0.7085  1.8277 -2.5968
 1211SOL    HW2 5566   4.082   2.299   5.339  0.6666  1.2258 -1.0858
 1212SOL     OW 5567   4.471   5.535   3.917  0.3792 -0.0124  0.1926
 1212SOL    HW1 5568   4.527   5.604   3.953 -0.7973  2.4320 -2.2428
 1212SOL    HW2 5569   4.395   5.533   3.976  0.3526  0.9402  0.2108
 1213SOL     OW 5570   0.443   8.002   2.374  0.3917  0.3808  0.1739
 1213SOL    HW1 5571   0.435   7.944   2.299 -0.8187 -0.4192  0.8869
 1213SOL    HW2 5572   0.355   8.039   2.386  0.3559 -0.1231  1.6542
 1214SOL     OW 5573   7.746   4.198   5.727 -0.8422  0.1141  0.4405
 1214SOL    HW1 5574   7.666   4.247   5.707  0.1045  1.0712 -1.2326
 1214SOL    HW2 5575   7.795   4.256   5.787 -1.7815 -0.9065  2.2908
 1215SOL     OW 5576   3.463   7.209   3.044  0.4654  0.2673  0.0303
 1215SOL    HW1 5577   3.408   7.130   3.041 -0.8220  1.0660  1.2700
 1215SOL    HW2 5578   3.439   7.251   3.126  1.8291  1.4719 -0.1665
 1216SOL     OW 5579   7.097   6.530   8.707  0.0787  0.0420 -0.4896
 1216SOL    HW1 5580   7.083   6.524   8.612  1.1539 -1.6196 -0.5846
 1216SOL    HW2 5581   7.163   6.599   8.717 -0.7424  0.9014 -0.8491
 1217SOL     OW 5582   4.139   6.363   3.160  0.3470 -0.1416  0.2814
 1217SOL    HW1 5583   4.111   6.299   3.096 -1.2809 -0.9903  1.7751
 1217SOL    HW2 5584   4.063   6.421   3.172  1.4160  1.4632 -0.2416
 1218SOL     OW 5585   4.294   6.198   2.128 -0.2447 -0.1975 -0.1189
 1218SOL    HW1 5586   4.389   6.202   2.140  0.0642 -1.8778 -1.5003
 1218SOL    HW2 5587   4.269   6.284   2.096  0.6883  0.4902  0.9537
 1219SOL     OW 5588   2.121   4.162   4.607 -0.0705  0.5314 -0.0436
 1219SOL    HW1 5589   2.131   4.088   4.546  1.7859 -0.8746  1.8092
 1219SOL    HW2 5590   2.037   4.200   4.585 -0.0949 -0.7595 -2.5583
 1220SOL     OW 5591   2.590   3.790   1.199  0.0079 -1.0618  0.3836
 1220SOL    HW1 5592   2.509   3.785   1.149 -0.8173  1.3715  1.3434
 1220SOL    HW2 5593   2.599   3.704   1.240 -1.5783 -1.6634 -0.4727
 1221SOL     OW 5594   1.785   2.969   6.388 -0.1313 -0.0847  0.0224
 1221SOL    HW1 5595   1.714   2.921   6.432  0.1917  0.4840  1.2159
 1221SOL    HW2 5596   1.772   3.060   6.415  0.0839  0.2850 -1.0952
 1222SOL     OW 5597   1.243   3.183   6.314 -0.1054  0.0794 -0.2193
 1222SOL    HW1 5598   1.193   3.103   6.297  0.7873 -0.5763  0.1846
 1222SOL    HW2 5599   1.189   3.231   6.376 -1.2454  0.3990 -1.3928
 1223SOL     OW 5600   8.717   7.382   6.648 -0.0041 -0.2755  0.1438
 1223SOL    HW1 5601   8.666   7.454   6.612  1.4354  0.3426 -0.7412
 1223SOL    HW2 5602   8.793   7.375   6.591  0.8279 -1.2679  1.3141
 1224SOL     OW 5603   6.322   3.925   3.336  0.3579 -0.2878  0.2330
 1224SOL    HW1 5604   6.326   4.013   3.374 -1.0331  0.1415 -0.5340
 1224SOL    HW2 5605   6.378   3.929   3.259  1.3785 -0.4915  0.9487
 1225SOL     OW 5606   3.048   0.159   6.697 -0.2774  0.0243 -0.1888
 1225SOL    HW1 5607   3.123   0.186   6.644 -0.4990 -0.7450 -0.9004
 1225SOL    HW2 5608   2.972   0.180   6.644 -0.5488  0.1542  0.2437
 1226SOL     OW 5609   2.047   4.436   5.842 -0.2118  0.2687  0.3008
 1226SOL    HW1 5610   1.979   4.421   5.776  1.2543 -1.2448 -0.9785
 1226SOL    HW2 5611   2.030   4.524   5.875 -2.5470  0.0618 -0.2111
 1227SOL     OW 5612   5.534   8.510   3.342 -0.2190  0.1615 -0.0101
 1227SOL    HW1 5613   5.565   8.598   3.362 -0.5912  0.6835 -1.5928
 1227SOL    HW2 5614   5.604   8.452   3.373  0.4274  1.0622  0.2412
 1228SOL     OW 5615   1.539   7.429   8.178  0.1623  0.0157 -0.3419
 1228SOL    HW1 5616   1.498   7.422   8.264 -0.1381  0.3092 -0.4622
 1228SOL    HW2 5617   1.532   7.521   8.154 -0.9843 -0.2866 -1.2827
 1229SOL     OW 5618   6.347   3.943   2.812 -0.0390 -0.0706  0.1486
 1229SOL    HW1 5619   6.349   3.968   2.720 -0.5743  2.1340  0.6873
 1229SOL    HW2 5620   6.271   3.988   2.848  0.1488 -0.9022  1.6785
 1230SOL     OW 5621   6.607   6.131   5.557  0.3881  0.3821  0.0686
 1230SOL    HW1 5622   6.532   6.079   5.585  0.7952 -0.1997  0.0947
 1230SOL    HW2 5623   6.611   6.203   5.620  1.3747 -0.9840  1.6475
 1231SOL     OW 5624   4.915   3.713   5.829  0.3935  0.2733 -0.1642
 1231SOL    HW1 5625   4.923   3.775   5.757 -0.3717 -0.1215 -0.5969
 1231SOL    HW2 5626   4.850   3.752   5.887  1.1937  0.7193  0.4724
 1232SOL     OW 5627   1.521   6.814   1.046  0.1504  0.0959  0.5633
 1232SOL    HW1 5628   1.589   6.752   1.021  0.6840  0.5082  0.9801
 1232SOL    HW2 5629   1.440   6.775   1.013  0.3508 -1.2696  1.5664
 1233SOL     OW 5630   7.892   2.559   3.438  0.3138 -0.3797 -0.1357
 1233SOL    HW1 5631   7.797   2.563   3.453  0.5414  0.5172  1.2037
 1233SOL    HW2 5632   7.904   2.481   3.383 -1.0454 -1.3666  0.8978
 1234SOL     OW 5633   0.996   2.540   2.791  0.3187 -0.2008  0.4332
 1234SOL    HW1 5634   0.979   2.462   2.738  1.2611  0.0702 -0.3085
 1234SOL    HW2 5635   0.978   2.513   2.881  0.0527 -1.0931  0.1187
 1235SOL     OW 5636   2.626   1.778   7.885  0.0951 -0.3329  0.5919
 1235SOL    HW1 5637   2.530   1.776   7.890 -0.0541  0.9583 -0.8312
 1235SOL    HW2 5638   2.650   1.696   7.842 -0.7218  0.8010 -2.3037
 1236SOL     OW 5639   7.276   0.989   1.957 -0.2101  0.2972  0.2746
 1236SOL    HW1 5640   7.182   1.007   1.959 -0.2894  0.0561 -0.5137
 1236SOL    HW2 5641   7.298   0.991   1.863  0.9255  2.0902  0.5352
 1237SOL     OW 5642   7.502   6.073   3.986  0.1515  0.3755  0.4464
 1237SOL    HW1 5643   7.429   6.012   3.979  0.9417 -0.4439 -1.5037
 1237SOL    HW2 5644   7.462   6.158   4.004 -1.8533  0.8663 -4.7059
 1238SOL     OW 5645   3.450   2.929   4.179  0.0314 -0.0291  0.2757
 1238SOL    HW1 5646   3.417   2.980   4.105 -0.2216  1.0845  1.1280
 1238SOL    HW2 5647   3.528   2.885   4.146 -0.7616 -0.5284 -0.9887
 1239SOL     OW 5648   1.172   6.741   0.590  0.2761 -0.5746 -0.1022
 1239SOL    HW1 5649   1.214   6.821   0.621 -0.7531 -0.2891  0.5922
 1239SOL    HW2 5650   1.209   6.672   0.645  0.7379 -0.5041 -0.3174
 1240SOL     OW 5651   3.485   1.003   0.380  0.4688 -0.3051 -0.0869
 1240SOL    HW1 5652   3.572   1.028   0.409 -0.0954  1.3543  0.3076
 1240SOL    HW2 5653   3.440   0.974   0.460  0.6416 -1.1402 -0.2855
 1241SOL     OW 5654   3.725   0.550   1.246 -0.3728  0.2328  0.0775
 1241SOL    HW1 5655   3.639   0.560   1.205 -1.5850  0.1553  2.4535
 1241SOL    HW2 5656   3.735   0.627   1.301  1.2789  0.4199 -0.4174
 1242SOL     OW 5657   8.366   5.219   0.890 -0.2510 -0.1765  0.1049
 1242SOL    HW1 5658   8.327   5.132   0.901  0.6857 -0.4605  1.4574
 1242SOL    HW2 5659   8.337   5.248   0.804 -1.0321 -1.5993 -0.1367
 1243SOL     OW 5660   6.009   4.871   8.500 -1.0275 -0.3424  0.1991
 1243SOL    HW1 5661   5.984   4.962   8.484  0.5326 -0.3572 -3.1899
 1243SOL    HW2 5662   6.081   4.876   8.563 -1.0387  0.7669  0.1326
 1244SOL     OW 5663   1.446   4.849   8.134 -0.5466  0.1110  0.1686
 1244SOL    HW1 5664   1.410   4.825   8.219 -0.8959 -1.7058 -0.4648
 1244SOL    HW2 5665   1.417   4.780   8.074  1.6991  0.0446 -0.9338
 1245SOL     OW 5666   0.417   2.355   6.713 -1.9257  0.5561  0.5948
 1245SOL    HW1 5667   0.393   2.373   6.804 -1.4446  0.6163  0.7105
 1245SOL    HW2 5668   0.505   2.391   6.703 -0.6077 -2.2472  1.0472
 1246SOL     OW 5669   3.769   6.008   1.810 -0.1321  0.1776 -0.7456
 1246SOL    HW1 5670   3.719   6.035   1.887 -0.9292  0.6245 -1.3955
 1246SOL    HW2 5671   3.712   5.945   1.765  1.2550 -1.8196  0.1739
 1247SOL     OW 5672   1.490   0.911   4.166  0.5874 -1.0243 -0.3407
 1247SOL    HW1 5673   1.433   0.840   4.195 -2.4623  0.6941 -1.6645
 1247SOL    HW2 5674   1.477   0.915   4.071 -0.0191  1.7663 -0.2202
 1248SOL     OW 5675   0.451   6.444   7.364 -0.3650 -0.4180  0.2621
 1248SOL    HW1 5676   0.485   6.414   7.448  1.1588  1.1932  0.2671
 1248SOL    HW2 5677   0.365   6.480   7.383  0.0872  0.1886  1.1795
 1249SOL     OW 5678   7.975   8.362   6.919 -0.1633 -0.0593  0.3564
 1249SOL    HW1 5679   7.881   8.375   6.930 -0.5263 -1.7601 -0.3916
 1249SOL    HW2 5680   8.010   8.450   6.904 -1.6300  0.5926  0.6448
 1250SOL     OW 5681   4.824   4.274   1.227  0.6560  0.0665  0.5300
 1250SOL    HW1 5682   4.889   4.330   1.268  0.0860  1.5510 -0.4783
 1250SOL    HW2 5683   4.742   4.325   1.232 -0.0331 -0.9788  0.2033
 1251SOL     OW 5684   7.656   0.356   6.776 -0.3094 -0.5568  0.1324
 1251SOL    HW1 5685   7.580   0.399   6.737 -2.2550 -2.0685  1.9489
 1251SOL    HW2 5686   7.672   0.404   6.857  1.6791  0.6232 -0.8734
 1252SOL     OW 5687   2.084   5.288   7.816 -0.0595 -0.0949 -0.3750
 1252SOL    HW1 5688   1.999   5.324   7.791  1.4514  0.7042 -5.4515
 1252SOL    HW2 5689   2.070   5.193   7.819 -1.2759  0.0712 -0.1163
 1253SOL     OW 5690   3.244   7.590   2.674 -0.1510 -0.5706 -0.0293
 1253SOL    HW1 5691   3.276   7.564   2.760 -0.9405  0.5433  0.6384
 1253SOL    HW2 5692   3.150   7.569   2.676 -0.1336 -0.7452 -0.7091
 1254SOL     OW 5693   7.540   3.444   7.211 -0.1399 -0.5315 -0.2332
 1254SOL    HW1 5694   7.464   3.422   7.156  0.3868  1.3386 -1.8477
 1254SOL    HW2 5695   7.611   3.391   7.177  0.5548  1.6532 -2.5337
 1255SOL     OW 5696   8.230   6.172   2.397 -0.5328  0.2346  0.0024
 1255SOL    HW1 5697   8.197   6.131   2.477 -2.4855  0.2715 -0.7053
 1255SOL    HW2 5698   8.231   6.266   2.416 -4.4691  0.6716 -0.9796
 1256SOL     OW 5699   3.358   7.591   5.069 -0.2653  0.1864 -0.5010
 1256SOL    HW1 5700   3.384   7.681   5.087  0.0082  0.2204 -1.0661
 1256SOL    HW2 5701   3.440   7.547   5.046 -0.3290 -0.3082  0.1622
 1257SOL     OW 5702   6.140   2.609   0.622  0.7663 -0.1186 -0.0026
 1257SOL    HW1 5703   6.157   2.641   0.533  0.6489 -1.4705 -0.5414
 1257SOL    HW2 5704   6.201   2.536   0.632  0.5371 -0.1894  0.9145
 1258SOL     OW 5705   6.822   5.848   6.621  0.4198  0.0068 -0.7111
 1258SOL    HW1 5706   6.862   5.773   6.666  0.7315  0.5234 -0.1170
 1258SOL    HW2 5707   6.896   5.896   6.584  0.4211  1.2130  0.7738
 1259SOL     OW 5708   4.364   0.028   1.746  0.0216  0.4824  0.4719
 1259SOL    HW1 5709   4.329   0.110   1.712  0.5963  1.0377  1.1935
 1259SOL    HW2 5710   4.400  -0.016   1.669 -0.2878  0.8987  0.0823
 1260SOL     OW 5711   3.609   6.274   0.435  0.3186  0.3716  0.2183
 1260SOL    HW1 5712   3.661   6.206   0.392  0.3091  1.3451 -1.4011
 1260SOL    HW2 5713   3.537   6.291   0.374 -0.2301  1.1577  1.0555
 1261SOL     OW 5714   0.738   6.896   2.370 -0.2133  0.7574  0.0966
 1261SOL    HW1 5715   0.660   6.891   2.315 -0.0925 -0.0683 -0.0204
 1261SOL    HW2 5716   0.810   6.912   2.310 -0.1400  0.2955  0.0540
 1262SOL     OW 5717   0.226   2.732   3.862 -0.5845  0.7495 -0.1054
 1262SOL    HW1 5718   0.136   2.760   3.846 -0.3577  1.2280 -0.5731
 1262SOL    HW2 5719   0.277   2.771   3.791 -0.0017  0.4984  0.1623
 1263SOL     OW 5720   8.783   0.295   1.182 -0.4913  0.1622  0.1431
 1263SOL    HW1 5721   8.812   0.223   1.126 -2.0572 -3.0239  3.0460
 1263SOL    HW2 5722   8.717   0.341   1.130 -1.4884 -2.2766 -0.8997
 1264SOL     OW 5723   2.391   8.748   0.077  0.2424 -0.5778 -0.1657
 1264SOL    HW1 5724   2.315   8.753   0.019 -0.0993  0.8552  0.3476
 1264SOL    HW2 5725   2.454   8.695   0.029  0.0502  0.6981 -1.9605
 1265SOL     OW 5726   6.737   4.533   4.133 -0.2342 -0.6393  0.3341
 1265SOL    HW1 5727   6.662   4.479   4.155  0.4363 -1.5597  0.4175
 1265SOL    HW2 5728   6.809   4.495   4.183  0.0907  0.8449  1.0449
 1266SOL     OW 5729   2.082   2.028   8.193  0.0022 -0.3031  0.1454
 1266SOL    HW1 5730   2.087   1.992   8.282  0.7697 -1.1524 -0.2192
 1266SOL    HW2 5731   2.036   1.961   8.143  0.1860 -0.1430 -0.2428
 1267SOL     OW 5732   2.216   5.288   8.675 -0.3304 -0.3190  0.1246
 1267SOL    HW1 5733   2.292   5.323   8.721 -1.5884  2.1372  0.4547
 1267SOL    HW2 5734   2.243   5.199   8.650  2.2069  0.0567  1.1958
 1268SOL     OW 5735   5.350   5.574   0.424 -0.0622 -0.0338 -0.4108
 1268SOL    HW1 5736   5.401   5.577   0.505 -1.1725 -0.5288  0.3311
 1268SOL    HW2 5737   5.400   5.515   0.368 -0.0525 -0.9169  0.4879
 1269SOL     OW 5738   4.922   5.366   1.010  0.8236 -0.0373  0.1398
 1269SOL    HW1 5739   4.961   5.428   1.072  1.1046 -0.4883  0.4183
 1269SOL    HW2 5740   4.872   5.421   0.950 -2.8453  0.3077  3.0753
 1270SOL     OW 5741   4.006   4.848   4.139 -0.7456  0.1994 -0.0206
 1270SOL    HW1 5742   4.035   4.806   4.058 -0.1586  0.2871  0.1387
 1270SOL    HW2 5743   3.968   4.931   4.110  0.6825  0.8468 -0.1092
 1271SOL     OW 5744   6.493   0.950   4.574 -0.3005  0.2797 -0.7391
 1271SOL    HW1 5745   6.563   0.964   4.510  1.0512 -1.0797  0.3688
 1271SOL    HW2 5746   6.479   0.856   4.574 -0.4074  0.2797  0.8133
 1272SOL     OW 5747   3.657   6.564   3.308 -0.1389  0.3682 -0.5006
 1272SOL    HW1 5748   3.629   6.600   3.224 -0.0006  0.1568 -0.6364
 1272SOL    HW2 5749   3.622   6.475   3.309 -0.2189  0.4009 -0.2943
 1273SOL     OW 5750   0.631   7.075   2.004 -0.1020  0.0665 -0.4472
 1273SOL    HW1 5751   0.559   7.021   2.037 -0.4126 -0.2519 -1.6134
 1273SOL    HW2 5752   0.598   7.165   2.010  0.3017  0.1348  1.2136
 1274SOL     OW 5753   3.875   4.333   0.941  0.1464 -0.1973 -0.0126
 1274SOL    HW1 5754   3.934   4.404   0.963 -0.3134  0.1670  0.0747
 1274SOL    HW2 5755   3.865   4.338   0.845  2.4626 -2.0341 -0.4260
 1275SOL     OW 5756   2.718   5.728   2.759 -0.0106 -0.3178 -0.4028
 1275SOL    HW1 5757   2.684   5.811   2.728 -2.2019 -0.3378  1.6992
 1275SOL    HW2 5758   2.717   5.735   2.855  1.1971 -2.2146 -0.1884
 1276SOL     OW 5759   0.484   4.889   0.609  0.2113  0.3265  0.1866
 1276SOL    HW1 5760   0.424   4.953   0.569  0.7166  0.2207 -0.7676
 1276SOL    HW2 5761   0.539   4.860   0.537  1.9474  1.0076  1.1801
 1277SOL     OW 5762   5.625   8.332   1.109 -0.0914  0.7878  0.0511
 1277SOL    HW1 5763   5.556   8.385   1.069  0.9833  2.0922 -0.1575
 1277SOL    HW2 5764   5.678   8.395   1.157 -0.1911 -0.4591  1.9181
 1278SOL     OW 5765   4.713   0.329   3.432 -0.2375  0.8548  0.1006
 1278SOL    HW1 5766   4.808   0.341   3.430 -0.1219 -0.0458 -0.5022
 1278SOL    HW2 5767   4.679   0.393   3.370  0.0592  0.5817 -0.3488
 1279SOL     OW 5768   2.841   1.356   8.171  0.2421  0.3112  0.0264
 1279SOL    HW1 5769   2.924   1.387   8.209 -0.5068  0.8104  1.3400
 1279SOL    HW2 5770   2.867   1.288   8.109  1.5915 -0.5334  1.4156
 1280SOL     OW 5771   2.464   4.854   1.072  0.1313 -0.1620 -0.0029
 1280SOL    HW1 5772   2.427   4.802   1.000  1.0018 -1.7092  0.6251
 1280SOL    HW2 5773   2.540   4.898   1.034  2.9354 -3.9135  0.6878
 1281SOL     OW 5774   7.570   6.269   2.335  0.2909 -0.6761 -0.1041
 1281SOL    HW1 5775   7.629   6.305   2.269  0.8943 -1.0835  0.2132
 1281SOL    HW2 5776   7.570   6.175   2.318 -0.0685 -0.7070  0.0647
 1282SOL     OW 5777   4.142   3.694   2.490  0.5627 -0.0856 -0.2195
 1282SOL    HW1 5778   4.129   3.620   2.431 -1.2010 -0.4217  0.5367
 1282SOL    HW2 5779   4.226   3.732   2.463 -0.9212  0.8603 -4.0487
 1283SOL     OW 5780   5.709   3.147   5.770  0.2295 -0.4115  0.4499
 1283SOL    HW1 5781   5.631   3.153   5.714 -0.0139  1.4827  0.8965
 1283SOL    HW2 5782   5.781   3.127   5.710 -0.4154 -1.0203 -0.1374
 1284SOL     OW 5783   5.989   8.700   0.459  0.1360  0.0754  0.2632
 1284SOL    HW1 5784   6.020   8.686   0.548 -0.5208 -0.6102  0.3917
 1284SOL    HW2 5785   5.935   8.624   0.439  1.3310 -0.4477 -1.1996
 1285SOL     OW 5786   1.334   2.319   3.333  0.0865  0.0133 -0.2172
 1285SOL    HW1 5787   1.391   2.360   3.268 -1.5920 -0.2042 -1.9307
 1285SOL    HW2 5788   1.358   2.361   3.416  1.2657  1.4209 -1.2138
 1286SOL     OW 5789   3.326   0.837   0.542 -0.7977  0.0856 -0.1825
 1286SOL    HW1 5790   3.271   0.848   0.620 -2.4034  0.0955 -1.2670
 1286SOL    HW2 5791   3.277   0.776   0.486  1.8074 -2.5131  0.1142
 1287SOL     OW 5792   8.503   6.243   1.831  0.6498 -0.0182 -0.3261
 1287SOL    HW1 5793   8.595   6.249   1.855  0.8046 -0.1606 -0.8527
 1287SOL    HW2 5794   8.501   6.176   1.762 -0.1827 -1.8592  1.3826
 1288SOL     OW 5795   3.698   5.211   4.611 -0.4879  0.0400 -0.2976
 1288SOL    HW1 5796   3.740   5.272   4.671 -1.1123  1.2560 -1.0630
 1288SOL    HW2 5797   3.694   5.128   4.659  0.4988  0.5584  0.7046
 1289SOL     OW 5798   5.030   3.312   2.551 -0.0836 -0.0969 -0.0457
 1289SOL    HW1 5799   5.075   3.385   2.510 -0.5024 -0.3473 -0.9754
 1289SOL    HW2 5800   5.043   3.238   2.492 -1.3609 -0.2749 -0.1530
 1290SOL     OW 5801   6.293   2.593   6.461  0.6148 -0.3512  0.2345
 1290SOL    HW1 5802   6.293   2.651   6.537 -1.2050  0.0312 -0.0015
 1290SOL    HW2 5803   6.241   2.640   6.396 -1.2321 -2.3832  0.1577
 1291SOL     OW 5804   8.337   3.254   7.048 -0.2170 -0.5331 -0.5095
 1291SOL    HW1 5805   8.358   3.186   6.984  1.7457 -0.2502 -0.2510
 1291SOL    HW2 5806   8.292   3.322   6.998  0.4903 -0.7140 -1.4113
 1292SOL     OW 5807   7.142   2.315   5.288 -0.0881 -0.0029  0.5704
 1292SOL    HW1 5808   7.101   2.400   5.277  2.6149  1.4051  0.3309
 1292SOL    HW2 5809   7.212   2.314   5.222 -0.9965 -3.1053 -0.5113
 1293SOL     OW 5810   7.861   8.106   3.978  0.5789  0.1019 -0.6871
 1293SOL    HW1 5811   7.908   8.103   4.062  0.8217  0.3420 -0.8143
 1293SOL    HW2 5812   7.909   8.170   3.926  0.2634  0.1544 -0.9141
 1294SOL     OW 5813   8.214   6.104   7.029  0.0177  0.6710 -0.8169
 1294SOL    HW1 5814   8.180   6.184   6.989  0.5266  1.2215 -0.1582
 1294SOL    HW2 5815   8.208   6.119   7.123 -0.3641 -0.2771 -0.6754
 1295SOL     OW 5816   3.712   3.192   5.058  0.7031 -0.3077 -0.5939
 1295SOL    HW1 5817   3.803   3.161   5.052  1.5871  2.0259 -0.2064
 1295SOL    HW2 5818   3.673   3.139   5.127  2.9829  1.2716  2.0907
 1296SOL     OW 5819   6.218   6.540   4.039 -0.4134 -0.1427 -0.0730
 1296SOL    HW1 5820   6.158   6.584   4.099  0.8402  1.4056  0.1011
 1296SOL    HW2 5821   6.252   6.466   4.090 -0.8420  0.0002  0.4258
 1297SOL     OW 5822   5.862   7.500   1.907 -0.2703 -0.6976 -0.3794
 1297SOL    HW1 5823   5.866   7.477   1.814 -1.9433 -0.9051 -0.4336
 1297SOL    HW2 5824   5.828   7.421   1.949 -0.8162 -0.1489  0.2138
 1298SOL     OW 5825   6.314   8.807   7.659  0.0738 -0.7304 -0.0388
 1298SOL    HW1 5826   6.255   8.844   7.594 -1.3059 -1.7961  0.5753
 1298SOL    HW2 5827   6.258   8.782   7.732  1.5641  0.3011  1.5410
 1299SOL     OW 5828   3.880   5.076   5.675  0.0429  0.3075 -0.3151
 1299SOL    HW1 5829   3.972   5.066   5.651  0.3216  3.0416 -0.6790
 1299SOL    HW2 5830   3.876   5.043   5.765  0.9206 -1.5963 -0.9080
 1300SOL     OW 5831   5.785   8.204   8.597  0.6719  0.7698 -0.4132
 1300SOL    HW1 5832   5.709   8.236   8.647  0.8226 -1.9328  1.7964
 1300SOL    HW2 5833   5.852   8.191   8.664  1.2882 -1.9362 -1.4473
 1301SOL     OW 5834   6.903   1.747   7.720  0.0254 -0.6069  0.4370
 1301SOL    HW1 5835   6.925   1.680   7.784  2.0861  0.1228  0.5789
 1301SOL    HW2 5836   6.832   1.797   7.761 -0.8782 -2.0752  0.7264
 1302SOL     OW 5837   5.258   4.193   1.253 -0.1879  0.4559  0.1551
 1302SOL    HW1 5838   5.242   4.275   1.298  0.7766  0.1801  1.0327
 1302SOL    HW2 5839   5.327   4.150   1.304 -0.2020 -0.5926 -0.6664
 1303SOL     OW 5840   2.457   8.705   5.568  0.2394  0.1971 -0.2256
 1303SOL    HW1 5841   2.553   8.714   5.567  0.2664 -0.0339  0.3599
 1303SOL    HW2 5842   2.435   8.683   5.477  0.7918 -0.3028 -0.2443
 1304SOL     OW 5843   3.620   1.669   1.025  0.6241 -0.0830  0.1260
 1304SOL    HW1 5844   3.631   1.701   1.114 -1.1012 -1.8028  1.0293
 1304SOL    HW2 5845   3.537   1.707   0.996 -0.6701 -2.3305  0.6543
 1305SOL     OW 5846   6.366   6.643   3.114 -0.2676 -0.2377 -0.5851
 1305SOL    HW1 5847   6.397   6.592   3.039 -0.7826 -0.3914 -0.6932
 1305SOL    HW2 5848   6.271   6.643   3.106 -0.4175 -1.4425  0.8417
 1306SOL     OW 5849   0.114   3.822   2.907 -0.2209  0.2750  0.0148
 1306SOL    HW1 5850   0.076   3.737   2.883  1.0103 -0.0162 -0.9932
 1306SOL    HW2 5851   0.174   3.802   2.978  0.8394  0.1017 -0.8984
 1307SOL     OW 5852   2.974   3.895   8.226 -0.6193  0.2711 -0.3070
 1307SOL    HW1 5853   3.052   3.896   8.171  0.7385  1.4969  1.5004
 1307SOL    HW2 5854   2.979   3.812   8.273  1.4059  1.5925  2.0594
 1308SOL     OW 5855   7.208   8.713   0.697 -0.1928  0.9905 -0.4391
 1308SOL    HW1 5856   7.183   8.774   0.628 -1.0960  1.2073  0.0766
 1308SOL    HW2 5857   7.128   8.697   0.746  0.2863  0.2839  0.1384
 1309SOL     OW 5858   6.167   2.577   5.890  0.0314 -0.0501  0.1372
 1309SOL    HW1 5859   6.176   2.672   5.881 -1.8576  0.1908  0.3572
 1309SOL    HW2 5860   6.111   2.566   5.967  0.7176 -1.3824  0.4709
 1310SOL     OW 5861   1.892   8.125   5.740 -0.1067  0.0857  0.1236
 1310SOL    HW1 5862   1.852   8.192   5.795  0.7672  0.3939  0.4096
 1310SOL    HW2 5863   1.854   8.138   5.654  0.0670  0.9647  0.1745
 1311SOL     OW 5864   0.410   6.926   5.701 -0.5511  0.1987 -0.4073
 1311SOL    HW1 5865   0.504   6.905   5.702 -0.4891  0.4676 -0.7279
 1311SOL    HW2 5866   0.406   7.018   5.675 -0.9306  0.0513 -0.8727
 1312SOL     OW 5867   8.015   3.776   5.455 -0.1759 -0.1253  0.0501
 1312SOL    HW1 5868   7.952   3.798   5.523 -0.8185 -2.1881  0.1842
 1312SOL    HW2 5869   8.094   3.752   5.503  0.6916  2.1248 -0.1086
 1313SOL     OW 5870   0.599   3.785   2.635 -0.1320  0.1511 -0.1267
 1313SOL    HW1 5871   0.622   3.876   2.656 -1.9528  0.4370  0.8110
 1313SOL    HW2 5872   0.541   3.792   2.559  1.2338 -0.4100 -1.2688
 1314SOL     OW 5873   2.111   3.474   0.683 -0.1705 -0.1059 -0.5425
 1314SOL    HW1 5874   2.030   3.466   0.733 -0.2220 -0.4044 -0.6704
 1314SOL    HW2 5875   2.084   3.508   0.598 -0.2191 -0.6070 -0.7328
 1315SOL     OW 5876   0.288   0.587   1.846 -0.6200  0.3649 -0.1069
 1315SOL    HW1 5877   0.238   0.657   1.886  0.2539  0.2969  1.1460
 1315SOL    HW2 5878   0.230   0.511   1.850 -1.0504  0.6827 -0.2359
 1316SOL     OW 5879   3.140   0.596   1.719  0.2390 -0.1187 -0.0151
 1316SOL    HW1 5880   3.114   0.674   1.769 -1.0790  1.2307 -2.6304
 1316SOL    HW2 5881   3.070   0.533   1.733  0.5718 -0.3103  0.8938
 1317SOL     OW 5882   6.797   2.793   1.687 -0.2466 -0.1553  0.2957
 1317SOL    HW1 5883   6.790   2.710   1.640  1.4063  0.1157 -0.5082
 1317SOL    HW2 5884   6.751   2.778   1.769 -1.0785 -1.4483 -0.3780
 1318SOL     OW 5885   2.661   3.444   5.383  0.2890 -0.3719 -0.2704
 1318SOL    HW1 5886   2.636   3.376   5.320 -0.6062  1.6223 -2.2081
 1318SOL    HW2 5887   2.699   3.513   5.330 -0.8524  1.5880  1.3075
 1319SOL     OW 5888   7.497   4.155   2.901 -0.0273 -1.0787  0.5980
 1319SOL    HW1 5889   7.413   4.110   2.908  0.0413 -1.1297  1.1690
 1319SOL    HW2 5890   7.528   4.136   2.813  0.5362 -3.1159  1.1833
 1320SOL     OW 5891   5.136   0.408   0.246 -0.4215  0.3670 -0.4790
 1320SOL    HW1 5892   5.225   0.421   0.279 -0.7193 -0.0925  0.5494
 1320SOL    HW2 5893   5.100   0.496   0.236  0.2312  0.5656 -1.1658
 1321SOL     OW 5894   2.972   8.727   8.445 -0.1384  0.0876 -0.0792
 1321SOL    HW1 5895   2.976   8.663   8.374 -1.0553 -0.1600  0.0819
 1321SOL    HW2 5896   3.063   8.753   8.458  0.1332 -0.4396 -0.8188
 1322SOL     OW 5897   2.913   4.115   5.696 -0.3410  0.1235  0.2444
 1322SOL    HW1 5898   2.973   4.083   5.629  1.0035 -0.3199  1.5758
 1322SOL    HW2 5899   2.969   4.129   5.773 -1.8444  0.3668  1.3526
 1323SOL     OW 5900   3.908   2.559   7.078 -0.4393  0.1035  0.0020
 1323SOL    HW1 5901   3.845   2.598   7.017  0.2410  1.3591  0.0750
 1323SOL    HW2 5902   3.902   2.614   7.156  1.7041  1.0979 -0.4749
 1324SOL     OW 5903   7.357   8.493   6.923  0.6125 -0.0085  0.2538
 1324SOL    HW1 5904   7.365   8.535   6.837 -3.6936 -2.1110 -1.4936
 1324SOL    HW2 5905   7.343   8.566   6.984  4.1620  1.5710 -0.5424
 1325SOL     OW 5906   0.283   2.189   8.264  0.1769 -0.0328  0.2253
 1325SOL    HW1 5907   0.314   2.229   8.183  1.6065 -0.9722  0.2636
 1325SOL    HW2 5908   0.301   2.256   8.331 -2.0256  1.1928 -0.3245
 1326SOL     OW 5909   6.810   2.358   0.553 -0.1055  0.0573 -0.0580
 1326SOL    HW1 5910   6.846   2.446   0.561 -1.3711  0.4989  1.5373
 1326SOL    HW2 5911   6.823   2.334   0.461  2.6218  0.8130  0.0452
 1327SOL     OW 5912   5.628   7.077   0.905 -0.1319  0.3281  0.3505
 1327SOL    HW1 5913   5.657   7.047   0.819 -0.2605  1.5880 -0.1474
 1327SOL    HW2 5914   5.695   7.044   0.965  1.5758  1.8845 -0.5895
 1328SOL     OW 5915   1.879   0.743   0.751  0.1480  0.6377 -0.1070
 1328SOL    HW1 5916   1.816   0.679   0.784 -0.4505  1.8965  1.3215
 1328SOL    HW2 5917   1.852   0.826   0.790 -0.0909  2.1276 -3.1610
 1329SOL     OW 5918   1.150   4.060   2.578 -0.7937  0.5715 -0.9207
 1329SOL    HW1 5919   1.093   4.136   2.566 -0.3070  1.1285  0.2539
 1329SOL    HW2 5920   1.101   4.003   2.637 -0.0286  1.1992  0.3602
 1330SOL     OW 5921   1.092   1.637   2.299 -0.6638 -0.2223  0.2159
 1330SOL    HW1 5922   1.106   1.714   2.356  0.2770  0.2780 -0.6576
 1330SOL    HW2 5923   0.997   1.629   2.292 -0.8590 -0.9911  2.7643
 1331SOL     OW 5924   6.111   7.560   5.411 -0.5403  0.6259 -0.1561
 1331SOL    HW1 5925   6.038   7.505   5.440 -0.4140 -0.2871 -1.4840
 1331SOL    HW2 5926   6.171   7.563   5.485 -0.7312 -0.7155  0.0657
 1332SOL     OW 5927   6.148   6.863   4.643  0.1308  0.0483  0.4614
 1332SOL    HW1 5928   6.099   6.876   4.725 -2.3396 -0.2244 -0.8841
 1332SOL    HW2 5929   6.086   6.818   4.585  1.7987  0.2493 -1.5767
 1333SOL     OW 5930   4.296   1.435   8.179  0.7691  0.1793 -0.3017
 1333SOL    HW1 5931   4.369   1.375   8.161  0.8994  0.7738 -1.9137
 1333SOL    HW2 5932   4.333   1.523   8.165 -0.7366  0.4713 -3.5280
 1334SOL     OW 5933   7.183   5.436   0.364  0.1792 -0.4486  0.1083
 1334SOL    HW1 5934   7.088   5.435   0.361  0.1740  0.2580 -0.3777
 1334SOL    HW2 5935   7.209   5.346   0.346 -0.3823 -0.3424 -1.4071
 1335SOL     OW 5936   3.337   4.521   5.371 -0.0373  0.0028 -0.1743
 1335SOL    HW1 5937   3.388   4.559   5.442 -1.0634 -0.9363  1.1273
 1335SOL    HW2 5938   3.331   4.590   5.305 -0.1142  1.3546  1.2132
 1336SOL     OW 5939   5.583   6.901   4.700 -0.1278 -0.4089  0.7591
 1336SOL    HW1 5940   5.538   6.842   4.760  2.2344 -2.5320  0.5635
 1336SOL    HW2 5941   5.600   6.980   4.753 -0.9426 -0.9489  1.8626
 1337SOL     OW 5942   6.152   7.363   7.489 -0.0417  0.1570 -0.2083
 1337SOL    HW1 5943   6.138   7.427   7.419 -2.2401 -1.0913 -1.0069
 1337SOL    HW2 5944   6.067   7.358   7.534  0.4782 -1.2102  0.6810
 1338SOL     OW 5945   1.382   8.317   4.289  0.1703 -0.3535  0.4196
 1338SOL    HW1 5946   1.446   8.274   4.233  0.2352 -1.2797  1.1801
 1338SOL    HW2 5947   1.433   8.383   4.337 -0.0737  1.1866 -1.3124
 1339SOL     OW 5948   7.384   2.929   2.185  0.0916 -0.7553 -0.2138
 1339SOL    HW1 5949   7.352   2.864   2.122 -0.2300 -0.2218 -0.6156
 1339SOL    HW2 5950   7.414   3.002   2.130 -0.4905 -0.1499  0.2529
 1340SOL     OW 5951   6.995   5.741   4.698 -0.3696  0.4893  0.4565
 1340SOL    HW1 5952   7.031   5.829   4.708  0.2685  0.1268  1.5139
 1340SOL    HW2 5953   7.033   5.691   4.769 -3.4983  0.2280  2.1394
 1341SOL     OW 5954   2.266   6.920   0.402  0.0569  0.3962  0.2573
 1341SOL    HW1 5955   2.199   6.862   0.440 -0.4413  1.5314  1.1654
 1341SOL    HW2 5956   2.235   6.937   0.313 -0.0095 -0.3759  0.1207
 1342SOL     OW 5957   2.848   8.843   6.846  0.3920 -0.0298  0.2798
 1342SOL    HW1 5958   2.878   8.894   6.771 -0.4862 -0.0469 -0.0988
 1342SOL    HW2 5959   2.909   8.865   6.916  1.6754 -0.5692 -0.6208
 1343SOL     OW 5960   2.170   5.093   2.018  0.1370  0.5671  0.2218
 1343SOL    HW1 5961   2.090   5.101   2.069 -0.6354  0.4309 -0.9125
 1343SOL    HW2 5962   2.180   5.178   1.974  1.2009  0.9435  1.1512
 1344SOL     OW 5963   7.758   5.150   5.371  0.7029 -0.2390 -0.2945
 1344SOL    HW1 5964   7.666   5.177   5.368  0.3726 -1.1559  0.9669
 1344SOL    HW2 5965   7.770   5.099   5.291  0.4397  0.8147 -1.0300
 1345SOL     OW 5966   5.938   5.874   4.762 -0.1157  0.0648  0.4116
 1345SOL    HW1 5967   5.926   5.818   4.839 -1.2924 -1.0458 -0.5269
 1345SOL    HW2 5968   6.031   5.895   4.762  0.5406 -2.4575  0.4907
 1346SOL     OW 5969   2.277   6.682   2.740  0.3433  0.3032 -0.0571
 1346SOL    HW1 5970   2.252   6.623   2.668  1.1027  0.7279 -0.6836
 1346SOL    HW2 5971   2.372   6.693   2.730  0.2295  1.5699  0.0990
 1347SOL     OW 5972   8.504   7.596   6.210  0.0598  0.3556  0.1305
 1347SOL    HW1 5973   8.559   7.523   6.181 -0.2516 -0.0877  0.6457
 1347SOL    HW2 5974   8.544   7.673   6.169  1.4223  0.1210  0.9623
 1348SOL     OW 5975   5.157   3.999   4.326  0.1267  0.9365  0.4094
 1348SOL    HW1 5976   5.200   4.081   4.302  2.2477 -0.3839 -0.6037
 1348SOL    HW2 5977   5.141   3.955   4.243  0.1492 -0.2276  1.0052
 1349SOL     OW 5978   2.944   6.350   5.237  0.1033  0.4510 -0.1453
 1349SOL    HW1 5979   2.964   6.440   5.212 -0.6382  0.6024 -0.2328
 1349SOL    HW2 5980   2.867   6.358   5.294  2.1345  0.2076  2.8672
 1350SOL     OW 5981   7.114   1.838   3.985  1.1233  0.0531 -0.5574
 1350SOL    HW1 5982   7.193   1.855   4.037  1.3912  1.8125 -1.4942
 1350SOL    HW2 5983   7.102   1.916   3.932 -1.3496 -0.0973 -0.3542
 1351SOL     OW 5984   1.035   8.803   1.432  0.4529  0.0994  0.4278
 1351SOL    HW1 5985   1.035   8.748   1.510  3.6636 -1.3723 -0.4615
 1351SOL    HW2 5986   1.083   8.752   1.367 -1.7569  1.4169 -2.4657
 1352SOL     OW 5987   7.982   6.813   7.858  0.2321  0.3420 -0.1888
 1352SOL    HW1 5988   7.911   6.874   7.835 -1.2047 -1.9183 -2.3699
 1352SOL    HW2 5989   8.046   6.866   7.905 -1.4808  3.2040 -0.8547
 1353SOL     OW 5990   0.713   7.344   5.385 -0.7258  0.1714  0.2570
 1353SOL    HW1 5991   0.767   7.358   5.463 -0.5269  1.1193 -0.0325
 1353SOL    HW2 5992   0.738   7.257   5.354 -2.6534 -1.3952  2.6585
 1354SOL     OW 5993   3.004   5.674   6.424 -0.0076 -0.5646  0.1896
 1354SOL    HW1 5994   2.996   5.758   6.469  0.9624 -1.7076  2.6405
 1354SOL    HW2 5995   3.091   5.676   6.385  0.3661 -0.7682  1.0035
 1355SOL     OW 5996   7.067   5.028   1.385 -0.0416 -0.4137  0.3846
 1355SOL    HW1 5997   7.096   5.111   1.348  0.5069 -0.7134  0.1414
 1355SOL    HW2 5998   7.145   4.991   1.427 -0.3517 -0.6703  0.7456
 1356SOL     OW 5999   8.562   2.920   1.299  0.2507  0.2295  0.0331
 1356SOL    HW1 6000   8.555   3.011   1.327  1.4421  0.2692  0.2605
 1356SOL    HW2 6001   8.571   2.924   1.204  2.0145  0.4996  0.1667
 1357SOL     OW 6002   6.644   5.529   5.960  0.2801  0.2230 -0.4692
 1357SOL    HW1 6003   6.650   5.580   6.041  1.1441 -0.9190  0.2300
 1357SOL    HW2 6004   6.558   5.488   5.963  0.8895 -1.0743  0.7119
 1358SOL     OW 6005   5.450   4.057   1.397  0.3051 -0.7193  0.1675
 1358SOL    HW1 6006   5.544   4.070   1.408  0.1362  0.3639  0.4069
 1358SOL    HW2 6007   5.416   4.045   1.486  0.3526 -2.2883  0.0141
 1359SOL     OW 6008   6.482   3.251   1.531  0.4750  0.0501 -0.6031
 1359SOL    HW1 6009   6.553   3.295   1.577 -0.4376 -0.7548  1.7152
 1359SOL    HW2 6010   6.404   3.301   1.554 -0.1562 -1.0067 -0.3805
 1360SOL     OW 6011   1.998   7.459   8.651 -0.4582  0.6209  0.3426
 1360SOL    HW1 6012   2.016   7.367   8.671  0.2017  1.0469  1.8758
 1360SOL    HW2 6013   2.084   7.496   8.629 -0.5253  1.1398  0.9410
 1361SOL     OW 6014   5.339   2.778   7.850 -0.2927 -0.1827 -0.8633
 1361SOL    HW1 6015   5.246   2.797   7.838 -0.3386 -0.2373 -0.6007
 1361SOL    HW2 6016   5.382   2.817   7.774 -0.5084  0.0250 -0.8790
 1362SOL     OW 6017   1.412   4.863   1.478 -0.3251 -0.4093  0.0400
 1362SOL    HW1 6018   1.398   4.942   1.532 -0.1092  0.8710 -1.6797
 1362SOL    HW2 6019   1.326   4.845   1.441 -0.5096 -1.3938  0.9014
 1363SOL     OW 6020   7.492   0.511   5.384 -0.0862  0.1017 -0.0907
 1363SOL    HW1 6021   7.457   0.491   5.470 -2.5583  1.4114 -0.6907
 1363SOL    HW2 6022   7.574   0.462   5.379 -1.2529 -2.3104  1.9000
 1364SOL     OW 6023   8.785   5.924   8.556 -0.0207  0.0396 -0.0858
 1364SOL    HW1 6024   8.875   5.894   8.548 -0.3270 -0.4914 -1.8594
 1364SOL    HW2 6025   8.742   5.894   8.476 -1.1116  2.6344 -0.5606
 1365SOL     OW 6026   6.080   0.754   2.823 -0.1693 -0.3832  0.3106
 1365SOL    HW1 6027   6.168   0.753   2.860  0.5316 -0.8718 -1.2768
 1365SOL    HW2 6028   6.075   0.674   2.771 -1.9981 -0.9785  1.3183
 1366SOL     OW 6029   1.301   8.803   3.705 -0.0569 -0.4379  0.1512
 1366SOL    HW1 6030   1.354   8.755   3.768 -1.0462 -0.1920  1.2111
 1366SOL    HW2 6031   1.312   8.895   3.730  2.1199  0.0165 -2.0882
 1367SOL     OW 6032   7.279   4.914   7.767 -0.3002  0.1338 -0.0553
 1367SOL    HW1 6033   7.256   4.900   7.676 -0.8395  0.0147  0.0982
 1367SOL    HW2 6034   7.301   5.007   7.773 -1.7320  0.4808  0.0118
 1368SOL     OW 6035   8.802   7.982   6.385  0.1414 -0.0466 -0.4844
 1368SOL    HW1 6036   8.806   8.072   6.418 -0.2813 -0.3001  0.2768
 1368SOL    HW2 6037   8.710   7.971   6.358  0.3055 -0.0936 -1.0242
 1369SOL     OW 6038   6.073   4.059   0.829  1.0042  0.3393  0.4913
 1369SOL    HW1 6039   6.007   4.008   0.876  0.5553 -0.1023 -0.5856
 1369SOL    HW2 6040   6.022   4.118   0.773  1.4978 -0.3159 -0.6859
 1370SOL     OW 6041   5.144   7.561   3.301  0.1998 -0.2924  0.3925
 1370SOL    HW1 6042   5.066   7.564   3.357 -0.5717  3.8430 -0.6018
 1370SOL    HW2 6043   5.211   7.609   3.350  0.6916  0.1129 -0.6462
 1371SOL     OW 6044   3.510   8.067   4.086  0.2977 -0.4032  0.6927
 1371SOL    HW1 6045   3.562   8.084   4.008 -1.8667 -1.7600 -1.1800
 1371SOL    HW2 6046   3.473   8.152   4.109 -0.7614 -0.3226 -1.1297
 1372SOL     OW 6047   3.303   3.838   5.315  0.1706 -0.1247 -0.1289
 1372SOL    HW1 6048   3.221   3.859   5.271  0.1922  0.8193  0.2553
 1372SOL    HW2 6049   3.304   3.895   5.392  0.9781 -0.4574  0.1211
 1373SOL     OW 6050   7.546   3.871   4.228  0.1637 -0.5479  0.2367
 1373SOL    HW1 6051   7.592   3.797   4.269  2.1599 -0.2927 -1.3872
 1373SOL    HW2 6052   7.566   3.862   4.135 -0.8257  1.2095 -0.1736
 1374SOL     OW 6053   7.038   2.720   5.709  0.5666 -0.1935  0.0952
 1374SOL    HW1 6054   7.060   2.650   5.647  0.1389 -0.1462 -0.1128
 1374SOL    HW2 6055   6.988   2.676   5.778 -0.5144  0.0558 -0.5075
 1375SOL     OW 6056   6.730   4.882   0.034 -0.1119  0.3731 -0.3471
 1375SOL    HW1 6057   6.776   4.963   0.054  1.9311 -0.9833  0.8219
 1375SOL    HW2 6058   6.695   4.852   0.118 -0.2297 -0.3069 -0.6286
 1376SOL     OW 6059   3.485   5.520   0.512 -0.0106  0.1690 -0.4083
 1376SOL    HW1 6060   3.570   5.497   0.473  0.5519  0.3526  0.6580
 1376SOL    HW2 6061   3.476   5.460   0.586  0.0325  1.3050  0.5538
 1377SOL     OW 6062   5.502   8.848   0.773  0.2872 -0.0786  0.0315
 1377SOL    HW1 6063   5.520   8.926   0.825 -0.2967  0.7733 -1.0059
 1377SOL    HW2 6064   5.554   8.860   0.693 -1.3405  0.2474 -1.0203
 1378SOL     OW 6065   2.541   4.200   1.447  0.1010  0.0847 -0.5197
 1378SOL    HW1 6066   2.595   4.125   1.424 -1.1205 -1.0690  0.2617
 1378SOL    HW2 6067   2.561   4.217   1.539 -2.2363 -1.6289  0.3938
 1379SOL     OW 6068   1.219   2.516   0.112  0.2014 -0.4658  0.2084
 1379SOL    HW1 6069   1.132   2.555   0.099 -0.1462 -1.0542  0.7421
 1379SOL    HW2 6070   1.211   2.427   0.077  0.3597 -0.7883  0.9719
 1380SOL     OW 6071   7.048   8.318   1.401 -0.4584 -0.1045 -0.2159
 1380SOL    HW1 6072   6.976   8.369   1.438  0.4408 -0.0345  1.5104
 1380SOL    HW2 6073   7.119   8.382   1.391 -0.0881 -0.5270 -0.2842
 1381SOL     OW 6074   4.583   3.747   4.179 -0.3381 -0.0324  0.0209
 1381SOL    HW1 6075   4.524   3.736   4.253  0.0024 -1.8559  0.0683
 1381SOL    HW2 6076   4.535   3.710   4.104 -0.2797  0.8704 -0.4749
 1382SOL     OW 6077   3.202   0.971   2.199  0.0938  0.0957  0.3912
 1382SOL    HW1 6078   3.170   0.985   2.288 -0.6311 -0.9194  0.3077
 1382SOL    HW2 6079   3.189   1.055   2.155 -1.5329  0.0046  0.6561
 1383SOL     OW 6080   8.136   2.143   1.489  0.0237 -0.4203 -0.0155
 1383SOL    HW1 6081   8.062   2.163   1.431 -0.6953  2.4937  1.6678
 1383SOL    HW2 6082   8.208   2.124   1.430 -0.9901  1.0824 -1.8637
 1384SOL     OW 6083   5.851   1.210   7.365 -0.1231 -0.1839  0.5528
 1384SOL    HW1 6084   5.834   1.155   7.288 -1.4332 -0.1067  0.7558
 1384SOL    HW2 6085   5.798   1.171   7.435 -1.4119  1.5006  0.6041
 1385SOL     OW 6086   1.078   1.458   0.063  0.1186 -0.3891 -0.0904
 1385SOL    HW1 6087   1.090   1.469  -0.032 -1.1512 -2.9904 -0.6324
 1385SOL    HW2 6088   0.984   1.445   0.074  0.0545  1.2576  1.7529
 1386SOL     OW 6089   2.735   3.363   1.824 -0.1887  0.0631  0.2204
 1386SOL    HW1 6090   2.664   3.318   1.778  0.4404 -1.1788  0.4036
 1386SOL    HW2 6091   2.691   3.429   1.878 -1.1046  0.0727 -0.5104
 1387SOL     OW 6092   5.622   2.452   6.127 -0.3266 -0.0400  0.0795
 1387SOL    HW1 6093   5.608   2.519   6.194  1.6300  0.2364  0.2660
 1387SOL    HW2 6094   5.540   2.402   6.127 -0.2706 -0.3447  2.9947
 1388SOL     OW 6095   4.472   2.106   8.560 -0.4971  0.5212  0.0026
 1388SOL    HW1 6096   4.545   2.070   8.611  1.7571  2.1755 -1.8233
 1388SOL    HW2 6097   4.412   2.141   8.626  0.2526 -1.0122  1.5850
 1389SOL     OW 6098   1.991   2.226   0.188 -0.0128 -0.1492  0.0597
 1389SOL    HW1 6099   2.051   2.177   0.245 -0.3329 -0.1803  0.3744
 1389SOL    HW2 6100   2.047   2.263   0.120  0.3017 -0.5533  0.0921
 1390SOL     OW 6101   3.212   2.185   4.490 -0.0294 -0.2013  0.1132
 1390SOL    HW1 6102   3.174   2.129   4.422  0.1952  0.2706 -0.4135
 1390SOL    HW2 6103   3.173   2.271   4.474  0.1792 -0.0399  0.4608
 1391SOL     OW 6104   7.271   3.111   4.660  0.1699 -0.0155 -0.2683
 1391SOL    HW1 6105   7.319   3.030   4.677  0.4003  0.1913  0.0591
 1391SOL    HW2 6106   7.338   3.178   4.654  0.1550 -0.0953 -2.2262
 1392SOL     OW 6107   0.602   7.834   8.449  0.6417  0.3282 -0.3242
 1392SOL    HW1 6108   0.578   7.747   8.480 -0.4372  0.3229 -1.1314
 1392SOL    HW2 6109   0.544   7.850   8.375  1.7618  1.1744 -1.0520
 1393SOL     OW 6110   6.709   5.000   5.672 -0.0644 -0.3638 -0.3690
 1393SOL    HW1 6111   6.744   4.918   5.708 -1.8097 -0.9843  0.0054
 1393SOL    HW2 6112   6.725   4.993   5.578  1.5115 -0.2420 -0.1396
 1394SOL     OW 6113   5.619   6.413   5.610 -0.5838  0.5152 -0.3163
 1394SOL    HW1 6114   5.532   6.452   5.603 -1.3157 -1.0916 -0.5867
 1394SOL    HW2 6115   5.655   6.448   5.691 -1.3073  1.5249 -0.4166
 1395SOL     OW 6116   6.148   3.517   1.903 -0.1973  0.1986  0.3949
 1395SOL    HW1 6117   6.081   3.552   1.962  1.1334  0.6286  1.6934
 1395SOL    HW2 6118   6.157   3.584   1.835 -0.3883  0.6075  0.7662
 1396SOL     OW 6119   1.287   4.121   2.321  0.0275  0.2274 -0.0560
 1396SOL    HW1 6120   1.369   4.097   2.362  0.1866  1.9002  0.6978
 1396SOL    HW2 6121   1.221   4.107   2.389 -0.0904  0.4183 -0.1301
 1397SOL     OW 6122   0.024   8.010   1.798 -0.4334  0.5962 -0.2073
 1397SOL    HW1 6123  -0.061   7.978   1.768 -0.6859 -0.4366  1.4825
 1397SOL    HW2 6124   0.016   8.106   1.795 -1.7847  0.5109  0.2320
 1398SOL     OW 6125   3.368   2.207   4.068 -0.5044  0.2876  0.4923
 1398SOL    HW1 6126   3.455   2.240   4.088 -0.7729  1.4412 -0.1360
 1398SOL    HW2 6127   3.373   2.113   4.085  0.5893  0.4834  1.3508
 1399SOL     OW 6128   3.205   8.794   8.590 -0.1369  0.4325 -0.0633
 1399SOL    HW1 6129   3.233   8.705   8.569 -0.3650  0.5287 -0.8345
 1399SOL    HW2 6130   3.156   8.786   8.672 -0.0916 -0.1429 -0.0897
 1400SOL     OW 6131   8.250   0.499   6.897 -0.3006  0.2004  0.4685
 1400SOL    HW1 6132   8.290   0.416   6.869 -2.2308 -0.9144  0.8451
 1400SOL    HW2 6133   8.263   0.558   6.823 -2.7464 -1.8048 -1.7890
 1401SOL     OW 6134   4.974   0.417   3.774  0.3298 -0.3733 -0.3843
 1401SOL    HW1 6135   4.933   0.454   3.852  3.0208  2.1232  0.0083
 1401SOL    HW2 6136   4.933   0.331   3.764 -2.1967  0.4022  2.0325
 1402SOL     OW 6137   0.819   7.134   7.785  0.0902  0.3798  0.4816
 1402SOL    HW1 6138   0.899   7.182   7.765  0.8173 -0.9094  0.1823
 1402SOL    HW2 6139   0.845   7.042   7.784 -1.6606 -0.1610 -0.8588
 1403SOL     OW 6140   6.981   8.366   8.848  0.1054  0.5051  0.1992
 1403SOL    HW1 6141   7.064   8.330   8.817  0.9486  2.2797  0.2705
 1403SOL    HW2 6142   6.919   8.347   8.777  1.0699  1.0229 -0.8112
 1404SOL     OW 6143   4.656   3.964   5.431 -0.4689 -0.1116 -0.0532
 1404SOL    HW1 6144   4.581   3.983   5.375 -0.2124  0.7129 -0.1272
 1404SOL    HW2 6145   4.622   3.901   5.495 -0.6218 -1.4755 -1.4300
 1405SOL     OW 6146   8.403   2.686   4.598 -0.6723 -0.0953  0.5885
 1405SOL    HW1 6147   8.461   2.634   4.543  2.6015  2.5554  1.1699
 1405SOL    HW2 6148   8.323   2.697   4.546  0.4243 -1.5917 -1.5413
 1406SOL     OW 6149   8.855   7.573   3.088  0.3821  0.5935  0.1162
 1406SOL    HW1 6150   8.944   7.585   3.054  0.4094  2.1725  0.6485
 1406SOL    HW2 6151   8.800   7.568   3.010  0.8344  0.6612 -0.2086
 1407SOL     OW 6152   6.516   2.309   3.226 -0.0825 -0.1481 -0.0182
 1407SOL    HW1 6153   6.440   2.251   3.222 -0.2643 -0.2220  2.5915
 1407SOL    HW2 6154   6.478   2.397   3.228 -0.0086 -0.1094 -0.3327
 1408SOL     OW 6155   7.183   2.252   7.694  0.9534 -0.3102  0.2654
 1408SOL    HW1 6156   7.182   2.346   7.712 -0.0811 -0.5432  1.6724
 1408SOL    HW2 6157   7.150   2.244   7.605  1.8312  0.6937 -0.1750
 1409SOL     OW 6158   5.512   4.406   6.680  0.5802  0.3367  0.3064
 1409SOL    HW1 6159   5.443   4.469   6.659  0.9920  0.6241 -0.2131
 1409SOL    HW2 6160   5.571   4.408   6.604  0.9781 -0.1559  0.5913
 1410SOL     OW 6161   5.742   4.917   0.916  0.1611 -0.4983 -0.0756
 1410SOL    HW1 6162   5.780   4.870   0.990 -2.9755 -0.6649  1.6197
 1410SOL    HW2 6163   5.774   4.871   0.838  2.1223 -1.4710  1.2409
 1411SOL     OW 6164   3.143   8.009   0.499 -0.0094  0.3125 -0.1023
 1411SOL    HW1 6165   3.178   8.078   0.443  0.2085  0.6884  0.4818
 1411SOL    HW2 6166   3.204   7.936   0.487  0.1357  0.4511 -0.2234
 1412SOL     OW 6167   5.949   5.591   2.351  0.1545  0.7502  0.2398
 1412SOL    HW1 6168   5.915   5.648   2.419  4.1947  1.5543  1.8811
 1412SOL    HW2 6169   5.943   5.643   2.271 -0.7568  1.4807  0.7604
 1413SOL     OW 6170   8.807   7.662   4.345  0.0989 -0.0004 -0.1421
 1413SOL    HW1 6171   8.740   7.620   4.290  0.1549 -1.5957  0.9494
 1413SOL    HW2 6172   8.814   7.751   4.310 -2.0357 -0.0301 -0.7876
 1414SOL     OW 6173   8.208   1.533   4.840  0.3919  0.2531  0.3763
 1414SOL    HW1 6174   8.143   1.577   4.785  1.0903  1.0759  0.1789
 1414SOL    HW2 6175   8.200   1.440   4.819  0.9292  0.5805 -1.4595
 1415SOL     OW 6176   2.219   3.489   3.918 -0.3956 -0.2748 -0.4365
 1415SOL    HW1 6177   2.125   3.496   3.907 -0.7087 -1.2747  1.2803
 1415SOL    HW2 6178   2.241   3.401   3.890  0.0455 -0.0425 -0.8473
 1416SOL     OW 6179   8.786   6.108   2.800  0.6545 -0.3246 -0.2944
 1416SOL    HW1 6180   8.709   6.159   2.775  0.2463 -0.7948 -0.0123
 1416SOL    HW2 6181   8.859   6.169   2.792 -0.0032  0.7660  1.5003
 1417SOL     OW 6182   0.721   6.958   6.833 -0.2035  0.3425  0.1389
 1417SOL    HW1 6183   0.813   6.977   6.848 -0.2071 -0.5120  1.3621
 1417SOL    HW2 6184   0.716   6.862   6.828 -1.2072  0.2913  1.5711
 1418SOL     OW 6185   7.603   0.126   7.660  0.0788 -0.1830  0.5973
 1418SOL    HW1 6186   7.673   0.064   7.639  0.0074 -1.0803  2.7327
 1418SOL    HW2 6187   7.631   0.208   7.620  1.6676 -0.8744  0.2111
 1419SOL     OW 6188   1.084   0.077   1.125 -0.0089  0.7039 -0.2517
 1419SOL    HW1 6189   1.144   0.043   1.059 -0.2125  0.4936 -0.3287
 1419SOL    HW2 6190   1.030   0.002   1.150  0.6009  0.5772  0.7447
 1420SOL     OW 6191   2.861   3.823   3.553 -0.2187 -0.4588  0.2451
 1420SOL    HW1 6192   2.872   3.905   3.601 -0.9550 -0.2324  0.0416
 1420SOL    HW2 6193   2.948   3.804   3.518 -0.0183  0.1776  0.3866
 1421SOL     OW 6194   1.890   8.655   7.308 -0.4320 -0.4487 -0.3944
 1421SOL    HW1 6195   1.881   8.569   7.267 -2.0418 -0.0500 -0.9630
 1421SOL    HW2 6196   1.923   8.712   7.239  0.0122 -0.4730 -0.2030
 1422SOL     OW 6197   5.691   7.788   0.344  0.1301 -0.3499 -0.3957
 1422SOL    HW1 6198   5.778   7.771   0.382 -0.5268 -3.0541  0.1005
 1422SOL    HW2 6199   5.692   7.742   0.260 -0.5071  0.4231 -0.8366
 1423SOL     OW 6200   4.134   8.015   3.194  0.2377  0.1308  0.5835
 1423SOL    HW1 6201   4.184   8.039   3.115  0.1764  0.5625  0.6733
 1423SOL    HW2 6202   4.154   8.085   3.256  0.1878 -0.1447  0.9097
 1424SOL     OW 6203   3.234   7.646   1.546  0.3937  0.5016  0.0675
 1424SOL    HW1 6204   3.241   7.578   1.613  0.6131  1.5997  1.1859
 1424SOL    HW2 6205   3.161   7.617   1.490  0.2813 -0.4799  0.6986
 1425SOL     OW 6206   1.471   2.301   1.246  0.0200  0.2892  0.2108
 1425SOL    HW1 6207   1.523   2.372   1.284  1.7476 -0.9371  0.2413
 1425SOL    HW2 6208   1.386   2.307   1.289  0.2239  2.1421  0.4168
 1426SOL     OW 6209   4.335   6.952   8.405  0.2152  0.0441 -0.0904
 1426SOL    HW1 6210   4.407   6.972   8.345 -1.1520 -1.2750 -2.2975
 1426SOL    HW2 6211   4.277   7.028   8.397 -1.0498 -1.0455 -2.2876
 1427SOL     OW 6212   0.353   7.492   6.624  0.2486 -0.2313 -0.1154
 1427SOL    HW1 6213   0.406   7.540   6.559  2.3250 -2.2846 -0.0458
 1427SOL    HW2 6214   0.357   7.546   6.702 -0.1853  1.0488 -0.9406
 1428SOL     OW 6215   3.080   2.440   3.366  0.1527 -0.0682 -0.2236
 1428SOL    HW1 6216   3.135   2.500   3.314  0.0053  1.9242  1.7669
 1428SOL    HW2 6217   2.991   2.466   3.346  0.0805  0.1508  0.3522
 1429SOL     OW 6218   5.790   4.427   3.661 -1.4102  0.2380  0.3349
 1429SOL    HW1 6219   5.850   4.355   3.681 -3.2448 -1.7386 -0.8688
 1429SOL    HW2 6220   5.843   4.506   3.672  1.3681 -1.3731 -0.5423
 1430SOL     OW 6221   0.184   0.702   2.344 -0.3427  0.4702 -0.1779
 1430SOL    HW1 6222   0.269   0.735   2.372  0.4485  0.0482 -1.9917
 1430SOL    HW2 6223   0.194   0.607   2.342 -0.4668  0.4640 -1.4991
 1431SOL     OW 6224   6.559   5.954   4.661  0.5368 -0.0392 -0.3911
 1431SOL    HW1 6225   6.565   5.882   4.724  1.3877  1.7010  1.7018
 1431SOL    HW2 6226   6.474   5.944   4.620  0.2066 -1.6400  0.5983
 1432SOL     OW 6227   3.642   4.330   8.701 -0.0719  0.3160  0.1251
 1432SOL    HW1 6228   3.548   4.344   8.691 -0.0700 -0.5324 -1.4039
 1432SOL    HW2 6229   3.649   4.242   8.739  0.0991 -0.5786 -1.8485
 1433SOL     OW 6230   0.119   6.827   4.989  0.1686  0.2620  0.2808
 1433SOL    HW1 6231   0.054   6.885   5.027  0.2551  0.7557 -0.3200
 1433SOL    HW2 6232   0.159   6.783   5.065 -0.2312  0.6177  0.7032
 1434SOL     OW 6233   3.522   5.871   7.496  0.6776  0.1267 -0.1873
 1434SOL    HW1 6234   3.596   5.850   7.439  0.1090  2.9202 -2.1574
 1434SOL    HW2 6235   3.458   5.801   7.478  1.0679  0.1674 -1.9863
 1435SOL     OW 6236   6.609   6.052   4.424 -0.2386  0.1359 -0.8194
 1435SOL    HW1 6237   6.700   6.045   4.393  0.0545  0.8870 -0.1525
 1435SOL    HW2 6238   6.605   5.994   4.500 -0.7255 -1.0164 -1.6740
 1436SOL     OW 6239   8.466   4.979   2.789  0.4377 -0.0861  0.1159
 1436SOL    HW1 6240   8.496   5.061   2.750  2.4148 -0.0518  1.5451
 1436SOL    HW2 6241   8.528   4.962   2.861 -2.0555 -0.9466  2.2258
 1437SOL     OW 6242   4.220   2.219   8.421  0.1647 -0.2812  0.3254
 1437SOL    HW1 6243   4.205   2.295   8.477  1.4960 -0.2519  0.6797
 1437SOL    HW2 6244   4.262   2.254   8.343  0.1891 -0.5715  0.2055
 1438SOL     OW 6245   1.023   1.782   8.813 -0.2574  0.3420  0.0887
 1438SOL    HW1 6246   1.109   1.816   8.840 -1.3905  2.9691  0.7450
 1438SOL    HW2 6247   1.017   1.806   8.720 -0.2690  0.1100  0.0299
 1439SOL     OW 6248   7.572   4.855   6.742  0.5190 -0.0079  0.1487
 1439SOL    HW1 6249   7.561   4.812   6.827  1.6511 -0.1447  0.2338
 1439SOL    HW2 6250   7.516   4.932   6.746  0.4831 -0.0728  0.9775
 1440SOL     OW 6251   5.420   6.575   7.804  0.7377 -0.4221 -0.1619
 1440SOL    HW1 6252   5.446   6.518   7.732  1.4790 -0.3365  0.0359
 1440SOL    HW2 6253   5.482   6.555   7.874  0.1364 -0.3705  0.3920
 1441SOL     OW 6254   1.197   3.109   2.378 -0.0392 -0.9096 -0.8934
 1441SOL    HW1 6255   1.288   3.135   2.364  0.3139 -1.2720  0.5496
 1441SOL    HW2 6256   1.178   3.139   2.467 -0.8870 -2.0686 -0.6682
 1442SOL     OW 6257   4.991   4.441   1.332 -0.1864  0.4299 -0.5159
 1442SOL    HW1 6258   4.967   4.526   1.295  0.4463  1.5531  1.5129
 1442SOL    HW2 6259   5.086   4.445   1.342 -0.2687 -0.0820  0.5884
 1443SOL     OW 6260   7.995   1.796   4.396 -0.5565  0.2853  0.3038
 1443SOL    HW1 6261   7.951   1.711   4.387 -1.4649  0.7198  0.5107
 1443SOL    HW2 6262   7.977   1.841   4.314 -0.4719  0.4570  0.3796
 1444SOL     OW 6263   6.533   6.378   7.434  0.3331  0.5021  0.2884
 1444SOL    HW1 6264   6.490   6.316   7.375 -1.5362  1.7488  0.2583
 1444SOL    HW2 6265   6.472   6.452   7.440  2.1948  2.0642  0.8354
 1445SOL     OW 6266   2.395   8.227   3.945  0.9261  0.4885 -0.1423
 1445SOL    HW1 6267   2.337   8.289   3.989  1.3639  1.2500 -0.6183
 1445SOL    HW2 6268   2.473   8.277   3.924  0.8197  0.1037 -1.5982
 1446SOL     OW 6269   6.901   5.571   6.769 -0.4495 -0.3458  0.2680
 1446SOL    HW1 6270   6.872   5.600   6.855  0.4472  1.2274  0.0932
 1446SOL    HW2 6271   6.828   5.522   6.734 -0.7255 -1.2597  2.0295
 1447SOL     OW 6272   1.173   1.232   1.955 -0.8382 -0.1164 -0.1633
 1447SOL    HW1 6273   1.119   1.161   1.991  0.3787 -0.4175  1.1627
 1447SOL    HW2 6274   1.175   1.297   2.025  0.1889  0.0518 -0.3374
 1448SOL     OW 6275   0.114   4.350   7.108 -0.2445 -0.8724 -0.3379
 1448SOL    HW1 6276   0.208   4.348   7.088 -0.2559  0.3108 -0.5619
 1448SOL    HW2 6277   0.076   4.402   7.037 -0.6891  0.9258  1.1705
 1449SOL     OW 6278   2.102   6.618   2.941 -0.4773 -0.2455 -0.3879
 1449SOL    HW1 6279   2.181   6.634   2.889 -0.8293 -2.4915 -1.7232
 1449SOL    HW2 6280   2.033   6.666   2.897 -0.0339  1.1943  0.4145
 1450SOL     OW 6281   3.454   1.708   5.899  0.0712  0.1981 -0.3431
 1450SOL    HW1 6282   3.423   1.793   5.928  0.4728  0.6490 -1.1986
 1450SOL    HW2 6283   3.425   1.701   5.808 -1.5571 -1.3774  0.2456
 1451SOL     OW 6284   7.131   3.939   1.112 -0.2347 -0.1237  0.2037
 1451SOL    HW1 6285   7.047   3.903   1.140 -0.3454 -2.0197 -2.2263
 1451SOL    HW2 6286   7.196   3.877   1.145 -0.0651 -0.2504 -0.3466
 1452SOL     OW 6287   2.057   8.853   6.654  0.4198  0.0624  0.0438
 1452SOL    HW1 6288   2.065   8.805   6.737  0.4579  0.5143  0.3047
 1452SOL    HW2 6289   2.089   8.941   6.674 -1.0786  0.6531 -0.0271
 1453SOL     OW 6290   3.865   6.210   4.877 -0.0336  0.5460 -0.0683
 1453SOL    HW1 6291   3.810   6.226   4.953  0.3967 -0.2812  0.4439
 1453SOL    HW2 6292   3.915   6.131   4.901 -0.3284 -0.0776 -1.4502
 1454SOL     OW 6293   4.968   8.475   2.586 -0.3184  0.2554  0.3788
 1454SOL    HW1 6294   4.913   8.537   2.635 -0.3969  1.6072 -1.2934
 1454SOL    HW2 6295   5.056   8.490   2.620 -0.6319 -0.2374  1.4449
 1455SOL     OW 6296   8.331   3.390   5.846  0.3084 -0.5023 -0.0734
 1455SOL    HW1 6297   8.361   3.381   5.755 -0.9059 -1.4994 -0.4046
 1455SOL    HW2 6298   8.314   3.484   5.856  1.7631 -0.1743 -0.4168
 1456SOL     OW 6299   5.598   2.025   2.169 -0.0822  0.5436 -0.0818
 1456SOL    HW1 6300   5.687   2.018   2.204  0.0344  1.4598 -0.1774
 1456SOL    HW2 6301   5.565   2.108   2.203 -2.2384 -1.3253  2.8833
 1457SOL     OW 6302   8.445   4.744   7.680  0.2527 -0.1286  0.0502
 1457SOL    HW1 6303   8.507   4.765   7.610 -0.6046 -0.5867 -0.8692
 1457SOL    HW2 6304   8.372   4.805   7.667  0.3007  0.1301  0.8758
 1458SOL     OW 6305   3.320   8.066   7.879  0.6347  0.0433  0.0546
 1458SOL    HW1 6306   3.349   8.147   7.837 -1.4084  0.2956 -0.9868
 1458SOL    HW2 6307   3.382   8.052   7.950  0.7398  2.8061  0.5920
 1459SOL     OW 6308   5.128   3.567   2.883 -0.1540  0.2674 -0.2610
 1459SOL    HW1 6309   5.127   3.581   2.788  0.0889  0.8736 -0.1808
 1459SOL    HW2 6310   5.221   3.564   2.906 -0.1897 -1.2354 -0.2158
 1460SOL     OW 6311   8.217   4.664   0.808  0.0881 -0.0631 -0.2145
 1460SOL    HW1 6312   8.156   4.737   0.815 -0.4653 -0.6570  1.9046
 1460SOL    HW2 6313   8.192   4.620   0.726 -0.8473  0.9818 -0.5174
 1461SOL     OW 6314   2.809   0.478   7.577  0.1647 -0.5998  0.1371
 1461SOL    HW1 6315   2.827   0.516   7.663 -0.3849  1.5163 -0.6107
 1461SOL    HW2 6316   2.779   0.389   7.595 -1.9857  0.4559  2.2999
 1462SOL     OW 6317   2.557   4.712   8.817  0.0561 -0.1449  0.5363
 1462SOL    HW1 6318   2.643   4.670   8.819  0.8811  1.5117  1.6345
 1462SOL    HW2 6319   2.534   4.714   8.724  0.6863 -1.5839  0.3235
 1463SOL     OW 6320   5.168   3.016   8.181  0.4952  0.4718 -0.3947
 1463SOL    HW1 6321   5.186   3.085   8.245  2.3237 -0.6058  0.3326
 1463SOL    HW2 6322   5.231   2.947   8.203 -2.1924 -2.0841 -0.1228
 1464SOL     OW 6323   3.467   2.104   2.223 -0.4298  0.1627 -0.5264
 1464SOL    HW1 6324   3.501   2.134   2.139  1.6524 -0.8046 -0.0919
 1464SOL    HW2 6325   3.379   2.071   2.203 -1.2728  2.8749 -1.6818
 1465SOL     OW 6326   2.405   1.181   3.425  0.8206 -0.0674 -0.3463
 1465SOL    HW1 6327   2.434   1.099   3.466  1.3583  0.4493  0.3246
 1465SOL    HW2 6328   2.428   1.171   3.332  1.1251 -0.5668 -0.2199
 1466SOL     OW 6329   5.915   8.033   8.421 -0.4096  0.0281 -0.2620
 1466SOL    HW1 6330   5.943   7.961   8.478  1.8942 -0.0032 -1.3129
 1466SOL    HW2 6331   5.856   8.085   8.475 -0.3189 -1.3945  1.2843
 1467SOL     OW 6332   7.406   1.121   0.081 -0.2011 -0.2359  0.2661
 1467SOL    HW1 6333   7.405   1.171  -0.001  2.2293 -1.4389 -0.6177
 1467SOL    HW2 6334   7.469   1.167   0.136  1.4080 -1.7165 -0.2318
 1468SOL     OW 6335   8.474   7.550   7.140  0.1886  0.2262 -0.2197
 1468SOL    HW1 6336   8.490   7.617   7.206 -0.2957  0.5168 -0.3950
 1468SOL    HW2 6337   8.557   7.543   7.093  0.8296 -0.6116  0.9707
 1469SOL     OW 6338   8.003   4.722   3.719 -0.2049 -0.8940  0.0403
 1469SOL    HW1 6339   8.001   4.634   3.757  0.1674 -1.5511 -1.3793
 1469SOL    HW2 6340   7.948   4.715   3.641 -1.1538  0.4754  0.5456
 1470SOL     OW 6341   3.338   5.193   0.340  0.3805 -0.0650 -0.0247
 1470SOL    HW1 6342   3.391   5.115   0.358  0.0107 -0.7926 -1.8465
 1470SOL    HW2 6343   3.260   5.159   0.296  0.7931  1.3922 -2.0273
 1471SOL     OW 6344   5.112   2.398   6.805 -0.1164 -0.2649  0.2838
 1471SOL    HW1 6345   5.140   2.314   6.768  0.5818  0.4720 -0.9087
 1471SOL    HW2 6346   5.127   2.389   6.899  0.3510 -1.3158  0.1199
 1472SOL     OW 6347   3.291   7.760   0.479  0.4570  0.7210  0.3586
 1472SOL    HW1 6348   3.284   7.724   0.390  0.5306  0.2645  0.5351
 1472SOL    HW2 6349   3.302   7.683   0.535 -0.7768  0.9146  0.8964
 1473SOL     OW 6350   1.864   5.353   1.795 -0.6437 -0.1062  0.0107
 1473SOL    HW1 6351   1.793   5.344   1.731  0.0377  0.8595 -0.9219
 1473SOL    HW2 6352   1.937   5.306   1.755 -0.5245 -0.4220  0.5990
 1474SOL     OW 6353   8.576   1.462   2.699  0.0002 -0.3811  0.4926
 1474SOL    HW1 6354   8.670   1.472   2.712  0.0084  1.0463 -0.4759
 1474SOL    HW2 6355   8.536   1.533   2.749 -0.6155 -1.2326  1.2556
 1475SOL     OW 6356   6.161   5.843   8.148 -0.4214  0.1892 -0.7388
 1475SOL    HW1 6357   6.169   5.754   8.115  0.2847  0.1425 -0.4613
 1475SOL    HW2 6358   6.229   5.892   8.101  0.0176  0.3072  0.0127
 1476SOL     OW 6359   8.332   7.856   6.900  0.4959  0.2279 -0.1048
 1476SOL    HW1 6360   8.269   7.860   6.972  0.8711 -0.2497  0.2586
 1476SOL    HW2 6361   8.413   7.824   6.941  0.0658 -2.4182 -1.1666
 1477SOL     OW 6362   5.814   5.411   5.356  0.3857  0.5834  0.3091
 1477SOL    HW1 6363   5.761   5.335   5.381  0.1197  1.5230  2.8835
 1477SOL    HW2 6364   5.809   5.469   5.431  4.0631  1.2881  0.1920
 1478SOL     OW 6365   0.204   2.866   5.609 -0.2325  0.3560 -0.2618
 1478SOL    HW1 6366   0.266   2.860   5.536 -0.6913 -0.6171 -0.5872
 1478SOL    HW2 6367   0.149   2.789   5.600 -0.4234  0.3261  1.0204
 1479SOL     OW 6368   8.581   0.148   5.479 -0.4370 -0.0905 -1.0007
 1479SOL    HW1 6369   8.566   0.062   5.518 -1.2686  1.2809  1.9328
 1479SOL    HW2 6370   8.511   0.156   5.413 -0.5972 -1.4794 -1.0319
 1480SOL     OW 6371   0.271   0.443   2.312 -0.2729 -0.3249  0.3410
 1480SOL    HW1 6372   0.325   0.459   2.234  0.9103  1.3941  1.4279
 1480SOL    HW2 6373   0.181   0.439   2.280  0.0272  1.9830 -0.9466
 1481SOL     OW 6374   2.331   0.541   5.514 -0.1955  0.4796 -0.1852
 1481SOL    HW1 6375   2.247   0.519   5.555 -0.6631  0.4577 -1.1403
 1481SOL    HW2 6376   2.380   0.458   5.516  0.6179  0.9154  2.1505
 1482SOL     OW 6377   7.712   8.665   7.359  0.6005 -0.5002  0.0737
 1482SOL    HW1 6378   7.655   8.691   7.287  1.3695  1.4199  0.1189
 1482SOL    HW2 6379   7.800   8.670   7.324  0.8996 -0.9763  0.7313
 1483SOL     OW 6380   7.724   6.705   5.691  1.0716 -0.0498 -0.2740
 1483SOL    HW1 6381   7.683   6.791   5.703 -0.7164 -1.1195  2.0722
 1483SOL    HW2 6382   7.778   6.694   5.769  0.6573 -1.3717 -0.1605
 1484SOL     OW 6383   1.908   8.525   8.038 -0.3682 -0.1920 -0.0766
 1484SOL    HW1 6384   1.956   8.596   7.997 -2.4145  0.5725 -1.3124
 1484SOL    HW2 6385   1.895   8.553   8.128 -0.7013  0.7845 -0.4185
 1485SOL     OW 6386   4.818   8.304   2.143  0.8357  0.2425 -0.1374
 1485SOL    HW1 6387   4.767   8.225   2.160  0.6477  0.7446  1.8481
 1485SOL    HW2 6388   4.896   8.273   2.097 -0.8785 -0.6144 -2.7328
 1486SOL     OW 6389   7.740   1.507   0.300 -0.7045 -0.2519 -0.5435
 1486SOL    HW1 6390   7.699   1.564   0.366 -1.6176 -1.2163 -0.2471
 1486SOL    HW2 6391   7.812   1.464   0.347  0.8778  1.6118 -1.1231
 1487SOL     OW 6392   1.496   7.696   8.143  0.0970 -0.0020 -0.2965
 1487SOL    HW1 6393   1.404   7.715   8.124 -0.1367 -0.9100 -0.1200
 1487SOL    HW2 6394   1.545   7.747   8.078 -0.5509  0.0874 -0.7247
 1488SOL     OW 6395   2.632   3.391   3.018 -0.0385 -0.2810  0.0766
 1488SOL    HW1 6396   2.644   3.356   2.930  0.6285 -0.5518  0.2685
 1488SOL    HW2 6397   2.579   3.469   3.006  2.5610  1.4687 -0.9471
 1489SOL     OW 6398   6.030   5.590   6.698  0.3726  0.3191  0.0173
 1489SOL    HW1 6399   6.067   5.638   6.772 -0.2990  0.1818  0.4552
 1489SOL    HW2 6400   5.967   5.651   6.659 -0.5621 -0.2156  0.6387
 1490SOL     OW 6401   1.246   4.102   3.106 -0.0152  0.3575  0.2424
 1490SOL    HW1 6402   1.164   4.146   3.083 -0.5043 -0.9720 -0.6906
 1490SOL    HW2 6403   1.310   4.137   3.043  0.1287  1.2897  0.8803
 1491SOL     OW 6404   1.883   6.371   8.748  0.3846  0.4149  0.2254
 1491SOL    HW1 6405   1.843   6.309   8.688  1.7351  0.1500 -0.4501
 1491SOL    HW2 6406   1.863   6.337   8.835  1.5940 -1.3633 -0.1243
 1492SOL     OW 6407   3.973   7.844   4.219  0.3956  0.1941 -0.2076
 1492SOL    HW1 6408   4.016   7.839   4.305 -0.5921 -0.0002  0.2918
 1492SOL    HW2 6409   3.881   7.828   4.238  0.4539 -2.4774 -1.6005
 1493SOL     OW 6410   0.945   5.427   0.383  0.2911  0.0756  0.2591
 1493SOL    HW1 6411   0.967   5.390   0.297  1.1760 -0.1038  0.5502
 1493SOL    HW2 6412   0.876   5.370   0.417  1.6356 -1.3586  0.7033
 1494SOL     OW 6413   1.148   8.388   5.347 -0.0437  0.5394 -0.5755
 1494SOL    HW1 6414   1.112   8.467   5.388  0.3377  0.6477 -0.4421
 1494SOL    HW2 6415   1.130   8.398   5.254 -0.0204  0.7733 -0.5548
 1495SOL     OW 6416   4.694   6.363   0.359  0.0049  0.1175 -0.4679
 1495SOL    HW1 6417   4.677   6.359   0.453 -0.4588  0.6733 -0.5279
 1495SOL    HW2 6418   4.650   6.442   0.330  1.8153  1.0668 -0.8118
 1496SOL     OW 6419   8.331   6.521   8.189 -0.3372 -0.6194  0.0327
 1496SOL    HW1 6420   8.352   6.449   8.249  0.2528 -1.9629 -1.7127
 1496SOL    HW2 6421   8.371   6.495   8.106 -1.7557  0.8229 -1.1521
 1497SOL     OW 6422   8.839   7.661   2.683  0.2727 -0.0238  0.8859
 1497SOL    HW1 6423   8.792   7.600   2.739  0.1245 -1.2025 -0.4456
 1497SOL    HW2 6424   8.903   7.606   2.636  1.6375  1.2085  1.2175
 1498SOL     OW 6425   8.841   2.938   7.061 -0.3678 -0.2336  0.2185
 1498SOL    HW1 6426   8.924   2.891   7.070  0.3410  0.6832 -1.1833
 1498SOL    HW2 6427   8.811   2.916   6.973 -0.8293  0.6721  0.1454
 1499SOL     OW 6428   8.748   4.244   7.180 -0.5696  0.4404 -0.4417
 1499SOL    HW1 6429   8.842   4.258   7.188 -0.7524  1.6730 -0.2183
 1499SOL    HW2 6430   8.738   4.149   7.176  0.5983  0.2449  0.6200
 1500SOL     OW 6431   7.690   1.926   1.086  0.2465 -0.1854  0.4294
 1500SOL    HW1 6432   7.606   1.890   1.116 -1.0595  1.3542 -1.1867
 1500SOL    HW2 6433   7.735   1.951   1.167 -1.7955  0.9444  1.2785
 1501SOL     OW 6434   0.400   0.475   6.378 -0.0497  0.5051 -0.1881
 1501SOL    HW1 6435   0.404   0.381   6.357 -0.0899  0.6203 -0.7191
 1501SOL    HW2 6436   0.483   0.494   6.420 -1.1691 -0.4234  2.6983
 1502SOL     OW 6437   0.236   3.805   6.939  0.0492  0.2357  0.0861
 1502SOL    HW1 6438   0.237   3.711   6.922  1.1022  0.5312 -1.7119
 1502SOL    HW2 6439   0.203   3.844   6.858 -0.5693  1.4199  0.8751
 1503SOL     OW 6440   5.661   5.298   3.741  0.1730 -0.1862  0.2690
 1503SOL    HW1 6441   5.656   5.244   3.662 -0.7398  2.5754 -1.6966
 1503SOL    HW2 6442   5.755   5.309   3.756  0.3652 -1.4587  0.1406
 1504SOL     OW 6443   5.030   2.493   7.569 -0.2336  0.2362  0.1986
 1504SOL    HW1 6444   5.061   2.403   7.578  0.2523  0.5285  1.7352
 1504SOL    HW2 6445   4.937   2.484   7.549  0.0726 -0.6077 -0.9606
 1505SOL     OW 6446   8.554   5.493   8.156  0.3629  0.4058  0.5356
 1505SOL    HW1 6447   8.619   5.462   8.219 -0.8657  1.9087  2.6658
 1505SOL    HW2 6448   8.548   5.587   8.172 -2.8592  0.2270  1.0344
 1506SOL     OW 6449   2.776   1.735   8.171  0.2719 -0.5076 -0.2993
 1506SOL    HW1 6450   2.786   1.808   8.109 -3.1868  0.7428  0.3611
 1506SOL    HW2 6451   2.724   1.670   8.123 -1.2091 -0.1453  0.7311
 1507SOL     OW 6452   4.659   7.844   5.219 -0.9933 -0.4761  0.2419
 1507SOL    HW1 6453   4.723   7.802   5.161 -0.1443  2.1634 -0.8713
 1507SOL    HW2 6454   4.581   7.788   5.213 -0.1759 -1.5107 -1.6969
 1508SOL     OW 6455   8.339   6.070   4.822 -0.1364  0.6519 -0.2755
 1508SOL    HW1 6456   8.339   6.065   4.918 -1.0731  1.6040 -0.2159
 1508SOL    HW2 6457   8.375   5.985   4.794 -3.1260 -1.1448  0.8468
 1509SOL     OW 6458   5.638   3.497   5.997 -0.5374  0.4992  0.0881
 1509SOL    HW1 6459   5.711   3.515   5.938 -0.4624  0.2300  0.0983
 1509SOL    HW2 6460   5.658   3.412   6.035 -0.3379  0.9047  0.8920
 1510SOL     OW 6461   3.772   3.343   0.371 -0.0925  0.1161  0.0128
 1510SOL    HW1 6462   3.827   3.419   0.389 -2.3826  2.4943 -2.3145
 1510SOL    HW2 6463   3.702   3.347   0.436  0.1357 -0.4119  0.2984
 1511SOL     OW 6464   2.529   3.705   3.227  0.0490  0.0661  0.8760
 1511SOL    HW1 6465   2.505   3.634   3.287 -0.7637 -0.1052  0.3689
 1511SOL    HW2 6466   2.505   3.673   3.141 -1.1373  1.2734  0.7197
 1512SOL     OW 6467   3.016   0.977   6.021  0.1113  0.2036  0.4742
 1512SOL    HW1 6468   3.081   0.995   6.088  1.1962  0.9392 -0.7199
 1512SOL    HW2 6469   2.932   0.995   6.063  0.7260  0.1713  1.7600
 1513SOL     OW 6470   8.508   5.986   2.721  0.0748 -0.4139  0.0454
 1513SOL    HW1 6471   8.517   6.081   2.710  0.4827 -0.3060  1.2115
 1513SOL    HW2 6472   8.493   5.953   2.632  0.2845  0.6965 -0.4178
 1514SOL     OW 6473   3.275   0.108   4.853  0.2594 -0.1588  0.3270
 1514SOL    HW1 6474   3.370   0.099   4.848  0.2387  0.0501 -0.7668
 1514SOL    HW2 6475   3.255   0.099   4.946  1.4119  0.4722  0.6567
 1515SOL     OW 6476   5.851   4.338   1.571  0.1269 -0.4447 -0.0451
 1515SOL    HW1 6477   5.921   4.370   1.515 -0.5155  1.1754  0.0183
 1515SOL    HW2 6478   5.781   4.314   1.510 -0.8610  2.0369  0.0231
 1516SOL     OW 6479   0.286   7.355   2.124  0.6173  0.2406  0.5082
 1516SOL    HW1 6480   0.265   7.448   2.111 -0.4296  0.0680  0.8537
 1516SOL    HW2 6481   0.254   7.312   2.044  0.3925  0.0696  0.6922
 1517SOL     OW 6482   5.299   4.223   4.286  0.3624  0.5530 -0.0010
 1517SOL    HW1 6483   5.286   4.255   4.375 -0.7725 -1.2375  0.5327
 1517SOL    HW2 6484   5.391   4.197   4.284  0.2856  0.1868  0.8059
 1518SOL     OW 6485   4.229   1.181   3.184 -0.1725 -0.0074  0.4240
 1518SOL    HW1 6486   4.318   1.158   3.156  0.1462  0.7442  0.7877
 1518SOL    HW2 6487   4.206   1.257   3.131 -1.3378 -1.2749 -0.9964
 1519SOL     OW 6488   6.179   5.916   0.577  0.0469  0.3859  0.2076
 1519SOL    HW1 6489   6.172   5.989   0.516  1.9049  1.8298  1.5969
 1519SOL    HW2 6490   6.134   5.844   0.533  0.4788  1.5905 -2.4352
 1520SOL     OW 6491   2.187   0.363   1.388  0.0094  0.1862  0.4803
 1520SOL    HW1 6492   2.180   0.449   1.429  1.2618 -0.3130  1.8753
 1520SOL    HW2 6493   2.178   0.301   1.461 -0.7968 -0.8773 -0.4781
 1521SOL     OW 6494   0.386   1.447   1.140  0.7407  0.4309 -0.0690
 1521SOL    HW1 6495   0.385   1.536   1.175  0.6966 -0.0039  1.0619
 1521SOL    HW2 6496   0.294   1.430   1.118  0.1096 -0.5038  2.8480
 1522SOL     OW 6497   2.129   0.650   0.150  0.0457  0.5969  0.3573
 1522SOL    HW1 6498   2.049   0.607   0.180 -1.2739  2.5409 -0.1364
 1522SOL    HW2 6499   2.175   0.584   0.098  0.0828 -1.3626  2.7172
 1523SOL     OW 6500   4.355   0.739   1.109  0.4250 -0.6445  0.1433
 1523SOL    HW1 6501   4.426   0.803   1.113  1.3425 -1.5631 -0.8386
 1523SOL    HW2 6502   4.371   0.680   1.183  0.3928 -0.5597  0.2181
 1524SOL     OW 6503   1.324   2.536   5.231 -0.5918 -0.2834 -0.2089
 1524SOL    HW1 6504   1.309   2.448   5.196 -0.6319 -0.7827  0.9839
 1524SOL    HW2 6505   1.419   2.545   5.233 -0.5850  0.5864 -2.3588
 1525SOL     OW 6506   5.659   2.025   6.257 -0.0201 -0.1620  0.0053
 1525SOL    HW1 6507   5.730   1.990   6.203  1.5930  1.6406  0.8313
 1525SOL    HW2 6508   5.693   2.024   6.346 -0.4095  2.0394  0.2505
 1526SOL     OW 6509   2.070   0.937   4.387 -0.1778  0.1706 -0.2937
 1526SOL    HW1 6510   2.165   0.950   4.382 -0.1871 -0.0973 -2.7191
 1526SOL    HW2 6511   2.035   0.990   4.315 -2.0238  1.1854  1.2546
 1527SOL     OW 6512   6.183   6.013   1.903 -0.0334 -0.4006 -0.1355
 1527SOL    HW1 6513   6.125   5.962   1.847 -0.6133 -1.2877  1.2093
 1527SOL    HW2 6514   6.168   5.978   1.991  1.4348  0.3822  0.4668
 1528SOL     OW 6515   8.837   8.391   4.923 -0.5461 -0.0415  0.4576
 1528SOL    HW1 6516   8.914   8.431   4.964  0.5057  0.2483 -1.6907
 1528SOL    HW2 6517   8.763   8.433   4.966  0.4969  1.4286  0.9159
 1529SOL     OW 6518   6.995   0.866   1.092 -0.2561  0.5354  0.1448
 1529SOL    HW1 6519   7.028   0.820   1.169  0.6863 -0.6881 -0.9296
 1529SOL    HW2 6520   7.067   0.862   1.029 -0.8805  1.7843 -0.6974
 1530SOL     OW 6521   0.484   1.518   8.664 -0.0577 -0.7435 -0.3106
 1530SOL    HW1 6522   0.450   1.444   8.613 -1.0568 -0.2792 -0.3380
 1530SOL    HW2 6523   0.457   1.595   8.614 -0.9042 -0.2867  0.8186
 1531SOL     OW 6524   7.028   4.124   3.024 -0.3160 -0.3428 -0.8312
 1531SOL    HW1 6525   6.961   4.187   3.050 -0.3795 -0.9583  0.6109
 1531SOL    HW2 6526   7.089   4.175   2.971 -0.3327  0.9733  0.3345
 1532SOL     OW 6527   0.270   0.756   7.668 -0.3692 -0.3867  0.9380
 1532SOL    HW1 6528   0.352   0.710   7.684  0.6586  1.2183  0.5239
 1532SOL    HW2 6529   0.294   0.849   7.667 -1.9625  0.0622 -0.5035
 1533SOL     OW 6530   2.304   1.801   5.154 -0.1375  0.2362 -0.1861
 1533SOL    HW1 6531   2.282   1.734   5.089 -2.2054  0.8468 -0.1887
 1533SOL    HW2 6532   2.246   1.874   5.133  0.3595  1.0846  1.3068
 1534SOL     OW 6533   8.308   2.030   7.532  0.1906  0.8664  0.4430
 1534SOL    HW1 6534   8.235   2.091   7.548 -0.6636 -0.1888  0.6822
 1534SOL    HW2 6535   8.374   2.084   7.489 -0.5136  1.9826  0.6975
 1535SOL     OW 6536   3.696   2.136   7.825 -0.4045 -0.2939  0.4931
 1535SOL    HW1 6537   3.655   2.108   7.743 -0.1719 -0.2860  0.3728
 1535SOL    HW2 6538   3.783   2.096   7.823  0.9792  2.4885 -0.9127
 1536SOL     OW 6539   1.591   7.117   2.327  0.1004 -0.0478  0.0692
 1536SOL    HW1 6540   1.514   7.084   2.374 -0.4385 -0.0192 -0.7679
 1536SOL    HW2 6541   1.652   7.142   2.396 -0.2664 -0.9498  0.7406
 1537SOL     OW 6542   8.289   2.473   2.325  0.6249  0.0787 -0.0210
 1537SOL    HW1 6543   8.347   2.538   2.286 -0.4040  2.0588  1.4998
 1537SOL    HW2 6544   8.334   2.446   2.405  1.5455 -1.9888 -1.1764
 1538SOL     OW 6545   4.513   6.269   1.267 -0.0097  0.2163  0.0202
 1538SOL    HW1 6546   4.550   6.199   1.320 -0.7044 -0.7402 -0.7271
 1538SOL    HW2 6547   4.544   6.251   1.178 -2.5771 -0.8899 -0.7159
 1539SOL     OW 6548   5.534   2.833   6.107 -0.3581  0.1575 -0.4640
 1539SOL    HW1 6549   5.603   2.833   6.173 -0.6351 -0.1035 -0.1657
 1539SOL    HW2 6550   5.453   2.824   6.158 -0.5356 -0.6547 -0.8615
 1540SOL     OW 6551   7.465   7.788   6.639 -0.0543 -0.7149  0.0838
 1540SOL    HW1 6552   7.449   7.714   6.580 -0.2547 -1.4159  1.0071
 1540SOL    HW2 6553   7.384   7.839   6.636 -0.2301 -0.9954  0.1112
 1541SOL     OW 6554   2.332   0.297   0.190  0.4099 -0.7922 -0.3478
 1541SOL    HW1 6555   2.374   0.218   0.158  0.1791 -1.6567  1.3724
 1541SOL    HW2 6556   2.383   0.323   0.266  0.4560  0.7068 -0.8604
 1542SOL     OW 6557   7.250   6.948   0.397  0.3045 -0.4323  0.2170
 1542SOL    HW1 6558   7.283   6.932   0.485  0.8792  0.7456  0.2441
 1542SOL    HW2 6559   7.276   6.871   0.347  0.6689 -0.7543  0.8918
 1543SOL     OW 6560   8.712   6.700   4.702 -0.2686  0.1769 -0.7410
 1543SOL    HW1 6561   8.619   6.677   4.707  0.0703 -1.0943 -0.0424
 1543SOL    HW2 6562   8.742   6.662   4.619  0.4659 -2.7321  0.7532
 1544SOL     OW 6563   5.949   4.987   5.551 -0.1839 -0.7215 -0.2325
 1544SOL    HW1 6564   6.001   4.985   5.471  0.5612 -0.9799  0.2466
 1544SOL    HW2 6565   5.899   4.906   5.549 -0.7824 -0.3446 -0.8295
 1545SOL     OW 6566   2.036   8.526   0.325 -0.2259 -0.3111  0.1953
 1545SOL    HW1 6567   2.063   8.435   0.337 -2.4111 -1.2195 -1.1273
 1545SOL    HW2 6568   1.965   8.539   0.388 -0.9055 -0.0206 -0.5969
 1546SOL     OW 6569   8.682   3.210   0.837 -0.1537  0.1987  0.1660
 1546SOL    HW1 6570   8.756   3.234   0.781 -0.5643  1.2135  0.0391
 1546SOL    HW2 6571   8.648   3.293   0.869  0.1497 -0.3549  2.0477
 1547SOL     OW 6572   5.573   7.085   6.552 -0.2148 -0.2490 -0.3853
 1547SOL    HW1 6573   5.513   7.120   6.618 -0.8500  1.5143 -1.8023
 1547SOL    HW2 6574   5.655   7.132   6.567 -0.5923  0.7254 -1.3068
 1548SOL     OW 6575   6.681   1.776   5.411  0.0444 -0.1990  0.3926
 1548SOL    HW1 6576   6.754   1.721   5.439  0.2052  0.2760  0.8980
 1548SOL    HW2 6577   6.681   1.767   5.315  1.2570  0.4086  0.3085
 1549SOL     OW 6578   5.819   8.788   3.052  0.1797  0.5484  0.4647
 1549SOL    HW1 6579   5.895   8.740   3.019  0.2434 -0.0251  1.3886
 1549SOL    HW2 6580   5.843   8.880   3.045  0.7930  0.3828  0.3556
 1550SOL     OW 6581   2.207   0.766   8.043  0.0792  0.2744  0.4465
 1550SOL    HW1 6582   2.254   0.819   8.107  0.8744  0.8091 -0.5477
 1550SOL    HW2 6583   2.116   0.798   8.047  0.7272  2.5207 -0.8811
 1551SOL     OW 6584   4.637   3.276   8.167 -0.2323  0.1198 -0.8342
 1551SOL    HW1 6585   4.719   3.227   8.162  0.2293  0.7499  0.1694
 1551SOL    HW2 6586   4.569   3.209   8.169  0.3254 -0.4490 -0.6050
 1552SOL     OW 6587   7.695   7.100   7.350  0.3330  0.2547  0.0564
 1552SOL    HW1 6588   7.600   7.093   7.357  0.3761 -1.1841 -0.5190
 1552SOL    HW2 6589   7.711   7.118   7.258  0.7187 -2.4921 -0.4744
 1553SOL     OW 6590   0.608   7.846   6.915 -0.1138 -0.5205  0.1060
 1553SOL    HW1 6591   0.546   7.782   6.880 -0.8206 -0.6785  1.5836
 1553SOL    HW2 6592   0.605   7.834   7.010  0.2144  1.2464  0.3856
 1554SOL     OW 6593   2.628   4.958   4.613  0.3946  0.2412 -0.5517
 1554SOL    HW1 6594   2.604   4.870   4.642  0.3457  0.4223 -0.0259
 1554SOL    HW2 6595   2.647   5.006   4.694 -0.6461  1.0212 -0.7470
 1555SOL     OW 6596   6.530   8.744   1.093  0.1452 -0.2705  0.2837
 1555SOL    HW1 6597   6.560   8.835   1.100 -1.5527  0.2793  0.9404
 1555SOL    HW2 6598   6.606   8.696   1.060  0.8849  1.5000 -0.7300
 1556SOL     OW 6599   2.168   5.609   8.691  0.0025  0.3720  0.2275
 1556SOL    HW1 6600   2.235   5.583   8.754  1.0304  0.3905 -0.8179
 1556SOL    HW2 6601   2.092   5.556   8.714  0.9822 -1.0950  0.2601
 1557SOL     OW 6602   5.267   1.980   4.249 -0.4062  0.0372 -0.3409
 1557SOL    HW1 6603   5.278   1.922   4.324 -0.2797 -0.6412 -0.8690
 1557SOL    HW2 6604   5.174   2.000   4.247 -0.5517 -0.6214 -0.4843
 1558SOL     OW 6605   8.128   1.389   4.277 -0.3248 -0.1389  0.0309
 1558SOL    HW1 6606   8.060   1.452   4.254  0.7192  0.8264 -0.4883
 1558SOL    HW2 6607   8.091   1.339   4.350 -2.0107 -0.3919 -0.9560
 1559SOL     OW 6608   5.828   2.729   0.897  0.1674  0.4072  0.3168
 1559SOL    HW1 6609   5.863   2.653   0.941  0.9115  1.0896  0.9332
 1559SOL    HW2 6610   5.825   2.797   0.964 -0.5171  0.9167 -0.2069
 1560SOL     OW 6611   5.251   1.448   1.388 -0.1400  0.0904 -0.0329
 1560SOL    HW1 6612   5.266   1.535   1.425 -0.0308 -0.8189  2.1972
 1560SOL    HW2 6613   5.178   1.461   1.327 -1.6139  1.3930  1.8667
 1561SOL     OW 6614   6.011   0.216   5.405  0.6126  0.3969 -0.2616
 1561SOL    HW1 6615   5.979   0.306   5.419 -0.7869  0.0268 -0.8834
 1561SOL    HW2 6616   6.018   0.179   5.493 -0.0942  0.7127 -0.0606
 1562SOL     OW 6617   5.452   0.499   6.909 -0.3249  0.6248 -0.1769
 1562SOL    HW1 6618   5.363   0.521   6.882  0.3494  1.2243 -2.0563
 1562SOL    HW2 6619   5.484   0.578   6.953 -0.8286  0.2757  0.8396
 1563SOL     OW 6620   3.442   4.009   8.254  0.1094 -0.4699  0.2607
 1563SOL    HW1 6621   3.414   4.040   8.341 -2.0772  3.1231 -1.4704
 1563SOL    HW2 6622   3.396   3.926   8.242 -2.6063  0.7942  1.1868
 1564SOL     OW 6623   4.257   5.821   0.857  0.2838 -0.2893 -0.9490
 1564SOL    HW1 6624   4.325   5.868   0.906  0.0191  0.9314 -1.6974
 1564SOL    HW2 6625   4.286   5.824   0.766 -0.7741  0.2875 -1.2882
 1565SOL     OW 6626   8.853   0.732   4.037  0.4105 -0.6402 -0.4407
 1565SOL    HW1 6627   8.775   0.720   3.984 -0.0635 -1.0603  0.3368
 1565SOL    HW2 6628   8.853   0.825   4.059  0.4515 -0.5226 -0.9194
 1566SOL     OW 6629   1.965   0.836   3.666 -0.0690  0.5051  0.1416
 1566SOL    HW1 6630   1.918   0.884   3.734  0.1316 -1.8837  2.0653
 1566SOL    HW2 6631   1.898   0.782   3.623  0.2379  0.0926  0.1762
 1567SOL     OW 6632   6.621   4.173   0.515 -0.3430 -0.1110  0.7196
 1567SOL    HW1 6633   6.633   4.200   0.424  1.3849 -0.1387  0.9071
 1567SOL    HW2 6634   6.547   4.225   0.545 -0.5727  0.3324 -0.5361
 1568SOL     OW 6635   6.952   4.449   8.547 -0.3797 -0.2120  0.0896
 1568SOL    HW1 6636   6.976   4.488   8.631 -2.7983  3.5850 -0.7220
 1568SOL    HW2 6637   6.858   4.431   8.555 -0.2355 -1.7915 -1.1754
 1569SOL     OW 6638   0.716   6.376   5.966 -0.3174 -0.0699 -0.0105
 1569SOL    HW1 6639   0.634   6.384   5.917  0.2240  0.9457 -0.7979
 1569SOL    HW2 6640   0.689   6.349   6.053 -1.2537 -2.6432 -1.0215
 1570SOL     OW 6641   0.127   2.091   2.162  0.3313  0.9120 -0.0329
 1570SOL    HW1 6642   0.070   2.151   2.115  1.7965  1.3729 -1.3365
 1570SOL    HW2 6643   0.158   2.141   2.238  1.4535  1.8367 -1.0462
 1571SOL     OW 6644   2.885   0.842   8.656 -0.2882  0.1623 -0.2690
 1571SOL    HW1 6645   2.877   0.899   8.733 -2.5017  0.2110 -0.4651
 1571SOL    HW2 6646   2.801   0.796   8.652  0.4472 -1.1563 -1.6577
 1572SOL     OW 6647   8.688   4.759   2.811  0.1370 -0.5615  0.6771
 1572SOL    HW1 6648   8.735   4.842   2.820 -1.0680  0.3519 -0.9368
 1572SOL    HW2 6649   8.756   4.692   2.817  1.1743  0.5271  1.7606
 1573SOL     OW 6650   0.721   6.933   8.497  0.2049  0.4171  0.1626
 1573SOL    HW1 6651   0.737   6.885   8.578 -2.1344  1.0804  1.1084
 1573SOL    HW2 6652   0.797   6.990   8.487  1.2868 -0.8362  1.0009
 1574SOL     OW 6653   6.655   4.599   8.634 -0.3467 -0.0766 -1.0031
 1574SOL    HW1 6654   6.693   4.681   8.603 -0.4989  0.2261 -0.3851
 1574SOL    HW2 6655   6.585   4.625   8.693 -1.1299 -0.6443 -1.6643
 1575SOL     OW 6656   0.000   2.401   8.250  0.0219 -0.4431 -0.2387
 1575SOL    HW1 6657   0.004   2.342   8.175  0.8038 -0.4863 -0.1749
 1575SOL    HW2 6658   0.001   2.342   8.326 -1.7298 -0.4462 -0.1797
 1576SOL     OW 6659   2.013   4.427   4.383 -0.2790 -0.0439  0.1784
 1576SOL    HW1 6660   2.100   4.452   4.415 -0.1918 -0.4736  0.2859
 1576SOL    HW2 6661   1.970   4.387   4.460 -0.0028 -1.2565 -0.2746
 1577SOL     OW 6662   7.516   7.319   7.739  0.2173  0.4531  0.0088
 1577SOL    HW1 6663   7.495   7.401   7.783 -0.0990  0.4516 -0.1400
 1577SOL    HW2 6664   7.602   7.333   7.700 -0.3520  1.1159 -1.0259
 1578SOL     OW 6665   2.488   4.645   7.791  0.4348  0.3582  0.2213
 1578SOL    HW1 6666   2.395   4.626   7.804  0.7049 -0.9777  0.3813
 1578SOL    HW2 6667   2.494   4.677   7.701 -0.0155 -0.8417 -0.2575
 1579SOL     OW 6668   6.803   6.760   1.347  0.4462 -0.0600 -0.3924
 1579SOL    HW1 6669   6.774   6.681   1.392  4.0916 -0.8458  0.9138
 1579SOL    HW2 6670   6.774   6.748   1.257  0.5857 -2.7560 -0.1533
 1580SOL     OW 6671   5.424   1.001   4.841 -0.5127  0.0995  0.2453
 1580SOL    HW1 6672   5.368   1.065   4.797  1.2774  0.1889 -2.1195
 1580SOL    HW2 6673   5.385   0.916   4.821  0.1062  0.1606 -1.3578
 1581SOL     OW 6674   6.786   1.010   1.011  0.4323  0.1734  0.5536
 1581SOL    HW1 6675   6.712   0.975   1.061 -0.4856 -0.9551 -1.4629
 1581SOL    HW2 6676   6.862   0.961   1.043 -0.6065 -2.7735 -1.1837
 1582SOL     OW 6677   1.739   5.002   7.307  0.5632 -0.2183 -0.4002
 1582SOL    HW1 6678   1.692   5.029   7.228  2.6731  1.3985 -1.2081
 1582SOL    HW2 6679   1.761   4.910   7.292  1.1343  0.1242 -1.8358
 1583SOL     OW 6680   5.053   0.556   8.247 -0.3481  0.5635 -0.1450
 1583SOL    HW1 6681   5.070   0.462   8.244 -0.1821  0.5658  0.5674
 1583SOL    HW2 6682   5.084   0.583   8.333 -1.1746  1.1193 -0.0140
 1584SOL     OW 6683   5.763   2.450   2.919  0.1968  0.0775  0.0005
 1584SOL    HW1 6684   5.731   2.430   3.007 -0.6320 -0.9663 -0.5084
 1584SOL    HW2 6685   5.698   2.510   2.883  0.0366 -0.2197 -0.2139
 1585SOL     OW 6686   6.521   3.707   4.102 -0.5215 -0.0761  0.3365
 1585SOL    HW1 6687   6.484   3.794   4.084 -2.0438 -0.6017  0.7401
 1585SOL    HW2 6688   6.457   3.666   4.160  0.0706 -1.5404 -0.0099
 1586SOL     OW 6689   2.396   4.049   7.376  0.0756  0.0214  0.2026
 1586SOL    HW1 6690   2.469   4.103   7.407  0.7315 -1.2770  0.9756
 1586SOL    HW2 6691   2.431   4.001   7.301  0.1435 -0.8575  0.7834
 1587SOL     OW 6692   7.855   8.726   6.734 -0.6880 -0.6707  0.4646
 1587SOL    HW1 6693   7.933   8.699   6.783 -0.1728  0.0540  0.0557
 1587SOL    HW2 6694   7.839   8.816   6.762 -0.7537 -0.4594 -0.2483
 1588SOL     OW 6695   8.208   4.368   4.638  0.3680 -0.0195 -0.0018
 1588SOL    HW1 6696   8.227   4.392   4.548 -2.7418 -1.3982 -1.1954
 1588SOL    HW2 6697   8.134   4.424   4.662 -2.6602 -3.4291 -0.5261
 1589SOL     OW 6698   5.695   3.267   3.834 -0.5247  0.0746 -0.0683
 1589SOL    HW1 6699   5.651   3.320   3.900 -1.2072 -1.3119  0.6235
 1589SOL    HW2 6700   5.660   3.299   3.751  0.7200  2.1921  0.1353
 1590SOL     OW 6701   0.268   4.576   0.551  0.0818 -0.3434 -0.2599
 1590SOL    HW1 6702   0.312   4.636   0.491 -2.0322  0.3341 -1.2641
 1590SOL    HW2 6703   0.323   4.498   0.551  0.7764  0.0678 -2.2062
 1591SOL     OW 6704   4.701   8.054   1.234 -0.0140 -0.2165  0.0810
 1591SOL    HW1 6705   4.774   8.019   1.184  0.0671  1.0897 -0.7785
 1591SOL    HW2 6706   4.702   8.148   1.215  0.7493  0.5906  3.4598
 1592SOL     OW 6707   2.224   6.217   3.920  0.4933  0.3585 -0.2610
 1592SOL    HW1 6708   2.156   6.152   3.901  0.4139  0.1433  0.6865
 1592SOL    HW2 6709   2.184   6.301   3.896 -0.4086  0.3148  0.9736
 1593SOL     OW 6710   5.556   0.171   8.527 -0.1434 -0.1016 -0.1278
 1593SOL    HW1 6711   5.583   0.083   8.502  0.1751  0.2330 -0.9839
 1593SOL    HW2 6712   5.514   0.207   8.449  0.3652  0.7589 -0.0230
 1594SOL     OW 6713   6.585   0.572   0.691 -0.1124  0.0732 -0.1503
 1594SOL    HW1 6714   6.490   0.581   0.683 -0.7414 -2.6242  2.3967
 1594SOL    HW2 6715   6.607   0.497   0.637  0.5553  0.4694 -0.4441
 1595SOL     OW 6716   5.656   4.912   0.409  0.1592 -0.3818  0.3079
 1595SOL    HW1 6717   5.720   4.878   0.346 -0.4082 -0.4853 -0.2251
 1595SOL    HW2 6718   5.590   4.954   0.355 -0.3912 -0.5592  0.8395
 1596SOL     OW 6719   7.441   2.353   7.734  0.4056  0.0298  0.2124
 1596SOL    HW1 6720   7.372   2.288   7.742 -0.1696  0.7721  1.5096
 1596SOL    HW2 6721   7.402   2.423   7.683 -0.3304  1.0880  2.1406
 1597SOL     OW 6722   2.019   1.019   1.958 -0.4093  0.6854 -0.4169
 1597SOL    HW1 6723   1.984   0.972   1.882 -1.7537  1.3545 -0.2270
 1597SOL    HW2 6724   2.041   1.106   1.924 -3.1662  1.7979  0.3625
 1598SOL     OW 6725   0.447   3.361   5.145  0.1119  0.8529 -0.5884
 1598SOL    HW1 6726   0.367   3.413   5.146 -0.5807 -0.1138 -1.9351
 1598SOL    HW2 6727   0.486   3.378   5.059 -0.0771 -0.7217 -1.0252
 1599SOL     OW 6728   0.241   2.673   0.419 -0.6169  0.2690  0.0675
 1599SOL    HW1 6729   0.166   2.707   0.467 -0.0218  0.4988  0.8595
 1599SOL    HW2 6730   0.222   2.692   0.327 -2.0932 -0.7797  0.1272
 1600SOL     OW 6731   7.028   5.507   1.671  0.4796 -0.1290 -0.1225
 1600SOL    HW1 6732   6.969   5.579   1.694 -0.1361 -1.0236  1.2316
 1600SOL    HW2 6733   7.103   5.550   1.631  0.2527  1.3100  0.8981
 1601SOL     OW 6734   2.818   8.494   7.386 -0.8951 -0.3078  0.2355
 1601SOL    HW1 6735   2.809   8.442   7.306 -0.4998  0.9259 -0.6472
 1601SOL    HW2 6736   2.817   8.430   7.457 -0.8832 -1.4672 -0.7796
 1602SOL     OW 6737   0.071   8.778   6.221  0.3969 -0.3116  0.6538
 1602SOL    HW1 6738   0.114   8.819   6.296 -1.2487  1.0387  0.9040
 1602SOL    HW2 6739   0.090   8.836   6.147 -0.8690  0.2564  0.7498
 1603SOL     OW 6740   0.076   1.053   1.705  0.2873  0.6356  0.1595
 1603SOL    HW1 6741   0.043   1.093   1.785  0.0105  0.8931 -0.0805
 1603SOL    HW2 6742   0.120   0.973   1.734 -1.1742 -0.0991  0.4293
 1604SOL     OW 6743   8.730   2.958   2.280  0.3282  0.2028  0.1384
 1604SOL    HW1 6744   8.694   3.014   2.211  0.5848  0.6185  0.3390
 1604SOL    HW2 6745   8.803   3.008   2.315  0.3206 -0.0961  0.5822
 1605SOL     OW 6746   3.429   0.568   2.711  0.0612 -0.3050 -0.1389
 1605SOL    HW1 6747   3.397   0.542   2.625  0.7041  2.7467 -1.4382
 1605SOL    HW2 6748   3.513   0.611   2.693  0.3405  0.1800  2.0525
 1606SOL     OW 6749   4.150   8.768   5.807 -0.0020  0.2919 -0.1940
 1606SOL    HW1 6750   4.234   8.810   5.822  0.3367 -0.7804  0.9749
 1606SOL    HW2 6751   4.085   8.834   5.833  0.5285 -0.3116  3.0112
 1607SOL     OW 6752   6.788   2.028   3.921  0.0904  0.3008 -0.1849
 1607SOL    HW1 6753   6.788   1.932   3.915  0.6370  0.2736  0.1833
 1607SOL    HW2 6754   6.695   2.051   3.931 -0.1721 -0.1036 -1.4221
 1608SOL     OW 6755   5.895   0.885   2.608  0.3289  0.3070 -0.1239
 1608SOL    HW1 6756   5.954   0.850   2.675 -0.5298  1.5515  1.3620
 1608SOL    HW2 6757   5.871   0.972   2.640 -1.9978  0.0109 -0.8244
 1609SOL     OW 6758   0.767   8.459   5.384 -0.1338  0.4833  0.3545
 1609SOL    HW1 6759   0.843   8.517   5.379  0.0818  0.2282  0.6011
 1609SOL    HW2 6760   0.780   8.397   5.312  0.6835 -0.4822  1.2917
 1610SOL     OW 6761   8.112   4.271   6.182 -0.4041  0.4970 -0.3128
 1610SOL    HW1 6762   8.044   4.212   6.149 -0.1332  0.0392 -0.0652
 1610SOL    HW2 6763   8.165   4.291   6.105 -0.9856  1.0959 -0.5708
 1611SOL     OW 6764   3.635   3.148   7.183 -0.2502  0.2625  0.1659
 1611SOL    HW1 6765   3.725   3.143   7.216  0.2473 -0.1071 -1.1704
 1611SOL    HW2 6766   3.603   3.233   7.214  1.5093  1.6403 -1.4844
 1612SOL     OW 6767   5.605   3.679   3.246 -0.5702  0.0526 -0.0473
 1612SOL    HW1 6768   5.535   3.657   3.308 -1.7242 -0.7742 -1.5579
 1612SOL    HW2 6769   5.611   3.602   3.189  0.8608  0.5422 -0.5960
 1613SOL     OW 6770   8.553   2.907   1.045 -0.0273  0.1533  0.7964
 1613SOL    HW1 6771   8.500   2.827   1.041  0.7876 -0.3575 -0.6076
 1613SOL    HW2 6772   8.531   2.954   0.964 -0.7245  1.5220  1.7505
 1614SOL     OW 6773   1.071   0.976   4.373  0.5615 -0.1021  0.4067
 1614SOL    HW1 6774   1.069   1.057   4.322 -1.1442 -0.1824  0.2995
 1614SOL    HW2 6775   1.044   0.908   4.312 -0.2769 -0.3819  1.0658
 1615SOL     OW 6776   3.182   4.003   4.040  0.1521 -0.0880 -0.4235
 1615SOL    HW1 6777   3.130   4.034   3.966 -0.8162  2.3662  1.1254
 1615SOL    HW2 6778   3.245   4.073   4.057  0.5846 -0.7360  0.8352
 1616SOL     OW 6779   6.593   8.657   8.614 -0.1906 -0.7635 -0.0949
 1616SOL    HW1 6780   6.684   8.632   8.628  0.0857  0.6375  0.8525
 1616SOL    HW2 6781   6.586   8.745   8.651 -2.0767 -1.0677  0.4169
 1617SOL     OW 6782   5.736   4.821   0.661 -0.2577 -0.1568 -0.3016
 1617SOL    HW1 6783   5.827   4.804   0.640 -0.0515  0.0172  0.4081
 1617SOL    HW2 6784   5.705   4.878   0.591 -0.0668 -0.8949 -0.9998
 1618SOL     OW 6785   8.436   5.279   3.784  0.2879  0.4170 -0.1925
 1618SOL    HW1 6786   8.482   5.338   3.844 -0.8336  0.1374  0.9637
 1618SOL    HW2 6787   8.344   5.291   3.804 -0.0439 -0.5039 -1.0994
 1619SOL     OW 6788   4.381   3.829   1.773 -0.6235 -0.5307  0.1155
 1619SOL    HW1 6789   4.402   3.853   1.682  2.7700 -0.7089  0.7136
 1619SOL    HW2 6790   4.357   3.911   1.815  0.3811  0.0168 -0.3458
 1620SOL     OW 6791   0.811   2.826   8.285  0.1820  0.0910  0.2334
 1620SOL    HW1 6792   0.765   2.909   8.296  0.6889  0.5502 -0.9581
 1620SOL    HW2 6793   0.865   2.838   8.207 -1.3430 -2.0459 -1.3134
 1621SOL     OW 6794   0.601   6.815   1.325  0.8301  0.2798 -0.3242
 1621SOL    HW1 6795   0.539   6.855   1.386  0.1160  1.4566 -1.7382
 1621SOL    HW2 6796   0.547   6.760   1.269  1.5474 -1.1853  0.3686
 1622SOL     OW 6797   3.815   1.101   7.901  0.3382  0.0537  0.1863
 1622SOL    HW1 6798   3.773   1.143   7.825  0.1803 -1.9970 -0.9267
 1622SOL    HW2 6799   3.778   1.013   7.904  3.4409 -1.4039 -0.0124
 1623SOL     OW 6800   4.431   3.122   8.559  0.3060  0.4293 -0.3230
 1623SOL    HW1 6801   4.392   3.068   8.627  1.9981 -0.9347 -0.3582
 1623SOL    HW2 6802   4.363   3.130   8.492 -0.5132 -0.3353  0.4019
 1624SOL     OW 6803   2.149   6.668   1.449  1.2496  0.5672  0.5480
 1624SOL    HW1 6804   2.193   6.745   1.487 -1.2552  1.8387  1.0871
 1624SOL    HW2 6805   2.157   6.600   1.517  1.5838  1.0762  1.0283
 1625SOL     OW 6806   4.182   8.460   2.496  0.4437 -0.3501 -0.1564
 1625SOL    HW1 6807   4.201   8.526   2.562  0.8025 -0.6249  0.0205
 1625SOL    HW2 6808   4.160   8.509   2.417  0.6788 -0.0198 -0.0165
 1626SOL     OW 6809   4.511   1.702   3.045  0.6992 -0.0919 -0.5401
 1626SOL    HW1 6810   4.435   1.666   3.000  0.7612  0.2176 -0.9038
 1626SOL    HW2 6811   4.490   1.795   3.056  1.3776  0.1871 -1.4293
 1627SOL     OW 6812   1.602   4.555   4.846 -0.2444 -0.0301 -0.0291
 1627SOL    HW1 6813   1.654   4.539   4.925  0.3283  0.4486 -0.2954
 1627SOL    HW2 6814   1.542   4.625   4.871 -0.8366 -0.6516  0.3081
 1628SOL     OW 6815   7.510   2.929   4.597  0.0242  0.3298 -0.1322
 1628SOL    HW1 6816   7.581   2.977   4.640 -0.9398  1.4059  0.3299
 1628SOL    HW2 6817   7.549   2.897   4.516  0.6684  2.1857 -0.6214
 1629SOL     OW 6818   3.720   0.592   3.569  0.8348 -0.1667 -0.5456
 1629SOL    HW1 6819   3.676   0.545   3.639  2.1236 -1.9293 -0.8585
 1629SOL    HW2 6820   3.750   0.673   3.610 -0.8043  0.1087  0.1953
 1630SOL     OW 6821   4.695   4.726   8.714 -0.2283 -0.5696  0.4883
 1630SOL    HW1 6822   4.637   4.802   8.715  2.5433  1.7471 -0.4889
 1630SOL    HW2 6823   4.738   4.728   8.800  0.7781 -0.2018 -0.0066
 1631SOL     OW 6824   8.149   8.052   8.639  0.4066 -0.2527 -0.3712
 1631SOL    HW1 6825   8.144   8.137   8.595  0.3849 -0.2474 -0.3581
 1631SOL    HW2 6826   8.196   7.996   8.577  0.4678 -0.2170 -0.3570
 1632SOL     OW 6827   3.520   1.878   4.316 -0.1076 -0.2263 -0.3376
 1632SOL    HW1 6828   3.580   1.805   4.305 -0.2819 -0.3318 -0.6144
 1632SOL    HW2 6829   3.437   1.838   4.342  0.0957 -0.0352  0.6563
 1633SOL     OW 6830   8.110   5.969   1.340 -0.2327  0.4351  0.3406
 1633SOL    HW1 6831   8.062   6.020   1.405  1.3692  0.0226  1.9117
 1633SOL    HW2 6832   8.194   5.950   1.381  0.4135 -0.7966 -1.4328
 1634SOL     OW 6833   3.257   3.582   5.397  0.2196  0.4968  0.1737
 1634SOL    HW1 6834   3.217   3.557   5.314  0.3040 -0.7931  0.4986
 1634SOL    HW2 6835   3.281   3.674   5.386 -2.6510  1.3270 -0.1223
 1635SOL     OW 6836   1.603   1.371   2.312  0.0600  0.0070 -0.1791
 1635SOL    HW1 6837   1.648   1.375   2.396 -0.8673 -0.4094  0.3494
 1635SOL    HW2 6838   1.511   1.381   2.333 -0.1957 -0.1791 -1.1438
 1636SOL     OW 6839   0.406   4.625   1.696 -0.1793 -0.5542  0.2651
 1636SOL    HW1 6840   0.451   4.555   1.649  1.7420  1.1883 -0.6389
 1636SOL    HW2 6841   0.431   4.705   1.650 -0.4420  0.9823  2.6047
 1637SOL     OW 6842   4.024   5.339   6.816  0.0810  0.2986  0.0153
 1637SOL    HW1 6843   3.960   5.325   6.886 -1.9122 -1.3160 -1.9650
 1637SOL    HW2 6844   4.041   5.251   6.782 -0.8735  1.1269 -2.9906
 1638SOL     OW 6845   4.883   3.365   5.420 -0.7583 -0.4693  0.1863
 1638SOL    HW1 6846   4.879   3.281   5.466 -0.0960 -1.6617 -1.8067
 1638SOL    HW2 6847   4.964   3.361   5.370 -0.3831  1.6703  0.5286
 1639SOL     OW 6848   1.417   8.677   2.570 -0.2596  0.0591 -0.2188
 1639SOL    HW1 6849   1.508   8.656   2.546 -0.1755  0.7519 -0.5276
 1639SOL    HW2 6850   1.370   8.594   2.560 -0.0180  0.0705 -1.8025
 1640SOL     OW 6851   5.709   2.206   1.067  0.1207  0.1002 -0.1230
 1640SOL    HW1 6852   5.654   2.284   1.053 -0.4832 -0.5420 -1.5973
 1640SOL    HW2 6853   5.714   2.196   1.162 -0.6133  1.3683  0.0646
 1641SOL     OW 6854   7.478   4.222   5.501  0.0681  0.1016 -0.3200
 1641SOL    HW1 6855   7.418   4.279   5.452 -0.0411  1.0321  0.8510
 1641SOL    HW2 6856   7.429   4.140   5.512 -0.3796  0.3131 -0.7039
 1642SOL     OW 6857   2.587   7.981   3.693  0.6546  0.4264 -0.0936
 1642SOL    HW1 6858   2.667   7.990   3.641 -0.2876 -0.2540 -1.7588
 1642SOL    HW2 6859   2.531   8.053   3.665  0.2786  0.2815  0.2684
 1643SOL     OW 6860   3.522   3.273   6.686 -0.1799  0.0608 -0.1368
 1643SOL    HW1 6861   3.551   3.249   6.774 -0.5036  1.3664  0.3502
 1643SOL    HW2 6862   3.450   3.335   6.700  1.3936  2.2823 -1.2616
 1644SOL     OW 6863   8.640   5.966   7.776 -0.2589 -0.1092  0.4885
 1644SOL    HW1 6864   8.614   5.884   7.819 -0.1809 -1.7473 -2.3521
 1644SOL    HW2 6865   8.656   6.027   7.848  1.7394 -3.1655  2.8758
 1645SOL     OW 6866   8.765   1.729   5.719  0.7501  0.0527 -0.0202
 1645SOL    HW1 6867   8.715   1.739   5.638  0.0020  0.2022  0.4506
 1645SOL    HW2 6868   8.706   1.762   5.787  1.9189  1.3299  0.4251
 1646SOL     OW 6869   7.885   0.107   5.383 -0.2597 -0.1481  0.0985
 1646SOL    HW1 6870   7.791   0.109   5.398 -0.3181 -1.9081  0.1658
 1646SOL    HW2 6871   7.894   0.093   5.289 -0.0223  0.9068 -0.0560
 1647SOL     OW 6872   2.014   7.574   4.118 -0.3444 -0.1816 -0.1240
 1647SOL    HW1 6873   1.941   7.561   4.179  0.2511 -0.9437  0.4557
 1647SOL    HW2 6874   2.080   7.511   4.147 -0.3446 -1.1247 -2.0428
 1648SOL     OW 6875   3.823   4.949   3.440  0.1971 -0.6393 -0.2665
 1648SOL    HW1 6876   3.802   4.867   3.485 -0.0932 -0.2915  0.2396
 1648SOL    HW2 6877   3.900   4.982   3.488 -0.4678  0.0259  0.3578
 1649SOL     OW 6878   6.619   3.758   7.259  0.1301  0.1512  0.1561
 1649SOL    HW1 6879   6.546   3.812   7.228 -0.0544 -1.1112 -1.7874
 1649SOL    HW2 6880   6.597   3.738   7.350 -1.1190  1.1429  0.1036
 1650SOL     OW 6881   8.422   1.553   4.640 -0.0716  0.2749 -0.4050
 1650SOL    HW1 6882   8.404   1.548   4.546 -0.4510  0.1739 -0.3293
 1650SOL    HW2 6883   8.335   1.549   4.681  0.1724 -2.2081  0.0498
 1651SOL     OW 6884   0.764   4.011   5.158 -0.3020  0.4969 -0.0980
 1651SOL    HW1 6885   0.826   3.960   5.209  2.0819  2.3711 -0.9000
 1651SOL    HW2 6886   0.746   3.957   5.081 -0.3994 -0.4720  0.5989
 1652SOL     OW 6887   3.246   4.874   3.637 -0.5711 -0.3554 -0.1504
 1652SOL    HW1 6888   3.233   4.927   3.716 -2.2357  1.2833 -1.4144
 1652SOL    HW2 6889   3.306   4.926   3.584 -0.8839 -0.5375 -0.6937
 1653SOL     OW 6890   4.214   7.301   7.688  0.2644  0.2385  0.3957
 1653SOL    HW1 6891   4.302   7.298   7.727  0.6979 -0.1944 -0.6025
 1653SOL    HW2 6892   4.180   7.213   7.698 -0.2178  0.4987  1.1209
 1654SOL     OW 6893   5.114   3.167   1.209 -0.4147  0.8029 -0.6924
 1654SOL    HW1 6894   5.046   3.099   1.213  0.2548  0.1549  0.0889
 1654SOL    HW2 6895   5.134   3.187   1.301  0.6743  0.7399 -0.8994
 1655SOL     OW 6896   2.974   5.276   7.820  0.1996  0.1231  0.0230
 1655SOL    HW1 6897   3.006   5.186   7.806  0.8634  0.6073 -1.8160
 1655SOL    HW2 6898   3.022   5.329   7.757 -1.1371  1.5868  0.1676
 1656SOL     OW 6899   6.880   4.804   4.821  0.3617  0.2711  0.3826
 1656SOL    HW1 6900   6.971   4.784   4.845  0.4927 -0.2933 -0.5420
 1656SOL    HW2 6901   6.865   4.893   4.853  1.3251  0.4642  0.3122
 1657SOL     OW 6902   4.162   7.223   0.195 -0.0598  0.5657 -0.0520
 1657SOL    HW1 6903   4.071   7.195   0.183  0.1589  0.0694 -0.6203
 1657SOL    HW2 6904   4.181   7.205   0.287  0.3228 -1.9628 -0.5709
 1658SOL     OW 6905   1.416   7.268   2.110 -0.1206  0.0398 -0.4315
 1658SOL    HW1 6906   1.342   7.306   2.158 -0.9550 -0.3197 -1.3980
 1658SOL    HW2 6907   1.486   7.262   2.175 -1.3386 -0.8301  0.8590
 1659SOL     OW 6908   0.797   6.449   7.960  0.1648 -0.4094  0.1311
 1659SOL    HW1 6909   0.808   6.428   8.052  1.3948 -1.9279 -0.3218
 1659SOL    HW2 6910   0.827   6.371   7.914 -0.3992  0.3264 -1.5617
 1660SOL     OW 6911   7.162   2.050   8.405 -0.6551 -0.4771 -0.3117
 1660SOL    HW1 6912   7.095   2.095   8.354 -0.7239 -0.4262 -0.1781
 1660SOL    HW2 6913   7.158   2.091   8.492  0.2764  0.2659 -0.6022
 1661SOL     OW 6914   6.624   3.696   4.986 -0.2134 -0.4712  0.3610
 1661SOL    HW1 6915   6.595   3.657   4.903  0.1355 -0.3060  0.1602
 1661SOL    HW2 6916   6.569   3.773   4.997  0.7677  0.3908 -0.5055
 1662SOL     OW 6917   3.818   1.625   4.013  0.1200  0.0581 -0.1942
 1662SOL    HW1 6918   3.888   1.687   3.994  2.0692 -1.8487  0.3591
 1662SOL    HW2 6919   3.831   1.600   4.104 -1.3316 -0.3053 -0.0590
 1663SOL     OW 6920   4.339   3.778   2.821  0.4063 -0.0838  0.0701
 1663SOL    HW1 6921   4.342   3.738   2.908  1.7492 -0.3057 -0.0656
 1663SOL    HW2 6922   4.366   3.868   2.835  0.1152  0.0219 -0.0440
 1664SOL     OW 6923   6.807   1.269   4.043 -0.2428  0.5848  0.0713
 1664SOL    HW1 6924   6.774   1.180   4.055 -0.6627  0.9633  2.0801
 1664SOL    HW2 6925   6.732   1.325   4.061  0.8043  1.4008  2.2258
 1665SOL     OW 6926   0.459   6.639   2.308  0.1604 -0.0082 -0.0050
 1665SOL    HW1 6927   0.503   6.723   2.296 -1.6542  0.9300 -0.4262
 1665SOL    HW2 6928   0.384   6.642   2.248 -0.6692 -1.4011  0.8919
 1666SOL     OW 6929   1.325   2.570   6.142  0.0773  0.3951 -0.0465
 1666SOL    HW1 6930   1.381   2.623   6.087  0.3628  0.3694  0.2174
 1666SOL    HW2 6931   1.382   2.501   6.176  0.1605  0.9963  1.0950
 1667SOL     OW 6932   2.596   7.180   5.246  0.1041  0.2128  0.0768
 1667SOL    HW1 6933   2.657   7.239   5.201  0.3611  0.0694  0.2341
 1667SOL    HW2 6934   2.586   7.219   5.333 -0.5216  0.5824 -0.1504
 1668SOL     OW 6935   6.030   2.617   5.265 -0.2509  0.8702 -0.3803
 1668SOL    HW1 6936   6.015   2.574   5.181 -1.4991 -0.2384  0.3752
 1668SOL    HW2 6937   6.102   2.568   5.305 -0.7878  0.3197 -0.0853
 1669SOL     OW 6938   3.395   8.320   4.839  0.0145  0.2170  0.2678
 1669SOL    HW1 6939   3.485   8.314   4.809 -0.0808  0.3336 -0.0450
 1669SOL    HW2 6940   3.369   8.410   4.819  0.8681  1.2607  3.2851
 1670SOL     OW 6941   8.330   2.973   5.358  0.3052  0.0067 -0.0971
 1670SOL    HW1 6942   8.337   2.877   5.358  0.0142 -0.0144  0.3499
 1670SOL    HW2 6943   8.420   3.003   5.347  0.6425 -0.3055  1.6177
 1671SOL     OW 6944   7.184   0.442   4.993  0.5074 -0.1892  0.0987
 1671SOL    HW1 6945   7.206   0.429   4.901  1.6056 -0.7218  0.4136
 1671SOL    HW2 6946   7.121   0.373   5.014  0.6152 -0.3546 -0.1305
 1672SOL     OW 6947   5.872   4.612   7.937 -0.2673 -0.4856  0.3412
 1672SOL    HW1 6948   5.952   4.661   7.954 -0.2898 -0.3020 -0.0962
 1672SOL    HW2 6949   5.814   4.637   8.009 -0.2809  0.1297  0.1208
 1673SOL     OW 6950   8.857   8.186   1.224 -0.2798 -0.9412  0.4763
 1673SOL    HW1 6951   8.866   8.229   1.310  0.0935  1.0409 -0.4880
 1673SOL    HW2 6952   8.910   8.239   1.165 -2.7524 -0.4934 -1.5574
 1674SOL     OW 6953   5.893   7.499   5.005  0.1181  0.8751 -0.3473
 1674SOL    HW1 6954   5.882   7.555   4.928  1.4845  0.4220 -0.9060
 1674SOL    HW2 6955   5.974   7.531   5.046 -1.6648  2.5090  2.1633
 1675SOL     OW 6956   4.974   1.697   3.166 -0.2561  0.5147  0.3658
 1675SOL    HW1 6957   4.976   1.627   3.232 -1.6182  0.0519 -0.0552
 1675SOL    HW2 6958   4.889   1.738   3.177 -0.3917  0.6151 -0.9217
 1676SOL     OW 6959   1.570   0.132   2.162  0.1894 -0.2481 -0.0077
 1676SOL    HW1 6960   1.537   0.216   2.129  0.4031  0.5390  1.6938
 1676SOL    HW2 6961   1.524   0.118   2.244  1.2401 -1.0648  0.4732
 1677SOL     OW 6962   5.782   6.275   6.606  0.0486 -0.3823 -0.4374
 1677SOL    HW1 6963   5.810   6.338   6.672  0.1101 -0.4886 -0.3612
 1677SOL    HW2 6964   5.686   6.283   6.605  0.0598 -0.2471 -0.4694
 1678SOL     OW 6965   5.513   8.168   2.040 -0.8014  0.0364  0.0231
 1678SOL    HW1 6966   5.544   8.125   2.120  1.3750  2.3251  0.5347
 1678SOL    HW2 6967   5.588   8.166   1.981 -0.8951  2.2215 -0.2562
 1679SOL     OW 6968   8.636   3.566   0.447 -0.1187 -0.3833  0.1819
 1679SOL    HW1 6969   8.652   3.593   0.356  0.1064 -0.3751  0.2231
 1679SOL    HW2 6970   8.542   3.553   0.452 -0.2035  0.1906  0.1012
 1680SOL     OW 6971   8.506   0.548   8.223 -0.1805  0.0418  0.3120
 1680SOL    HW1 6972   8.452   0.521   8.149  2.3542 -2.0232 -0.9592
 1680SOL    HW2 6973   8.489   0.642   8.232 -1.9775 -0.0205 -1.6668
 1681SOL     OW 6974   4.740   6.644   3.135  0.1966 -0.4042  0.6279
 1681SOL    HW1 6975   4.774   6.580   3.197  0.6147 -0.1627  0.6482
 1681SOL    HW2 6976   4.811   6.656   3.071  0.2864  0.3620  0.8685
 1682SOL     OW 6977   2.732   2.005   7.947  0.4255  0.8236 -0.5073
 1682SOL    HW1 6978   2.701   1.922   7.910  2.0088  0.1777 -0.4963
 1682SOL    HW2 6979   2.815   2.021   7.903 -0.5025  3.2066 -1.5573
 1683SOL     OW 6980   1.421   5.549   1.038  0.4299  0.2107  0.1066
 1683SOL    HW1 6981   1.354   5.504   1.091 -0.4342  0.5038 -0.7188
 1683SOL    HW2 6982   1.465   5.478   0.991 -1.4902  0.2237 -1.8363
 1684SOL     OW 6983   5.711   5.630   2.546  0.1844  0.2302 -0.5759
 1684SOL    HW1 6984   5.676   5.602   2.631  0.0402 -1.7393 -1.2337
 1684SOL    HW2 6985   5.722   5.724   2.555  0.7190  0.0068  1.8300
 1685SOL     OW 6986   0.530   2.152   3.056 -1.0904 -0.1963  0.5306
 1685SOL    HW1 6987   0.521   2.219   3.124 -1.0425 -0.5742  0.9142
 1685SOL    HW2 6988   0.448   2.155   3.008 -1.0664  0.1765  0.5084
 1686SOL     OW 6989   7.167   8.582   1.740 -0.4689 -0.0345 -0.5949
 1686SOL    HW1 6990   7.242   8.642   1.746  0.7473 -1.5112 -0.2471
 1686SOL    HW2 6991   7.097   8.635   1.703  0.9293  1.2396 -1.5570
 1687SOL     OW 6992   4.025   2.528   5.083  0.5105 -0.7368 -0.5675
 1687SOL    HW1 6993   3.980   2.602   5.043  0.2139 -1.5441 -1.7656
 1687SOL    HW2 6994   3.976   2.451   5.055  2.9151 -1.7210 -2.4906
 1688SOL     OW 6995   5.080   5.809   4.545  0.0654 -0.1102  0.2580
 1688SOL    HW1 6996   5.070   5.808   4.640 -2.2088 -2.3006  0.0989
 1688SOL    HW2 6997   5.153   5.749   4.528 -1.2083 -1.8519  0.5965
 1689SOL     OW 6998   3.442   5.744   6.027 -0.0590 -0.2957 -0.2584
 1689SOL    HW1 6999   3.510   5.770   6.090 -0.7018  1.0919 -0.0902
 1689SOL    HW2 7000   3.384   5.687   6.077 -0.2168  0.2820  0.2328
 1690SOL     OW 7001   4.133   0.563   8.148 -0.1703 -0.1377  0.4765
 1690SOL    HW1 7002   4.149   0.655   8.166  0.0673  0.2051 -1.3023
 1690SOL    HW2 7003   4.190   0.542   8.074  0.5460 -2.0037  1.4857
 1691SOL     OW 7004   0.635   3.251   3.032 -0.0807  0.6712  0.2945
 1691SOL    HW1 7005   0.549   3.222   3.064 -0.6538  2.0864  0.1015
 1691SOL    HW2 7006   0.641   3.214   2.944 -0.9081  1.3350 -0.0536
 1692SOL     OW 7007   8.356   5.590   2.948  0.4749 -0.0404 -0.6317
 1692SOL    HW1 7008   8.321   5.591   2.859  0.1235 -2.2261 -0.5716
 1692SOL    HW2 7009   8.418   5.663   2.950 -1.1431  1.4727 -1.9407
 1693SOL     OW 7010   2.967   1.684   7.719 -0.2317 -0.0755  0.0293
 1693SOL    HW1 7011   2.976   1.750   7.787 -0.0261 -0.8820  0.8107
 1693SOL    HW2 7012   2.948   1.733   7.639  1.6414  1.0420  0.2316
 1694SOL     OW 7013   3.530   3.635   0.403  0.2130  0.5462 -0.5298
 1694SOL    HW1 7014   3.583   3.619   0.324  2.3597 -0.3901  1.0077
 1694SOL    HW2 7015   3.588   3.684   0.461 -1.1697  0.8176  0.6590
 1695SOL     OW 7016   5.322   5.798   7.916 -0.2051 -0.3333 -0.1658
 1695SOL    HW1 7017   5.262   5.726   7.899 -1.0553  0.2238  0.4143
 1695SOL    HW2 7018   5.408   5.756   7.922 -0.7379 -1.3653  0.5802
 1696SOL     OW 7019   4.966   6.777   8.787 -0.3291  0.3455  0.0044
 1696SOL    HW1 7020   5.023   6.829   8.843  0.8070  1.4900 -2.0825
 1696SOL    HW2 7021   4.914   6.842   8.739 -0.0592 -0.4661 -1.4640
 1697SOL     OW 7022   4.974   6.899   3.141  0.4679 -0.5835 -0.2987
 1697SOL    HW1 7023   4.879   6.888   3.137  0.6333 -1.7078 -2.3963
 1697SOL    HW2 7024   4.997   6.875   3.231 -1.1564 -0.8229  0.0836
 1698SOL     OW 7025   7.218   8.048   3.886 -0.1530  0.0411 -0.1296
 1698SOL    HW1 7026   7.202   7.996   3.808 -0.4033  2.4180 -1.7920
 1698SOL    HW2 7027   7.216   7.986   3.958 -2.1795 -1.9656 -1.7660
 1699SOL     OW 7028   2.771   7.615   7.172 -0.1175  0.5755  0.7955
 1699SOL    HW1 7029   2.749   7.586   7.260 -1.8183  1.9636  0.8888
 1699SOL    HW2 7030   2.741   7.706   7.168 -0.2618  0.4960 -1.2759
 1700SOL     OW 7031   7.853   0.635   2.881  0.3699  0.3027 -0.4340
 1700SOL    HW1 7032   7.836   0.689   2.804  1.9512 -0.1980 -1.1764
 1700SOL    HW2 7033   7.892   0.696   2.945  1.2248  0.2621 -0.9041
 1701SOL     OW 7034   6.568   7.187   3.403  0.2010 -0.2759 -0.1490
 1701SOL    HW1 7035   6.575   7.146   3.317 -0.2734  0.3857 -0.5067
 1701SOL    HW2 7036   6.499   7.137   3.447 -1.2224  0.8429 -1.0156
 1702SOL     OW 7037   3.935   2.032   5.408 -0.3510 -0.4653 -0.2540
 1702SOL    HW1 7038   3.967   2.083   5.482 -2.0345  2.9460 -1.6373
 1702SOL    HW2 7039   4.005   2.035   5.344 -0.9112  1.4901 -0.8505
 1703SOL     OW 7040   0.488   6.936   2.333 -0.2044 -0.6401 -0.0585
 1703SOL    HW1 7041   0.427   6.986   2.387 -0.0397 -0.3696 -0.1186
 1703SOL    HW2 7042   0.451   6.941   2.245  0.3494  0.2511 -0.2499
 1704SOL     OW 7043   3.123   7.264   5.996 -0.0123  0.0691 -0.0827
 1704SOL    HW1 7044   3.135   7.287   6.088 -2.2116  1.9310 -0.1761
 1704SOL    HW2 7045   3.164   7.336   5.948 -0.1809 -0.1419 -0.5500
 1705SOL     OW 7046   5.180   3.069   8.547  0.4229 -0.2721  0.1442
 1705SOL    HW1 7047   5.221   3.135   8.492  1.4835 -1.9146 -1.1144
 1705SOL    HW2 7048   5.095   3.107   8.569 -0.2619  0.3404 -2.9883
 1706SOL     OW 7049   7.950   0.011   1.052  0.1009  0.1304 -0.3774
 1706SOL    HW1 7050   7.927   0.046   1.138  0.1565 -0.2323 -0.2141
 1706SOL    HW2 7051   7.866  -0.009   1.011  0.0938 -0.3051 -0.1520
 1707SOL     OW 7052   2.923   5.451   0.776  0.2832  0.7867  0.3436
 1707SOL    HW1 7053   2.898   5.362   0.801  1.3355  0.3718 -0.0373
 1707SOL    HW2 7054   2.957   5.443   0.688  1.3050  1.4032  0.6651
 1708SOL     OW 7055   1.035   5.050   0.141 -0.1600  0.2283  0.5041
 1708SOL    HW1 7056   0.939   5.044   0.145 -0.2052  1.1054  1.1210
 1708SOL    HW2 7057   1.065   5.025   0.228  0.3980 -2.8597 -0.4778
 1709SOL     OW 7058   6.984   2.096   6.663  0.3496  0.1275  0.7815
 1709SOL    HW1 7059   7.077   2.072   6.658  0.1146 -0.5618 -0.8168
 1709SOL    HW2 7060   6.984   2.192   6.654  0.8939  0.1046  0.4895
 1710SOL     OW 7061   5.800   2.794   7.591  0.5620 -0.7992 -0.1184
 1710SOL    HW1 7062   5.890   2.773   7.567  1.1935 -1.0624  2.1869
 1710SOL    HW2 7063   5.804   2.885   7.620  0.2947 -1.0625  0.7832
 1711SOL     OW 7064   1.635   5.554   1.995 -0.1516 -0.3654 -0.2450
 1711SOL    HW1 7065   1.683   5.589   1.921  2.0157  0.5220  1.4589
 1711SOL    HW2 7066   1.544   5.578   1.978  0.3291  0.1224 -2.3969
 1712SOL     OW 7067   6.894   6.885   4.545  0.3486 -0.6215  0.0505
 1712SOL    HW1 7068   6.858   6.898   4.457  0.7272  0.1268  0.0042
 1712SOL    HW2 7069   6.981   6.847   4.531  0.9517  0.7170  0.0459
 1713SOL     OW 7070   2.301   1.007   4.234 -0.2863  0.6433 -0.2278
 1713SOL    HW1 7071   2.233   0.960   4.185  1.1695 -1.1374 -0.6363
 1713SOL    HW2 7072   2.356   1.046   4.166 -1.0070  2.3382  0.1049
 1714SOL     OW 7073   7.618   0.034   0.177  0.0905  0.8518  0.0823
 1714SOL    HW1 7074   7.546   0.052   0.238  0.7624  0.3735  1.0431
 1714SOL    HW2 7075   7.691   0.087   0.210  0.3258  0.9632 -0.6014
 1715SOL     OW 7076   2.107   2.331   5.240  0.5432 -0.2638 -0.6238
 1715SOL    HW1 7077   2.180   2.269   5.242  0.6921 -0.1216 -1.3761
 1715SOL    HW2 7078   2.123   2.385   5.163  1.0095  1.4660  0.6306
 1716SOL     OW 7079   2.547   5.709   1.048 -0.0920 -0.2982  0.0418
 1716SOL    HW1 7080   2.607   5.783   1.060  1.2885 -1.4208  0.2651
 1716SOL    HW2 7081   2.487   5.715   1.122 -0.2931  0.8581 -0.1931
 1717SOL     OW 7082   1.215   0.309   4.850  0.1411 -0.0962  0.3101
 1717SOL    HW1 7083   1.159   0.349   4.785  1.3780 -1.4495 -1.7090
 1717SOL    HW2 7084   1.294   0.362   4.850 -0.5307  1.0060  2.1610
 1718SOL     OW 7085   8.183   5.302   3.503 -0.0871 -0.3726 -0.3396
 1718SOL    HW1 7086   8.267   5.260   3.523  0.8148 -0.5272 -3.7666
 1718SOL    HW2 7087   8.149   5.330   3.588  3.6511  0.1321  1.1688
 1719SOL     OW 7088   3.462   1.792   2.228 -0.4514  0.4241 -0.5301
 1719SOL    HW1 7089   3.374   1.755   2.226  0.0615 -0.8941  0.1712
 1719SOL    HW2 7090   3.455   1.873   2.177 -2.9925  2.4978  2.7283
 1720SOL     OW 7091   5.861   4.647   7.200  0.2862  0.2721  0.2559
 1720SOL    HW1 7092   5.818   4.708   7.141  0.0988  0.0794  0.1932
 1720SOL    HW2 7093   5.799   4.575   7.210  0.6520 -0.0804  0.0424
 1721SOL     OW 7094   4.234   5.148   4.589  0.2369  0.5526 -0.6778
 1721SOL    HW1 7095   4.281   5.066   4.574 -1.2592 -0.2426 -1.2548
 1721SOL    HW2 7096   4.151   5.121   4.628 -0.4390  1.7709 -1.2170
 1722SOL     OW 7097   6.215   4.557   5.201 -0.5397 -0.3614  0.1605
 1722SOL    HW1 7098   6.240   4.522   5.286  1.8505 -1.3721 -0.8636
 1722SOL    HW2 7099   6.184   4.482   5.151  1.8894 -0.6507 -1.0961
 1723SOL     OW 7100   2.288   3.764   2.485 -0.4591 -0.1437 -0.3188
 1723SOL    HW1 7101   2.217   3.720   2.439 -1.4287  2.2499 -1.2620
 1723SOL    HW2 7102   2.245   3.830   2.538  0.5821 -2.7799  4.3816
 1724SOL     OW 7103   1.598   2.971   6.786  0.0624 -0.0704  0.4843
 1724SOL    HW1 7104   1.535   3.010   6.848  0.5747 -1.5248  2.0029
 1724SOL    HW2 7105   1.670   3.034   6.783 -0.6810  0.7940  0.0625
 1725SOL     OW 7106   7.368   4.332   8.172 -0.3240 -0.9233 -0.1596
 1725SOL    HW1 7107   7.319   4.348   8.253  0.2441  1.8378 -0.2788
 1725SOL    HW2 7108   7.456   4.310   8.202  0.4263  1.9976  0.0870
 1726SOL     OW 7109   1.157   5.201   3.183 -0.5173 -0.1034 -0.9389
 1726SOL    HW1 7110   1.067   5.233   3.179 -1.1968 -2.0290 -2.3048
 1726SOL    HW2 7111   1.185   5.194   3.092 -0.0362 -2.2698 -0.6762
 1727SOL     OW 7112   2.534   5.225   1.460  0.2548 -0.8272 -0.3046
 1727SOL    HW1 7113   2.507   5.288   1.393  0.5822 -0.7750 -0.3889
 1727SOL    HW2 7114   2.607   5.178   1.420  0.2910 -0.9651 -0.0756
 1728SOL     OW 7115   2.566   8.142   7.214 -0.5608 -0.0523  0.1010
 1728SOL    HW1 7116   2.652   8.163   7.177 -0.8992 -0.0173 -0.6906
 1728SOL    HW2 7117   2.573   8.167   7.306  0.3165 -0.1690  0.0817
 1729SOL     OW 7118   7.813   7.037   1.276 -0.3920  0.2117  0.5536
 1729SOL    HW1 7119   7.848   6.950   1.297  1.0973  1.0656  1.8554
 1729SOL    HW2 7120   7.721   7.022   1.255 -0.2715 -1.6230  1.1598
 1730SOL     OW 7121   1.595   6.719   8.051 -0.1458  0.1520  0.0573
 1730SOL    HW1 7122   1.643   6.641   8.080 -0.5413  0.4478  1.6011
 1730SOL    HW2 7123   1.503   6.691   8.051 -0.2103  0.3498 -0.3568
 1731SOL     OW 7124   6.745   4.650   2.796  0.3406  0.4462 -0.3163
 1731SOL    HW1 7125   6.663   4.626   2.753  0.0280 -0.5560  0.7889
 1731SOL    HW2 7126   6.725   4.649   2.889  1.6036  0.2397 -0.0264
 1732SOL     OW 7127   2.637   2.975   3.660  0.2446 -0.0451 -0.4967
 1732SOL    HW1 7128   2.577   2.932   3.598 -2.3228  1.7021  0.6296
 1732SOL    HW2 7129   2.648   3.064   3.626  0.4036  0.3355  0.5211
 1733SOL     OW 7130   7.176   2.453   3.308 -0.0433 -0.1216 -0.3837
 1733SOL    HW1 7131   7.098   2.498   3.340 -0.3568 -1.0588  0.2026
 1733SOL    HW2 7132   7.192   2.490   3.222 -0.3676  1.0169  0.0248
 1734SOL     OW 7133   1.112   5.911   2.843 -0.0912 -0.2084 -0.5785
 1734SOL    HW1 7134   1.033   5.933   2.892 -0.5511 -3.5385  0.4376
 1734SOL    HW2 7135   1.092   5.827   2.802  2.2894 -0.2375 -1.8710
 1735SOL     OW 7136   0.026   7.086   0.159  0.2426 -0.3481 -0.1616
 1735SOL    HW1 7137   0.073   7.152   0.106  1.4840 -1.3946 -0.4216
 1735SOL    HW2 7138  -0.066   7.108   0.147  0.6152  2.1242  0.7841
 1736SOL     OW 7139   1.733   0.549   1.983 -0.2429 -0.3131 -0.1729
 1736SOL    HW1 7140   1.729   0.635   1.940  1.0271 -0.3177 -0.3362
 1736SOL    HW2 7141   1.720   0.487   1.912 -0.0721 -0.2794 -0.2339
 1737SOL     OW 7142   7.129   2.576   2.930  0.2271  0.5280 -0.0493
 1737SOL    HW1 7143   7.101   2.619   3.012  1.0754  0.2756  0.3795
 1737SOL    HW2 7144   7.200   2.631   2.898  1.2251 -0.4621  0.4273
 1738SOL     OW 7145   7.699   4.058   1.531  0.6089 -0.2069 -0.2888
 1738SOL    HW1 7146   7.693   4.110   1.451 -0.4727  0.9183  0.4849
 1738SOL    HW2 7147   7.632   4.095   1.589 -0.9433 -3.1268 -0.0378
 1739SOL     OW 7148   4.262   4.536   4.781  0.1678 -0.7070  0.0579
 1739SOL    HW1 7149   4.251   4.442   4.769  0.0210 -0.7640  0.6244
 1739SOL    HW2 7150   4.314   4.564   4.705 -1.3554 -0.9316 -1.1082
 1740SOL     OW 7151   6.394   5.124   0.480  0.0477 -0.4439 -0.3544
 1740SOL    HW1 7152   6.489   5.115   0.488  0.0894  0.2710  0.0194
 1740SOL    HW2 7153   6.371   5.070   0.404  0.6408 -1.2872  0.0543
 1741SOL     OW 7154   4.261   7.940   3.570 -0.0890  0.2789  0.1501
 1741SOL    HW1 7155   4.222   7.852   3.564 -1.2858  0.7797  0.2877
 1741SOL    HW2 7156   4.295   7.945   3.660  1.6349 -0.6796 -0.3997
 1742SOL     OW 7157   4.773   1.222   8.220 -0.0958 -0.1904  0.5449
 1742SOL    HW1 7158   4.817   1.285   8.278 -0.7436 -1.6482  2.7500
 1742SOL    HW2 7159   4.787   1.137   8.261 -1.6608 -1.1576 -0.7922
 1743SOL     OW 7160   5.986   3.486   1.117  0.3391 -0.1201  0.0865
 1743SOL    HW1 7161   5.969   3.574   1.150 -0.4339 -0.5436  0.8560
 1743SOL    HW2 7162   6.045   3.447   1.181  1.3452  0.0916 -0.6740
 1744SOL     OW 7163   3.335   3.092   5.185 -0.4490 -0.3783  0.1148
 1744SOL    HW1 7164   3.296   3.050   5.261  0.9852 -0.3987  0.8773
 1744SOL    HW2 7165   3.429   3.089   5.201  0.0437 -1.8647 -2.4185
 1745SOL     OW 7166   8.186   5.513   0.337  0.6623  0.0745 -0.2294
 1745SOL    HW1 7167   8.116   5.567   0.376 -0.0363  0.5557 -2.0554
 1745SOL    HW2 7168   8.254   5.576   0.313  0.7911 -0.1269 -0.3901
 1746SOL     OW 7169   7.149   0.828   0.836 -0.4592 -0.4103  0.4141
 1746SOL    HW1 7170   7.146   0.747   0.785  1.7895  0.1793 -0.7874
 1746SOL    HW2 7171   7.111   0.894   0.778 -0.1839 -0.1950  0.4749
 1747SOL     OW 7172   5.810   0.921   8.427 -0.0553  0.3034 -0.1579
 1747SOL    HW1 7173   5.776   0.918   8.517 -2.5537 -0.6418 -1.0459
 1747SOL    HW2 7174   5.818   0.829   8.402 -2.6680  0.4375 -1.9472
 1748SOL     OW 7175   5.490   6.275   6.614  0.3121  0.2352 -0.0164
 1748SOL    HW1 7176   5.482   6.281   6.709 -2.0955 -0.6561 -0.0751
 1748SOL    HW2 7177   5.433   6.344   6.581  2.4467  1.6865 -0.8995
 1749SOL     OW 7178   6.421   4.486   6.154  0.7277 -0.4130 -0.2838
 1749SOL    HW1 7179   6.478   4.557   6.123 -0.2612  0.6826  0.3277
 1749SOL    HW2 7180   6.367   4.526   6.221 -1.2483 -1.2117 -1.3058
 1750SOL     OW 7181   8.219   1.757   1.163  0.5088  0.3566  0.2678
 1750SOL    HW1 7182   8.175   1.680   1.125  2.0750 -0.9291  0.9628
 1750SOL    HW2 7183   8.182   1.831   1.114 -0.7794 -0.8442 -0.6848
 1751SOL     OW 7184   0.023   4.154   0.563  0.1718 -0.0938 -0.4914
 1751SOL    HW1 7185  -0.063   4.195   0.576 -1.4376 -2.4735 -2.6279
 1751SOL    HW2 7186   0.030   4.090   0.633  0.6116  0.6872  0.1859
 1752SOL     OW 7187   2.873   2.437   4.288 -0.1046  0.0457 -0.1800
 1752SOL    HW1 7188   2.960   2.465   4.260 -0.8536  0.1152 -2.6934
 1752SOL    HW2 7189   2.867   2.466   4.379  2.3677  0.2956 -0.0255
 1753SOL     OW 7190   0.780   0.608   1.982 -0.0343  0.2447 -0.0099
 1753SOL    HW1 7191   0.865   0.578   1.950  0.7550  0.5924  1.6764
 1753SOL    HW2 7192   0.720   0.535   1.963  0.1660  0.7127 -2.9012
 1754SOL     OW 7193   6.134   5.482   1.496  0.1403  0.2493  0.7902
 1754SOL    HW1 7194   6.121   5.521   1.409  3.5464 -1.1857 -0.5354
 1754SOL    HW2 7195   6.179   5.550   1.546  0.7428  0.1229  0.4377
 1755SOL     OW 7196   4.422   4.784   5.512 -0.0626  0.2280 -0.0596
 1755SOL    HW1 7197   4.335   4.747   5.529  0.8032 -1.1894  1.6135
 1755SOL    HW2 7198   4.451   4.742   5.431 -0.6638  0.2373 -0.2852
 1756SOL     OW 7199   8.596   1.386   7.314  0.1683  0.0654  0.4990
 1756SOL    HW1 7200   8.527   1.402   7.250 -1.3110  1.4436  2.3193
 1756SOL    HW2 7201   8.666   1.445   7.288 -0.6214  0.9972  0.4343
 1757SOL     OW 7202   5.814   1.386   1.025 -0.1808 -0.1943 -0.3767
 1757SOL    HW1 7203   5.865   1.467   1.016 -1.4724  0.6327 -0.5293
 1757SOL    HW2 7204   5.831   1.357   1.115  0.0302  0.4373 -0.2081
 1758SOL     OW 7205   0.798   1.720   2.860  0.8159  0.6410 -0.4931
 1758SOL    HW1 7206   0.744   1.719   2.939  1.7030  0.1619  0.1239
 1758SOL    HW2 7207   0.887   1.705   2.892  0.9873 -1.3012 -1.7325
 1759SOL     OW 7208   7.151   7.347   1.871 -0.1276 -0.6522  0.2836
 1759SOL    HW1 7209   7.144   7.404   1.948  0.6201 -0.4702  0.2217
 1759SOL    HW2 7210   7.142   7.258   1.907 -2.2197 -0.5044  0.2699
 1760SOL     OW 7211   8.685   8.422   5.901 -0.2646  0.4120 -0.4419
 1760SOL    HW1 7212   8.701   8.429   5.807  0.0134 -0.1694 -0.4376
 1760SOL    HW2 7213   8.702   8.510   5.935 -1.8768  1.0287 -1.1540
 1761SOL     OW 7214   8.673   1.480   7.838 -0.4845 -0.3132  0.1100
 1761SOL    HW1 7215   8.680   1.556   7.780  0.7555 -0.6976 -0.2809
 1761SOL    HW2 7216   8.699   1.406   7.783 -1.8267 -1.0509  0.4386
 1762SOL     OW 7217   3.578   3.869   1.331 -0.5759  0.6701 -0.3618
 1762SOL    HW1 7218   3.500   3.817   1.309 -0.7692  1.1912 -0.9540
 1762SOL    HW2 7219   3.573   3.945   1.273 -0.2204  1.2804  0.3894
 1763SOL     OW 7220   3.710   6.104   7.992 -0.1595  0.4329 -0.6843
 1763SOL    HW1 7221   3.756   6.049   8.056 -0.7471 -0.8827 -1.3636
 1763SOL    HW2 7222   3.630   6.056   7.971 -1.9694  2.6878  0.5043
 1764SOL     OW 7223   6.514   5.726   6.077 -0.5369 -0.3867  0.3620
 1764SOL    HW1 7224   6.489   5.817   6.065  2.2775  0.3863 -0.1875
 1764SOL    HW2 7225   6.431   5.680   6.088 -2.0557  2.1474  0.1982
 1765SOL     OW 7226   8.345   3.806   4.905 -0.3769 -0.1544 -0.3397
 1765SOL    HW1 7227   8.440   3.815   4.894 -0.2767 -0.0607  0.5638
 1765SOL    HW2 7228   8.313   3.784   4.817  0.6916 -1.9507 -0.3213
 1766SOL     OW 7229   2.330   6.609   8.608 -0.0102  0.8292  0.1683
 1766SOL    HW1 7230   2.360   6.561   8.531  0.5273  3.0649 -1.1134
 1766SOL    HW2 7231   2.235   6.600   8.607  0.0455  0.2640 -0.3383
 1767SOL     OW 7232   1.335   3.840   3.134 -0.2894 -0.1752  0.1458
 1767SOL    HW1 7233   1.417   3.883   3.158  0.3759 -0.3076 -1.6878
 1767SOL    HW2 7234   1.279   3.910   3.101 -0.7414 -0.1521  0.9567
 1768SOL     OW 7235   5.833   0.592   1.561 -0.3829  0.0287  0.1235
 1768SOL    HW1 7236   5.795   0.674   1.592  1.1146  1.9762 -2.6384
 1768SOL    HW2 7237   5.923   0.594   1.594 -1.1950 -2.2528  2.7812
 1769SOL     OW 7238   5.406   7.194   4.402 -0.3378 -0.0209  0.1098
 1769SOL    HW1 7239   5.501   7.210   4.409 -0.2574 -0.2993 -0.3101
 1769SOL    HW2 7240   5.370   7.278   4.374 -0.4016  0.4985  1.6348
 1770SOL     OW 7241   1.533   5.255   5.782 -0.4173  0.4642 -0.8528
 1770SOL    HW1 7242   1.526   5.212   5.867  1.0210  1.3296 -0.2694
 1770SOL    HW2 7243   1.442   5.266   5.753 -0.9968  1.0506  1.0366
 1771SOL     OW 7244   8.803   6.904   2.367  0.3384  0.1699 -0.0326
 1771SOL    HW1 7245   8.813   6.812   2.345  0.5649  0.3916 -0.9034
 1771SOL    HW2 7246   8.821   6.951   2.285  1.5697  1.0672  0.7157
 1772SOL     OW 7247   3.546   3.366   5.204 -0.2199  0.5770  0.2991
 1772SOL    HW1 7248   3.610   3.437   5.210  0.1697  0.3706 -1.1504
 1772SOL    HW2 7249   3.572   3.316   5.127 -1.6140 -0.0358  0.1945
 1773SOL     OW 7250   3.486   7.132   4.956 -0.1841  0.3711  0.5209
 1773SOL    HW1 7251   3.552   7.187   4.913 -0.1825 -0.5689 -0.7291
 1773SOL    HW2 7252   3.533   7.089   5.027  0.0987  1.1009  0.7797
 1774SOL     OW 7253   2.437   1.129   7.802  0.0482 -0.3634  0.0175
 1774SOL    HW1 7254   2.361   1.151   7.748  1.2653  0.7477 -1.3266
 1774SOL    HW2 7255   2.423   1.038   7.827 -2.1316  0.0599  0.5611
 1775SOL     OW 7256   2.044   0.925   1.333  0.6189  0.2320 -0.6960
 1775SOL    HW1 7257   2.111   0.859   1.315  0.4696 -0.8564  2.2063
 1775SOL    HW2 7258   2.087   1.009   1.315  1.8409 -0.5302 -1.4608
 1776SOL     OW 7259   7.950   0.079   3.640 -0.2933 -0.3823  0.5141
 1776SOL    HW1 7260   7.883   0.116   3.583 -0.0695 -0.9704 -0.1473
 1776SOL    HW2 7261   8.018   0.047   3.580  0.3550 -0.2265  1.1502
 1777SOL     OW 7262   4.819   1.273   0.000 -0.7123  0.0180 -0.1223
 1777SOL    HW1 7263   4.894   1.234   0.046 -0.0658  0.7323 -0.5515
 1777SOL    HW2 7264   4.801   1.211  -0.070 -0.2396  0.0487 -0.2788
 1778SOL     OW 7265   3.792   2.864   8.801 -0.4722  0.0390 -0.6905
 1778SOL    HW1 7266   3.799   2.907   8.886 -3.2184 -0.4680 -0.1195
 1778SOL    HW2 7267   3.839   2.922   8.741 -2.9914  3.3542  0.2165
 1779SOL     OW 7268   6.061   1.897   5.903 -0.0601 -0.7210 -0.1401
 1779SOL    HW1 7269   5.985   1.909   5.960 -0.0936 -0.1798 -0.2956
 1779SOL    HW2 7270   6.030   1.920   5.815  0.0100 -1.4787 -0.3717
 1780SOL     OW 7271   2.150   3.698   8.379 -0.0300 -0.3601  0.1531
 1780SOL    HW1 7272   2.189   3.613   8.400  0.4699 -0.1193  0.1954
 1780SOL    HW2 7273   2.080   3.677   8.316  0.0158 -0.8134  0.2510
 1781SOL     OW 7274   1.806   0.461   5.418  0.9206  0.1617  0.6522
 1781SOL    HW1 7275   1.766   0.458   5.505 -0.8327  0.2954 -0.1235
 1781SOL    HW2 7276   1.760   0.394   5.368  2.9793 -1.0122  0.2213
 1782SOL     OW 7277   8.315   1.072   3.704  0.2491  0.1128  0.0572
 1782SOL    HW1 7278   8.343   1.030   3.785  1.1096  1.7873  0.6752
 1782SOL    HW2 7279   8.396   1.086   3.654 -0.1337  0.1233 -0.5757
 1783SOL     OW 7280   1.560   3.364   7.265  0.0054  0.2328  0.5620
 1783SOL    HW1 7281   1.625   3.338   7.200  0.4270 -0.3710  1.2094
 1783SOL    HW2 7282   1.548   3.458   7.251  0.0472  0.1105 -0.4123
 1784SOL     OW 7283   6.969   4.191   2.007  0.0911 -0.4027 -0.1665
 1784SOL    HW1 7284   6.895   4.193   1.947 -0.6535  0.7737  0.7563
 1784SOL    HW2 7285   6.977   4.281   2.039 -0.5657 -1.2908  2.7475
 1785SOL     OW 7286   5.578   5.431   8.264 -0.4571 -0.2739  0.3315
 1785SOL    HW1 7287   5.664   5.463   8.294 -0.1687 -1.7679  1.2199
 1785SOL    HW2 7288   5.532   5.510   8.234  1.1040  0.6031  0.1186
 1786SOL     OW 7289   4.700   2.578   8.855  0.3009  0.4756 -0.4109
 1786SOL    HW1 7290   4.784   2.570   8.899  0.2593 -0.4413 -0.4835
 1786SOL    HW2 7291   4.654   2.647   8.903  0.3515 -0.3376  0.8405
 1787SOL     OW 7292   0.740   0.119   6.261 -0.0216 -0.1241 -0.3227
 1787SOL    HW1 7293   0.693   0.140   6.181  0.0359  3.6318  0.4376
 1787SOL    HW2 7294   0.674   0.128   6.330  0.5878 -0.2632  0.2882
 1788SOL     OW 7295   5.791   3.594   6.391  0.3336  0.0538  0.5179
 1788SOL    HW1 7296   5.847   3.528   6.432  0.7386  0.8927  1.3495
 1788SOL    HW2 7297   5.706   3.552   6.383  0.5458 -0.5136  1.1925
 1789SOL     OW 7298   8.480   0.310   2.942  0.3536  0.4635  0.3342
 1789SOL    HW1 7299   8.539   0.359   2.998  1.4166  0.1815 -0.5057
 1789SOL    HW2 7300   8.495   0.218   2.965  1.8623  0.2324 -1.3488
 1790SOL     OW 7301   8.432   2.976   6.999 -0.1912 -0.0126 -0.3139
 1790SOL    HW1 7302   8.408   2.899   7.050  1.1561  0.3454  0.9257
 1790SOL    HW2 7303   8.505   2.947   6.943  0.4280  0.3795  0.2729
 1791SOL     OW 7304   3.539   3.427   5.521 -0.7302  0.1179 -0.1770
 1791SOL    HW1 7305   3.563   3.342   5.483 -0.5564 -0.3342  0.9072
 1791SOL    HW2 7306   3.479   3.465   5.457  2.3606  1.0913 -2.7544
 1792SOL     OW 7307   3.295   6.976   1.886  0.0133 -0.4657  0.1318
 1792SOL    HW1 7308   3.325   7.016   1.969 -0.7645  0.5109 -0.0362
 1792SOL    HW2 7309   3.334   7.031   1.818  0.6104 -1.2373 -0.1576
 1793SOL     OW 7310   4.909   1.297   5.643 -0.4507 -0.0484  0.1559
 1793SOL    HW1 7311   4.885   1.325   5.731 -1.1802  1.4728 -0.5000
 1793SOL    HW2 7312   4.827   1.298   5.593  0.1711  0.5000 -0.8924
 1794SOL     OW 7313   6.143   1.419   2.128  0.5791 -0.8197  0.2061
 1794SOL    HW1 7314   6.171   1.338   2.170  1.3928 -0.3876  0.5070
 1794SOL    HW2 7315   6.049   1.408   2.116  0.7423 -1.9790 -0.1365
 1795SOL     OW 7316   8.439   5.136   7.434  0.4679  0.1409 -0.1408
 1795SOL    HW1 7317   8.435   5.199   7.506 -0.3738  0.2334 -0.2520
 1795SOL    HW2 7318   8.531   5.112   7.427  0.5320 -0.0166  1.0926
 1796SOL     OW 7319   6.642   8.568   2.417 -0.2257 -0.4571  0.5489
 1796SOL    HW1 7320   6.577   8.503   2.391 -0.1811 -0.5282  0.6170
 1796SOL    HW2 7321   6.603   8.614   2.491 -0.8440  0.5067 -0.3390
 1797SOL     OW 7322   0.846   5.658   6.876 -0.6643 -0.0805  0.5774
 1797SOL    HW1 7323   0.882   5.587   6.822 -1.3092 -0.6245  0.8601
 1797SOL    HW2 7324   0.921   5.690   6.926 -0.0854  0.3291 -0.5177
 1798SOL     OW 7325   1.519   4.645   4.104  0.5334  0.5742  0.1365
 1798SOL    HW1 7326   1.441   4.690   4.138  0.7337 -0.5426  2.2681
 1798SOL    HW2 7327   1.488   4.597   4.027 -0.9950 -0.1235  1.1374
 1799SOL     OW 7328   3.414   7.026   0.626  0.1289 -0.2459  0.3695
 1799SOL    HW1 7329   3.348   6.983   0.679  0.6683 -1.1581  0.3319
 1799SOL    HW2 7330   3.479   7.057   0.688  0.4953 -0.8420  0.2910
 1800SOL     OW 7331   4.243   8.417   1.527  0.0073  0.0181  0.0145
 1800SOL    HW1 7332   4.205   8.384   1.609  1.5523 -0.3140  0.6222
 1800SOL    HW2 7333   4.299   8.346   1.497  0.3043  0.5759 -0.7681
 1801SOL     OW 7334   8.718   7.143   8.069 -0.5769 -0.3686 -0.3920
 1801SOL    HW1 7335   8.780   7.085   8.024 -1.9562 -2.0083 -0.2641
 1801SOL    HW2 7336   8.737   7.230   8.034  1.1717 -0.9542 -1.0264
 1802SOL     OW 7337   3.969   6.295   5.769  0.2022 -0.2331  0.2341
 1802SOL    HW1 7338   3.977   6.333   5.857 -1.1678  0.1041  0.2238
 1802SOL    HW2 7339   4.034   6.343   5.717 -0.0476  0.6463  0.7137
 1803SOL     OW 7340   6.383   5.357   7.643  0.2449 -0.5000 -0.1347
 1803SOL    HW1 7341   6.325   5.408   7.585  2.2238 -0.8492 -2.5771
 1803SOL    HW2 7342   6.396   5.413   7.719 -0.8926  0.8699 -0.8992
 1804SOL     OW 7343   6.641   1.384   3.520  0.5652  0.0210  0.5096
 1804SOL    HW1 7344   6.685   1.456   3.566  1.9964  0.5605 -1.5520
 1804SOL    HW2 7345   6.695   1.308   3.539 -0.2553 -0.3016  1.6809
 1805SOL     OW 7346   3.347   0.073   7.481 -0.5028  0.0511 -0.1136
 1805SOL    HW1 7347   3.316   0.151   7.527  0.4505  0.9488 -0.9182
 1805SOL    HW2 7348   3.433   0.056   7.518  0.2776  0.7900 -1.5223
 1806SOL     OW 7349   3.447   8.275   3.591  0.2625 -0.0950 -0.2748
 1806SOL    HW1 7350   3.518   8.221   3.556  0.1723 -0.5633  0.2519
 1806SOL    HW2 7351   3.370   8.250   3.539 -0.2662 -2.0579  1.3359
 1807SOL     OW 7352   4.861   0.775   5.116 -0.5526 -0.2938  0.0209
 1807SOL    HW1 7353   4.853   0.710   5.046 -2.1115 -0.9561  0.7500
 1807SOL    HW2 7354   4.947   0.815   5.103 -0.4520 -1.0034 -1.7354
 1808SOL     OW 7355   6.560   2.503   0.246 -0.0534 -0.4555  0.2091
 1808SOL    HW1 7356   6.642   2.539   0.212  0.0487 -0.0280  0.8869
 1808SOL    HW2 7357   6.492   2.558   0.207 -0.1057 -1.3776 -1.0899
 1809SOL     OW 7358   4.211   2.346   6.062  0.2123 -0.4299 -0.0948
 1809SOL    HW1 7359   4.180   2.436   6.050  0.2309 -0.5404 -1.0923
 1809SOL    HW2 7360   4.270   2.350   6.137  1.7999  0.8079 -1.3421
 1810SOL     OW 7361   3.086   8.719   1.991 -0.0239 -0.1593 -0.2832
 1810SOL    HW1 7362   3.162   8.751   2.040 -0.5020 -1.7745  1.6782
 1810SOL    HW2 7363   3.011   8.747   2.044 -0.5581 -2.0649  0.0638
 1811SOL     OW 7364   2.257   6.039   6.551  0.5110  0.2945 -0.5108
 1811SOL    HW1 7365   2.321   5.979   6.512  1.6602  1.9028 -1.2222
 1811SOL    HW2 7366   2.293   6.126   6.535 -1.8523  1.2793 -0.8910
 1812SOL     OW 7367   5.078   4.945   5.416 -0.6602 -0.0847 -0.0127
 1812SOL    HW1 7368   4.996   4.981   5.449 -2.1052 -0.2709 -3.0181
 1812SOL    HW2 7369   5.052   4.888   5.343  2.0876 -0.9294 -0.4807
 1813SOL     OW 7370   2.650   4.913   1.547 -0.0755 -0.2019 -0.1765
 1813SOL    HW1 7371   2.633   4.925   1.640  1.0372 -2.1628  0.3256
 1813SOL    HW2 7372   2.579   4.855   1.517 -0.7888  0.9137 -0.7307
 1814SOL     OW 7373   2.730   6.035   7.584  0.0887  0.2274  0.3805
 1814SOL    HW1 7374   2.707   5.967   7.647  0.6571  0.5953  1.0066
 1814SOL    HW2 7375   2.701   6.002   7.500 -1.1068 -0.0793  0.8970
 1815SOL     OW 7376   4.821   5.395   5.910 -0.1389  0.0805  0.7083
 1815SOL    HW1 7377   4.879   5.458   5.953  0.6311 -0.9569  1.2442
 1815SOL    HW2 7378   4.867   5.311   5.919 -1.1769 -0.5703  0.0890
 1816SOL     OW 7379   2.600   5.659   2.413  0.0753 -0.8104  0.1171
 1816SOL    HW1 7380   2.677   5.621   2.372  1.3103  1.4364  0.1720
 1816SOL    HW2 7381   2.550   5.696   2.339 -0.7220 -1.8291  0.1286
 1817SOL     OW 7382   5.552   1.375   3.697  0.1884 -0.3076 -0.3503
 1817SOL    HW1 7383   5.472   1.339   3.736  0.7630 -1.1666  0.0429
 1817SOL    HW2 7384   5.619   1.364   3.764  1.0658 -1.3253 -1.3657
 1818SOL     OW 7385   8.784   2.883   8.872  0.1541 -0.1886  0.0926
 1818SOL    HW1 7386   8.692   2.883   8.899  0.1180 -0.8692 -0.0257
 1818SOL    HW2 7387   8.826   2.816   8.927  0.4872 -0.1912 -0.1566
 1819SOL     OW 7388   3.559   0.918   1.899  0.2882 -0.7860  0.1837
 1819SOL    HW1 7389   3.522   0.924   1.987  1.7278 -0.9247  0.8263
 1819SOL    HW2 7390   3.651   0.896   1.913  0.6870 -0.2304 -1.3375
 1820SOL     OW 7391   6.858   1.560   8.687  0.0922 -0.7721 -0.2132
 1820SOL    HW1 7392   6.778   1.546   8.737 -1.3384  2.6434 -1.3141
 1820SOL    HW2 7393   6.833   1.541   8.597  0.2519  1.0591 -0.6686
 1821SOL     OW 7394   3.233   6.309   5.298  0.2010  0.0543  0.2093
 1821SOL    HW1 7395   3.149   6.338   5.263  0.9015  1.3101 -0.4763
 1821SOL    HW2 7396   3.233   6.340   5.388 -0.4216 -0.7188  0.4893
 1822SOL     OW 7397   4.920   4.054   2.699  0.5427  0.1035 -0.6557
 1822SOL    HW1 7398   4.832   4.060   2.662  0.5005  2.0396 -0.2991
 1822SOL    HW2 7399   4.915   3.979   2.758  0.0311 -1.7460 -2.8858
 1823SOL     OW 7400   0.441   2.746   4.203 -0.2221  0.6058  0.3559
 1823SOL    HW1 7401   0.400   2.805   4.141 -0.0104  0.7497  0.3505
 1823SOL    HW2 7402   0.411   2.659   4.178  0.5512  0.5708 -0.4957
 1824SOL     OW 7403   3.045   8.564   3.709 -0.2300  0.1901  0.2672
 1824SOL    HW1 7404   3.049   8.657   3.730 -2.1857  0.6682 -1.2121
 1824SOL    HW2 7405   3.081   8.558   3.620  0.5317 -0.5920  0.6145
 1825SOL     OW 7406   6.594   1.326   4.637 -0.1921 -0.0738 -0.0785
 1825SOL    HW1 7407   6.529   1.257   4.652  0.3580 -0.6953 -0.5068
 1825SOL    HW2 7408   6.641   1.298   4.559 -0.2271  0.9977 -0.5064
 1826SOL     OW 7409   1.624   8.852   2.827 -0.3035  0.6256  0.1621
 1826SOL    HW1 7410   1.610   8.889   2.740 -0.3785  0.9783  0.3239
 1826SOL    HW2 7411   1.547   8.798   2.843  0.2449 -0.3713 -0.4679
 1827SOL     OW 7412   1.262   6.249   4.137  0.1062 -0.4619  0.3031
 1827SOL    HW1 7413   1.341   6.196   4.131 -0.2896 -0.9658 -0.8257
 1827SOL    HW2 7414   1.242   6.254   4.230  1.8451  0.2596  0.6819
 1828SOL     OW 7415   2.547   8.662   0.545  0.4575  0.0763  0.3280
 1828SOL    HW1 7416   2.501   8.629   0.622  0.0913  0.7757  0.4091
 1828SOL    HW2 7417   2.624   8.605   0.538  1.1432  0.7533  1.9017
 1829SOL     OW 7418   7.113   7.234   1.488  0.8142  0.3755 -0.1812
 1829SOL    HW1 7419   7.070   7.277   1.414 -0.1616 -0.4067 -0.0776
 1829SOL    HW2 7420   7.143   7.306   1.543  0.4452  0.9407 -0.7091
 1830SOL     OW 7421   5.171   2.308   6.452  0.7218  0.2482 -0.0461
 1830SOL    HW1 7422   5.254   2.274   6.486  1.1944  0.1964 -1.2183
 1830SOL    HW2 7423   5.105   2.245   6.483  1.2502 -0.2920  0.0048
 1831SOL     OW 7424   6.321   4.406   2.108 -0.2114  0.1005  0.1403
 1831SOL    HW1 7425   6.306   4.499   2.093  0.2167  0.5073  2.0369
 1831SOL    HW2 7426   6.283   4.389   2.194  1.1129 -1.1206  0.5115
 1832SOL     OW 7427   1.002   8.668   1.658 -0.1132 -0.0319  0.5687
 1832SOL    HW1 7428   1.002   8.575   1.635  0.5847  0.2724 -0.7670
 1832SOL    HW2 7429   1.076   8.678   1.717 -1.5085 -0.6958  2.5494
 1833SOL     OW 7430   0.622   7.588   0.091  0.3705  0.2029  0.0687
 1833SOL    HW1 7431   0.655   7.648   0.023  0.1782 -0.3623 -0.5309
 1833SOL    HW2 7432   0.640   7.634   0.173 -1.0586  1.7603 -0.4209
 1834SOL     OW 7433   1.348   8.045   8.099  0.1088 -0.6768 -0.0330
 1834SOL    HW1 7434   1.334   8.069   8.191  1.3749 -1.4088  0.3775
 1834SOL    HW2 7435   1.264   8.008   8.071 -0.4910  0.1430  0.6215
 1835SOL     OW 7436   3.273   7.114   4.522  0.1229  0.1656 -0.3486
 1835SOL    HW1 7437   3.367   7.129   4.513  0.0078  1.2757  0.0976
 1835SOL    HW2 7438   3.243   7.185   4.579 -0.7321 -1.0713  0.8142
 1836SOL     OW 7439   3.859   5.086   4.134  0.0126 -0.0121 -0.6996
 1836SOL    HW1 7440   3.870   5.179   4.114 -0.2606  0.2440  0.3058
 1836SOL    HW2 7441   3.840   5.083   4.228  1.3093 -1.1852 -0.4447
 1837SOL     OW 7442   0.114   1.123   3.666 -0.0715  0.1501  0.1696
 1837SOL    HW1 7443   0.135   1.185   3.736  1.2400 -0.1165  0.0340
 1837SOL    HW2 7444   0.032   1.155   3.629  0.6282  1.8644  0.0349
 1838SOL     OW 7445   2.453   2.409   5.839 -0.2824 -0.6578 -0.1139
 1838SOL    HW1 7446   2.386   2.473   5.864 -1.1098 -1.3580 -0.5037
 1838SOL    HW2 7447   2.467   2.426   5.746 -1.3152 -1.7473 -0.4918
 1839SOL     OW 7448   7.328   4.516   4.171  0.1833 -0.1403  0.1938
 1839SOL    HW1 7449   7.355   4.551   4.085  2.4879 -1.7125  0.2001
 1839SOL    HW2 7450   7.346   4.588   4.232 -0.3099  0.5590 -0.4540
 1840SOL     OW 7451   2.966   2.500   8.745 -0.5057 -0.4221 -0.0354
 1840SOL    HW1 7452   2.967   2.494   8.649 -1.3718 -0.6078 -0.0456
 1840SOL    HW2 7453   3.057   2.516   8.769 -0.2633 -0.4563 -0.8854
 1841SOL     OW 7454   7.376   2.601   0.751 -0.2120  0.6762 -0.1893
 1841SOL    HW1 7455   7.332   2.527   0.792  2.6838 -1.0112  0.2079
 1841SOL    HW2 7456   7.407   2.655   0.824  0.8155  0.2463 -0.2807
 1842SOL     OW 7457   6.520   7.150   7.552 -0.2311  0.2454  0.1990
 1842SOL    HW1 7458   6.533   7.226   7.495 -0.8440 -0.9700 -1.6048
 1842SOL    HW2 7459   6.598   7.149   7.608  0.5027  1.3375 -0.7583
 1843SOL     OW 7460   8.214   6.801   7.082  0.4080  1.2330  0.8703
 1843SOL    HW1 7461   8.297   6.809   7.129 -0.1602 -1.0798  2.4242
 1843SOL    HW2 7462   8.239   6.791   6.990  1.8510  0.6017  1.3029
 1844SOL     OW 7463   8.805   7.218   2.412  0.9485 -0.3242  0.0388
 1844SOL    HW1 7464   8.814   7.182   2.323 -0.2921 -0.9164  0.1235
 1844SOL    HW2 7465   8.738   7.163   2.453 -0.1707  1.3530  0.5787
 1845SOL     OW 7466   3.755   4.153   6.913 -0.0485  0.6537 -0.4477
 1845SOL    HW1 7467   3.773   4.146   6.819  0.0291  2.7957 -0.6368
 1845SOL    HW2 7468   3.734   4.246   6.927  2.2617  0.9307  2.0359
 1846SOL     OW 7469   0.042   5.198   3.954 -0.6713 -0.5356 -0.1597
 1846SOL    HW1 7470   0.036   5.106   3.978  1.5075 -0.9001 -0.7409
 1846SOL    HW2 7471   0.057   5.197   3.859  3.5496  0.0316  0.2877
 1847SOL     OW 7472   6.501   4.578   0.576  0.1053  0.5930 -0.1053
 1847SOL    HW1 7473   6.530   4.602   0.488  0.4723 -0.1501 -0.1931
 1847SOL    HW2 7474   6.566   4.617   0.635  0.7197 -0.1973 -0.2494
 1848SOL     OW 7475   5.370   1.564   6.919 -0.1120 -0.0031 -0.9336
 1848SOL    HW1 7476   5.346   1.613   6.841  1.0549  0.0630 -1.2687
 1848SOL    HW2 7477   5.381   1.631   6.987 -0.7574 -0.0248 -0.8061
 1849SOL     OW 7478   0.806   0.009   5.320 -0.1221 -0.0556 -0.0695
 1849SOL    HW1 7479   0.869  -0.061   5.337  1.6300  0.7521 -2.5417
 1849SOL    HW2 7480   0.737  -0.032   5.268  0.0661 -0.2627 -0.1520
 1850SOL     OW 7481   1.474   5.904   1.877  0.5407  0.0343 -0.6168
 1850SOL    HW1 7482   1.430   5.828   1.916 -1.9185  1.0406 -1.2462
 1850SOL    HW2 7483   1.485   5.879   1.785  3.5122 -1.0957 -0.0829
 1851SOL     OW 7484   7.436   5.650   1.710  0.3152 -0.3748 -0.4966
 1851SOL    HW1 7485   7.371   5.713   1.740  1.0083 -0.7200  1.9577
 1851SOL    HW2 7486   7.391   5.566   1.711  0.1529 -0.2986 -1.1137
 1852SOL     OW 7487   2.204   0.952   8.454  0.5376 -0.1778 -0.0548
 1852SOL    HW1 7488   2.202   1.047   8.466  2.2532 -0.0859 -0.1314
 1852SOL    HW2 7489   2.123   0.920   8.493  0.8712  1.1246  1.8153
 1853SOL     OW 7490   0.206   6.787   7.247 -0.7141 -0.2263 -0.4723
 1853SOL    HW1 7491   0.222   6.726   7.319  0.8988  1.6272  0.8544
 1853SOL    HW2 7492   0.231   6.738   7.169  1.7556 -0.9457  0.6489
 1854SOL     OW 7493   3.688   0.876   2.338 -0.3860 -0.0869  0.0071
 1854SOL    HW1 7494   3.604   0.842   2.370  0.2915 -1.9145  0.0012
 1854SOL    HW2 7495   3.752   0.844   2.402  0.2645  1.7160  0.2915
 1855SOL     OW 7496   1.313   5.167   1.237  0.3234 -0.2975  0.3687
 1855SOL    HW1 7497   1.257   5.151   1.313  0.0799 -0.0235  0.2494
 1855SOL    HW2 7498   1.343   5.080   1.210 -1.5877 -0.6665 -0.7457
 1856SOL     OW 7499   5.457   0.182   8.800  0.5991  0.4582 -0.1271
 1856SOL    HW1 7500   5.421   0.270   8.802 -0.3796  0.1521 -1.8484
 1856SOL    HW2 7501   5.500   0.176   8.715 -1.2655 -1.3813 -1.0381
 1857SOL     OW 7502   1.370   8.596   1.060 -0.1780  0.0519 -0.7215
 1857SOL    HW1 7503   1.430   8.648   1.114 -1.5202  0.0408  0.8803
 1857SOL    HW2 7504   1.427   8.534   1.015  1.0447  0.0447  0.7247
 1858SOL     OW 7505   8.809   3.701   5.110 -0.4961 -0.4545  0.0563
 1858SOL    HW1 7506   8.765   3.634   5.058  1.1721 -1.1433 -0.5388
 1858SOL    HW2 7507   8.867   3.745   5.048  0.0134  0.0926  0.9048
 1859SOL     OW 7508   4.180   5.486   8.641 -0.0934 -0.0408 -0.1784
 1859SOL    HW1 7509   4.100   5.498   8.589 -1.0842 -1.7774  0.8599
 1859SOL    HW2 7510   4.149   5.472   8.730  1.5304  1.6690  0.7406
 1860SOL     OW 7511   3.660   6.156   4.445 -0.0785  0.2785  0.3649
 1860SOL    HW1 7512   3.682   6.120   4.531 -0.1907  0.4067  0.4500
 1860SOL    HW2 7513   3.710   6.237   4.440 -0.6389  0.6550  0.6297
 1861SOL     OW 7514   0.147   3.135   2.073 -0.7580  0.3819  0.1562
 1861SOL    HW1 7515   0.112   3.062   2.023  1.9845 -0.2803 -0.9911
 1861SOL    HW2 7516   0.110   3.125   2.160 -0.2823 -2.5779  0.1208
 1862SOL     OW 7517   5.670   2.503   2.339 -0.1107 -0.2952 -1.0362
 1862SOL    HW1 7518   5.667   2.413   2.305 -2.1544 -1.7569  2.4514
 1862SOL    HW2 7519   5.581   2.519   2.371  1.0833  1.4962  1.7488
 1863SOL     OW 7520   0.683   4.646   1.282  0.4038 -0.0751  0.3308
 1863SOL    HW1 7521   0.712   4.723   1.331  0.7674  1.0593 -1.5774
 1863SOL    HW2 7522   0.764   4.603   1.254  0.2564 -2.1935  2.7910
 1864SOL     OW 7523   7.412   3.383   6.471  0.5625 -0.0281 -0.2675
 1864SOL    HW1 7524   7.333   3.406   6.422 -1.5733  0.4203  3.0064
 1864SOL    HW2 7525   7.409   3.439   6.549  2.6249 -1.9340  1.3287
 1865SOL     OW 7526   2.062   6.798   0.104 -0.4494 -0.5759 -0.2425
 1865SOL    HW1 7527   2.095   6.887   0.119 -0.0935 -0.9310  1.1847
 1865SOL    HW2 7528   1.971   6.801   0.133 -0.8049 -0.3875 -1.3235
 1866SOL     OW 7529   0.428   2.658   1.801 -0.7530  0.3843  0.1667
 1866SOL    HW1 7530   0.502   2.625   1.853  0.7197  2.6409 -0.3419
 1866SOL    HW2 7531   0.391   2.580   1.760  0.8459 -0.9222  1.0781
 1867SOL     OW 7532   4.611   3.822   2.196 -0.7240  0.3270 -0.2555
 1867SOL    HW1 7533   4.601   3.823   2.291 -1.0685  0.0799 -0.2903
 1867SOL    HW2 7534   4.581   3.909   2.168 -1.1399  0.2054 -0.1909
 1868SOL     OW 7535   8.791   5.126   0.808 -0.1876  0.3807 -0.0714
 1868SOL    HW1 7536   8.732   5.052   0.793  0.0244  0.0996  0.4710
 1868SOL    HW2 7537   8.873   5.099   0.767 -0.0621  0.2452  0.2645
 1869SOL     OW 7538   3.343   5.665   1.850 -0.0050 -0.2173 -0.5420
 1869SOL    HW1 7539   3.292   5.597   1.894  0.9579 -1.2301 -0.9712
 1869SOL    HW2 7540   3.434   5.641   1.866  0.3502  0.6454 -1.2079
 1870SOL     OW 7541   5.857   4.963   4.090 -0.0989  0.0089 -0.4669
 1870SOL    HW1 7542   5.797   5.011   4.033  0.2635  2.9323  1.3864
 1870SOL    HW2 7543   5.940   4.965   4.044 -0.5237 -0.5443 -1.2755
 1871SOL     OW 7544   5.233   1.119   4.658  0.6969  0.6880 -0.2225
 1871SOL    HW1 7545   5.288   1.166   4.594  0.1178  1.6879 -0.0031
 1871SOL    HW2 7546   5.203   1.187   4.718 -1.6704  0.3732 -0.9452
 1872SOL     OW 7547   4.610   2.306   8.323  0.0995  0.1138 -0.7158
 1872SOL    HW1 7548   4.683   2.306   8.385 -1.6671  0.2421  1.4998
 1872SOL    HW2 7549   4.553   2.237   8.355 -0.9229  0.2534 -2.1873
 1873SOL     OW 7550   4.173   2.335   6.602  0.1195  0.0845  0.3894
 1873SOL    HW1 7551   4.196   2.246   6.629 -0.2205  0.1826  0.9979
 1873SOL    HW2 7552   4.239   2.391   6.643 -0.0351  0.1747  0.5150
 1874SOL     OW 7553   8.507   0.941   8.610  0.5269 -0.2287  0.6818
 1874SOL    HW1 7554   8.442   0.994   8.564  0.8026  0.5435  1.1486
 1874SOL    HW2 7555   8.516   0.984   8.695 -0.0429 -1.6705  1.5120
 1875SOL     OW 7556   7.842   2.343   1.770 -0.1736  0.0348 -0.2291
 1875SOL    HW1 7557   7.808   2.419   1.817 -0.6712  0.0426 -0.5941
 1875SOL    HW2 7558   7.936   2.344   1.787  0.1486  1.8860 -1.8749
 1876SOL     OW 7559   8.275   6.100   1.962 -0.5829 -0.0200  0.0444
 1876SOL    HW1 7560   8.214   6.172   1.979  0.5634  0.8963  0.3900
 1876SOL    HW2 7561   8.351   6.142   1.923  0.5889 -0.8713  1.3267
 1877SOL     OW 7562   7.718   1.307   5.448 -0.2812  0.0754 -0.2495
 1877SOL    HW1 7563   7.689   1.388   5.489  0.6092  0.8453 -1.0925
 1877SOL    HW2 7564   7.652   1.288   5.381  0.6858  1.4000 -1.6388
 1878SOL     OW 7565   5.114   6.533   4.412 -0.7274 -0.1172  0.4484
 1878SOL    HW1 7566   5.147   6.520   4.501  0.9644 -0.6478 -0.2189
 1878SOL    HW2 7567   5.168   6.603   4.376 -1.3936  0.0941 -0.1680
 1879SOL     OW 7568   1.861   7.190   4.426 -0.1413  0.2480  0.3190
 1879SOL    HW1 7569   1.821   7.265   4.468  1.0447  2.0144 -1.5122
 1879SOL    HW2 7570   1.952   7.191   4.457  0.4188  0.8411 -1.2429
 1880SOL     OW 7571   0.303   1.057   8.262  0.3388 -0.2982 -0.1634
 1880SOL    HW1 7572   0.284   0.981   8.207  1.9367 -1.6004  0.9637
 1880SOL    HW2 7573   0.326   1.020   8.347  2.5250  1.3193  0.0463
 1881SOL     OW 7574   1.328   8.750   3.210  0.1684 -0.4231  0.1028
 1881SOL    HW1 7575   1.283   8.703   3.280 -0.2951 -1.5462 -0.9127
 1881SOL    HW2 7576   1.385   8.685   3.170  0.4059  0.1926 -0.5789
 1882SOL     OW 7577   4.249   0.240   6.305 -0.6818 -0.3189  0.1522
 1882SOL    HW1 7578   4.190   0.234   6.380 -0.1220 -0.7797  0.5622
 1882SOL    HW2 7579   4.322   0.293   6.336 -0.8853  0.2964 -0.3718
 1883SOL     OW 7580   8.139   4.042   2.852  0.3741 -0.2551  0.2377
 1883SOL    HW1 7581   8.045   4.055   2.853  0.2674 -0.6701 -1.5178
 1883SOL    HW2 7582   8.176   4.129   2.836  0.2688 -0.1808  0.3975
 1884SOL     OW 7583   0.781   5.869   2.594 -0.0230  0.1642  0.0500
 1884SOL    HW1 7584   0.875   5.883   2.605 -0.2838  1.3505  0.8911
 1884SOL    HW2 7585   0.771   5.848   2.501  1.0560  0.0675 -0.0602
 1885SOL     OW 7586   2.740   1.401   3.796  0.3185  0.0464  0.1903
 1885SOL    HW1 7587   2.664   1.448   3.762  0.7585 -0.8568 -2.2201
 1885SOL    HW2 7588   2.729   1.405   3.892 -3.0080 -0.4248 -0.0226
 1886SOL     OW 7589   1.019   7.151   5.634 -0.5054 -0.1105 -0.3807
 1886SOL    HW1 7590   0.944   7.207   5.650  0.5706  0.8090  1.7744
 1886SOL    HW2 7591   1.055   7.183   5.551 -0.9219  1.2279 -0.0686
 1887SOL     OW 7592   8.690   0.695   3.342 -0.2099  0.4061  0.0191
 1887SOL    HW1 7593   8.621   0.693   3.275  0.5792  0.4222 -0.8140
 1887SOL    HW2 7594   8.763   0.648   3.302 -0.0005 -0.3252  1.2068
 1888SOL     OW 7595   0.122   8.314   1.041 -0.3539 -0.2819 -0.1013
 1888SOL    HW1 7596   0.211   8.307   1.006 -0.3446  0.2945 -0.2152
 1888SOL    HW2 7597   0.066   8.283   0.970 -0.3164  0.6092 -0.5409
 1889SOL     OW 7598   4.993   8.224   3.297  0.4994  0.4986 -0.3525
 1889SOL    HW1 7599   4.940   8.264   3.228  0.5136  1.2344  0.0598
 1889SOL    HW2 7600   5.070   8.190   3.251 -0.0210 -0.0243 -0.8599
 1890SOL     OW 7601   7.573   4.356   4.663  0.4347  0.2282 -0.2837
 1890SOL    HW1 7602   7.554   4.306   4.742  0.7570  0.3869 -0.1064
 1890SOL    HW2 7603   7.633   4.424   4.692  1.3339 -0.3053 -0.8596
 1891SOL     OW 7604   8.384   7.025   4.001 -0.7097  0.2204  0.4660
 1891SOL    HW1 7605   8.441   7.084   3.953  1.6654 -1.0974  1.5017
 1891SOL    HW2 7606   8.392   6.941   3.956  1.0524 -0.8716  2.6435
 1892SOL     OW 7607   4.119   8.017   7.086  0.3854  0.2496 -0.4055
 1892SOL    HW1 7608   4.041   7.972   7.053  0.5922 -0.0015 -0.5669
 1892SOL    HW2 7609   4.155   7.957   7.151  0.7640  0.0933 -0.7516
 1893SOL     OW 7610   6.337   4.369   4.066  0.8218  0.1323  0.0527
 1893SOL    HW1 7611   6.279   4.422   4.120  0.1554  0.1176 -0.6406
 1893SOL    HW2 7612   6.310   4.279   4.082 -0.5177  0.2103 -1.5691
 1894SOL     OW 7613   2.762   5.734   6.847  0.0873  0.3253 -0.5155
 1894SOL    HW1 7614   2.669   5.710   6.854 -0.2666  1.3090 -1.5828
 1894SOL    HW2 7615   2.808   5.650   6.844 -0.8108 -0.1774 -0.6040
 1895SOL     OW 7616   8.538   2.196   5.991 -0.7762  0.0358  0.0548
 1895SOL    HW1 7617   8.585   2.139   5.932 -1.6661  0.1077 -0.7542
 1895SOL    HW2 7618   8.536   2.281   5.946 -1.4969  0.0783  0.1468
 1896SOL     OW 7619   7.539   1.262   0.449 -0.2985  0.1055 -0.2927
 1896SOL    HW1 7620   7.519   1.171   0.473 -1.2635  0.1478 -0.8843
 1896SOL    HW2 7621   7.590   1.295   0.523  0.5863 -1.0858 -0.3265
 1897SOL     OW 7622   0.951   0.454   3.509  0.4698 -0.7337 -1.0465
 1897SOL    HW1 7623   0.871   0.451   3.456  0.1652  2.2036 -0.9452
 1897SOL    HW2 7624   1.020   0.420   3.452 -0.7104 -2.7591 -1.3453
 1898SOL     OW 7625   6.968   4.424   4.297  0.2272 -0.0328 -0.3016
 1898SOL    HW1 7626   6.925   4.367   4.362  1.3464  0.3472  0.8246
 1898SOL    HW2 7627   7.009   4.363   4.236 -0.5538 -0.4037 -0.4784
 1899SOL     OW 7628   3.204   7.969   3.423 -0.1291  0.5214  0.4147
 1899SOL    HW1 7629   3.193   7.879   3.394 -1.3617  0.9436 -0.5056
 1899SOL    HW2 7630   3.263   7.963   3.499 -1.4288 -1.2073  1.3599
 1900SOL     OW 7631   1.315   2.314   6.790 -0.5288 -0.1293  0.3342
 1900SOL    HW1 7632   1.396   2.329   6.741 -0.3751 -1.4694  0.1342
 1900SOL    HW2 7633   1.296   2.398   6.832  1.6448 -0.1178  1.4162
 1901SOL     OW 7634   5.945   2.513   1.000 -0.0147  0.6267  0.6892
 1901SOL    HW1 7635   5.914   2.433   0.957 -2.3371  2.4529 -1.2658
 1901SOL    HW2 7636   5.903   2.511   1.086 -1.5848  0.6309 -0.0598
 1902SOL     OW 7637   5.107   5.385   7.731  0.1399  0.0271  0.3900
 1902SOL    HW1 7638   5.147   5.407   7.647 -1.7573 -2.6410 -1.3683
 1902SOL    HW2 7639   5.167   5.321   7.770  0.1922 -0.0144  0.2419
 1903SOL     OW 7640   7.854   6.079   5.204 -0.1919 -0.0160  0.2422
 1903SOL    HW1 7641   7.768   6.120   5.204  0.4492  1.3659 -0.3444
 1903SOL    HW2 7642   7.870   6.056   5.112  1.1509  2.1483 -0.1239
 1904SOL     OW 7643   6.259   8.767   4.689 -0.0648  0.3290 -0.7793
 1904SOL    HW1 7644   6.191   8.800   4.748 -0.6203 -0.5180 -0.9393
 1904SOL    HW2 7645   6.336   8.757   4.746 -0.5112 -0.1902 -0.2535
 1905SOL     OW 7646   4.857   8.858   5.729  0.0935 -0.3840  0.0245
 1905SOL    HW1 7647   4.842   8.767   5.703 -0.5814  0.0516 -1.1884
 1905SOL    HW2 7648   4.819   8.864   5.817 -2.3722 -0.6278 -0.9269
 1906SOL     OW 7649   7.538   6.904   3.760  0.0723  0.1115  0.0786
 1906SOL    HW1 7650   7.576   6.992   3.762  1.6860 -0.5394  1.4098
 1906SOL    HW2 7651   7.518   6.885   3.852 -1.6406 -0.3675 -0.3642
 1907SOL     OW 7652   1.816   3.217   4.534 -0.1436  0.0157  0.5588
 1907SOL    HW1 7653   1.805   3.177   4.448 -2.0943  1.9462 -0.1695
 1907SOL    HW2 7654   1.904   3.190   4.562  0.8517 -0.0966 -2.3485
 1908SOL     OW 7655   4.447   1.785   6.744  0.3157  1.0506  0.0180
 1908SOL    HW1 7656   4.435   1.836   6.665  0.9846 -0.0289 -0.8092
 1908SOL    HW2 7657   4.432   1.847   6.816 -3.6333  1.3481 -0.8409
 1909SOL     OW 7658   8.465   3.470   7.738  0.0086 -0.0320  0.4213
 1909SOL    HW1 7659   8.549   3.429   7.719  0.3203  0.6563  0.2692
 1909SOL    HW2 7660   8.469   3.492   7.831  0.9549  2.0717 -0.0537
 1910SOL     OW 7661   8.784   3.286   8.846 -0.0420  0.1723  0.3747
 1910SOL    HW1 7662   8.739   3.296   8.930  0.2224 -0.6201  0.6209
 1910SOL    HW2 7663   8.813   3.374   8.824  0.1319  0.3475  1.2626
 1911SOL     OW 7664   0.341   1.982   1.232  0.3568  0.0787  0.0228
 1911SOL    HW1 7665   0.324   2.018   1.319 -0.3102  0.1747 -0.1380
 1911SOL    HW2 7666   0.300   2.044   1.171  1.3083  0.3095 -0.3990
 1912SOL     OW 7667   8.455   6.651   4.632 -0.1543  0.3604  0.5838
 1912SOL    HW1 7668   8.399   6.641   4.555 -0.3804  1.1112  0.6513
 1912SOL    HW2 7669   8.415   6.721   4.683  0.7176  0.7536  0.7442
 1913SOL     OW 7670   5.760   3.658   4.454 -0.7093  0.1822 -0.2499
 1913SOL    HW1 7671   5.764   3.632   4.362  1.4162 -0.4321 -0.0347
 1913SOL    HW2 7672   5.850   3.680   4.477 -1.4021  1.5684  1.3676
 1914SOL     OW 7673   8.417   7.808   8.822 -0.2620  0.2278  0.2798
 1914SOL    HW1 7674   8.493   7.780   8.772 -0.5640  0.9551 -0.6204
 1914SOL    HW2 7675   8.414   7.749   8.898  1.0209  0.0171  0.1789
 1915SOL     OW 7676   8.334   6.642   4.394 -0.9317  0.1352 -0.1298
 1915SOL    HW1 7677   8.336   6.559   4.347 -1.0322  0.8493 -1.4422
 1915SOL    HW2 7678   8.404   6.694   4.354 -1.9293  1.2620 -0.4470
 1916SOL     OW 7679   2.240   7.398   2.512 -0.5096  0.3036  0.1608
 1916SOL    HW1 7680   2.276   7.485   2.496 -0.2409  0.3604  1.0473
 1916SOL    HW2 7681   2.205   7.402   2.601  0.4155 -0.7946  0.5871
 1917SOL     OW 7682   7.440   7.301   5.265  0.2175  0.3423 -0.0160
 1917SOL    HW1 7683   7.519   7.296   5.319 -1.2130  1.2651  2.3022
 1917SOL    HW2 7684   7.380   7.357   5.315 -1.3525  0.9530 -2.4354
 1918SOL     OW 7685   5.695   4.547   1.624 -0.1997  0.3250 -0.1637
 1918SOL    HW1 7686   5.706   4.595   1.542  0.5116 -1.0125 -0.8772
 1918SOL    HW2 7687   5.766   4.484   1.625  1.1521  1.7321  2.5644
 1919SOL     OW 7688   7.480   2.822   6.439 -0.3353 -0.8067  0.0535
 1919SOL    HW1 7689   7.393   2.845   6.406 -0.6488 -1.2928  0.5313
 1919SOL    HW2 7690   7.526   2.787   6.363 -0.1628  0.4967 -0.4705
 1920SOL     OW 7691   8.208   6.598   8.686 -0.7082  0.4401 -0.5006
 1920SOL    HW1 7692   8.146   6.555   8.628 -1.7619  2.0710 -0.6365
 1920SOL    HW2 7693   8.183   6.690   8.684  0.0738  0.7421  1.4949
 1921SOL     OW 7694   0.153   7.695   8.230  0.4742  0.6760  0.1245
 1921SOL    HW1 7695   0.192   7.707   8.144  1.1127 -1.8428 -0.0253
 1921SOL    HW2 7696   0.211   7.634   8.275 -0.9472  0.2869  1.5575
 1922SOL     OW 7697   1.135   4.698   0.041 -0.5777 -0.4377  0.2768
 1922SOL    HW1 7698   1.105   4.610   0.066 -0.1141 -0.3059  1.3416
 1922SOL    HW2 7699   1.206   4.717   0.101  0.1907  0.1620 -0.7821
 1923SOL     OW 7700   1.404   3.882   2.045 -0.4941 -0.2619  0.4007
 1923SOL    HW1 7701   1.361   3.967   2.046 -0.4482 -0.1195 -2.3614
 1923SOL    HW2 7702   1.332   3.819   2.033 -0.4713 -0.6148  1.8846
 1924SOL     OW 7703   6.362   6.398   6.195 -0.2096  0.4496 -0.1115
 1924SOL    HW1 7704   6.341   6.391   6.102  3.2115  0.3966 -0.9993
 1924SOL    HW2 7705   6.364   6.308   6.226  0.2900  0.3413 -0.4393
 1925SOL     OW 7706   5.167   6.069   7.444 -0.0935 -0.0701 -0.4126
 1925SOL    HW1 7707   5.140   6.013   7.517 -1.3157  0.0245 -0.7618
 1925SOL    HW2 7708   5.085   6.103   7.409  0.2604 -1.8814 -3.2547
 1926SOL     OW 7709   0.882   1.065   2.645 -0.7194 -0.2480  0.3422
 1926SOL    HW1 7710   0.868   1.104   2.731 -1.2152 -1.3449  0.7813
 1926SOL    HW2 7711   0.899   1.139   2.587  0.4085  0.4574  1.5193
 1927SOL     OW 7712   3.795   1.209   7.121  0.5978  0.3342  0.2975
 1927SOL    HW1 7713   3.852   1.268   7.071  1.1541  0.7898  1.4308
 1927SOL    HW2 7714   3.708   1.248   7.114  0.4770 -0.1187 -1.0676
 1928SOL     OW 7715   3.594   0.357   7.663 -0.8090  0.3903 -0.1843
 1928SOL    HW1 7716   3.525   0.321   7.719  0.0359  0.5183  0.9814
 1928SOL    HW2 7717   3.551   0.373   7.579 -1.4166 -2.6660 -0.5751
 1929SOL     OW 7718   2.473   2.974   1.302 -0.0571  0.2175  0.2482
 1929SOL    HW1 7719   2.494   2.899   1.357  1.4119  0.3263 -0.1324
 1929SOL    HW2 7720   2.520   2.958   1.220 -0.8542  0.8815 -0.3675
 1930SOL     OW 7721   8.138   1.558   3.555 -0.1298  0.4645  0.2275
 1930SOL    HW1 7722   8.213   1.504   3.579  0.5308  1.4089  0.3463
 1930SOL    HW2 7723   8.073   1.542   3.623 -0.5483 -1.2970 -0.5197
 1931SOL     OW 7724   5.073   7.357   3.096 -0.2404  0.4652  0.1627
 1931SOL    HW1 7725   5.105   7.426   3.155 -0.3374 -0.8178  1.7651
 1931SOL    HW2 7726   5.130   7.365   3.019  2.3982 -0.1245  1.8998
 1932SOL     OW 7727   6.514   1.815   6.309 -0.2691  0.1139 -0.6480
 1932SOL    HW1 7728   6.502   1.728   6.270  0.2546  0.0068 -0.5738
 1932SOL    HW2 7729   6.431   1.833   6.354 -1.3263  0.7124 -2.7087
 1933SOL     OW 7730   8.626   3.329   5.178  0.8219 -0.4091  0.1000
 1933SOL    HW1 7731   8.663   3.375   5.103 -0.2384  0.6266  0.1710
 1933SOL    HW2 7732   8.539   3.367   5.188 -0.0127 -2.2569  0.3427
 1934SOL     OW 7733   3.395   1.409   8.611 -0.4666  0.2992 -0.1239
 1934SOL    HW1 7734   3.324   1.358   8.648 -1.3647  1.8264  0.3413
 1934SOL    HW2 7735   3.450   1.345   8.566 -2.3264 -0.8693 -0.8219
 1935SOL     OW 7736   2.673   4.605   3.313 -0.7561  0.5829  0.2248
 1935SOL    HW1 7737   2.668   4.531   3.253  1.2331 -2.1209  3.0830
 1935SOL    HW2 7738   2.590   4.602   3.362 -1.1039  0.9461 -0.3210
 1936SOL     OW 7739   6.855   1.208   3.279  0.1535 -0.1345 -0.7361
 1936SOL    HW1 7740   6.839   1.301   3.295 -1.4815 -0.4452 -0.3824
 1936SOL    HW2 7741   6.930   1.206   3.220  0.8897  1.3600  0.0866
 1937SOL     OW 7742   6.227   3.401   1.239 -0.7134 -0.0454 -0.3185
 1937SOL    HW1 7743   6.199   3.476   1.291 -1.1976 -1.3222  1.3374
 1937SOL    HW2 7744   6.322   3.412   1.231 -0.7200  0.5298  0.2726
 1938SOL     OW 7745   6.311   3.725   8.717 -0.0025  0.0329 -0.0774
 1938SOL    HW1 7746   6.237   3.745   8.774  0.6814  0.3834  0.7057
 1938SOL    HW2 7747   6.349   3.646   8.753 -1.6594 -1.8689 -2.1657
 1939SOL     OW 7748   8.748   6.626   2.790 -0.1637 -0.6599 -0.8390
 1939SOL    HW1 7749   8.671   6.640   2.735 -1.7843  0.3589  1.5229
 1939SOL    HW2 7750   8.716   6.569   2.861  1.4147 -0.6931 -0.1154
 1940SOL     OW 7751   0.111   1.445   1.111 -0.4471 -0.2362  0.1877
 1940SOL    HW1 7752   0.020   1.419   1.126 -0.7044 -0.2369 -1.2011
 1940SOL    HW2 7753   0.137   1.491   1.191 -1.2936 -1.2307  1.0520
 1941SOL     OW 7754   0.431   1.064   5.304 -0.5154  0.0105  0.0182
 1941SOL    HW1 7755   0.342   1.031   5.317  0.4654 -2.3387  1.2284
 1941SOL    HW2 7756   0.430   1.097   5.214 -2.4977 -0.2740 -0.1232
 1942SOL     OW 7757   6.641   0.167   5.014  0.3695 -0.7895  0.1009
 1942SOL    HW1 7758   6.601   0.215   4.941  1.1126  1.8434  1.2924
 1942SOL    HW2 7759   6.731   0.201   5.017  0.1516 -0.2808  2.6520
 1943SOL     OW 7760   3.144   8.239   0.157 -0.2757  0.0417 -0.5969
 1943SOL    HW1 7761   3.122   8.312   0.215  0.7923 -1.0284  1.2350
 1943SOL    HW2 7762   3.227   8.206   0.191  0.3393 -0.7234 -2.6982
 1944SOL     OW 7763   1.758   3.731   5.118 -0.2523 -0.0242 -0.1878
 1944SOL    HW1 7764   1.770   3.747   5.024  1.2698 -3.2126 -0.6775
 1944SOL    HW2 7765   1.734   3.638   5.123  1.2885 -0.3764  2.6372
 1945SOL     OW 7766   5.664   5.338   6.506 -0.1464  0.1503 -0.5507
 1945SOL    HW1 7767   5.708   5.259   6.474  0.5737  0.4922 -0.4297
 1945SOL    HW2 7768   5.680   5.404   6.438 -0.4874  0.2783 -0.5112
 1946SOL     OW 7769   7.815   3.317   1.994 -0.2199  0.0908  0.4775
 1946SOL    HW1 7770   7.896   3.326   1.945 -0.8499 -0.3191 -0.6996
 1946SOL    HW2 7771   7.758   3.266   1.936 -0.9549 -0.5463  1.7167
 1947SOL     OW 7772   2.219   0.491   3.477  0.5775  0.2758 -0.1758
 1947SOL    HW1 7773   2.275   0.417   3.504 -0.2039 -0.2749 -0.0294
 1947SOL    HW2 7774   2.227   0.554   3.548  2.1425  0.8514 -0.8201
 1948SOL     OW 7775   1.852   7.165   4.980  0.5345  0.2348  0.2947
 1948SOL    HW1 7776   1.865   7.260   4.979  1.7831  0.0980 -2.3049
 1948SOL    HW2 7777   1.779   7.150   4.920  1.2053 -0.5260 -0.3502
 1949SOL     OW 7778   2.826   2.546   4.552  0.4942 -0.2363  0.0951
 1949SOL    HW1 7779   2.912   2.577   4.579  0.5516 -0.4882  0.2000
 1949SOL    HW2 7780   2.770   2.564   4.628  0.7268 -1.2561  0.5168
 1950SOL     OW 7781   2.816   5.942   3.489  0.2885  0.0979  0.1677
 1950SOL    HW1 7782   2.788   5.970   3.577  0.4879  4.2750 -0.8746
 1950SOL    HW2 7783   2.737   5.947   3.436  0.7363  0.5536 -0.4679
 1951SOL     OW 7784   0.597   4.440   3.655  0.1731  0.7311  0.0052
 1951SOL    HW1 7785   0.570   4.356   3.616 -1.7173  1.2158  0.1382
 1951SOL    HW2 7786   0.551   4.442   3.739 -0.1214  2.0563 -0.1708
 1952SOL     OW 7787   3.776   4.441   3.029 -0.1206  0.4031  0.0738
 1952SOL    HW1 7788   3.710   4.393   2.980  1.3176 -0.5507 -1.0230
 1952SOL    HW2 7789   3.834   4.373   3.064  0.7701  1.2349  0.2694
 1953SOL     OW 7790   0.954   8.325   0.951 -0.2339  0.1358 -0.2925
 1953SOL    HW1 7791   1.034   8.273   0.958  0.6478  1.4273 -0.5842
 1953SOL    HW2 7792   0.972   8.387   0.880 -1.2192  0.9337  0.1365
 1954SOL     OW 7793   4.072   5.201   5.409 -0.7643 -0.3731 -0.7324
 1954SOL    HW1 7794   4.097   5.140   5.478 -1.4801  0.7400  0.5690
 1954SOL    HW2 7795   4.105   5.286   5.439  0.6213 -0.1311 -2.7154
 1955SOL     OW 7796   7.355   5.366   4.148  0.5299  0.9612  0.0234
 1955SOL    HW1 7797   7.339   5.386   4.056 -0.0204  0.7310  0.0643
 1955SOL    HW2 7798   7.322   5.276   4.158  0.2968  1.1018  0.5196
 1956SOL     OW 7799   3.174   2.028   2.459 -0.0681 -0.3533 -0.5095
 1956SOL    HW1 7800   3.137   1.956   2.510 -0.6071 -0.1303 -0.5794
 1956SOL    HW2 7801   3.187   1.991   2.371 -2.3122  0.1950 -1.1342
 1957SOL     OW 7802   2.536   5.863   2.204  0.8544 -0.3605 -0.1308
 1957SOL    HW1 7803   2.451   5.907   2.194 -0.9436 -3.4636 -0.0062
 1957SOL    HW2 7804   2.540   5.803   2.130  2.4553 -1.0437  0.4793
 1958SOL     OW 7805   6.009   4.866   1.010 -0.7055  0.5294 -0.1842
 1958SOL    HW1 7806   6.002   4.939   0.948  1.7025  0.2276 -0.9293
 1958SOL    HW2 7807   6.007   4.788   0.955 -0.0463  0.1946  0.2493
 1959SOL     OW 7808   8.549   6.620   7.508 -0.0284 -0.6539  0.0249
 1959SOL    HW1 7809   8.456   6.644   7.507  0.3456  0.9798 -1.4425
 1959SOL    HW2 7810   8.557   6.555   7.439 -0.3019 -1.9172  1.1450
 1960SOL     OW 7811   2.815   5.876   8.422  0.1596 -0.1681 -0.7258
 1960SOL    HW1 7812   2.907   5.900   8.431  0.1214 -0.3059  0.0868
 1960SOL    HW2 7813   2.802   5.865   8.328  0.8596  0.2980 -0.8827
 1961SOL     OW 7814   6.468   3.535   0.942  0.0580 -0.3389  0.1394
 1961SOL    HW1 7815   6.517   3.503   0.867 -0.0634 -1.6697  0.6024
 1961SOL    HW2 7816   6.380   3.499   0.931 -0.1570  0.0385  0.5647
 1962SOL     OW 7817   3.531   5.151   5.420 -0.0748 -0.2560  0.3840
 1962SOL    HW1 7818   3.543   5.218   5.487  1.7360  0.7215 -0.8415
 1962SOL    HW2 7819   3.619   5.125   5.396 -0.7016 -1.2236 -0.9884
 1963SOL     OW 7820   3.129   4.690   3.914  0.5392  0.5910 -0.2010
 1963SOL    HW1 7821   3.046   4.688   3.961  0.4873  0.7608 -0.2835
 1963SOL    HW2 7822   3.134   4.605   3.869  0.6883  0.3419  0.2778
 1964SOL     OW 7823   8.545   5.117   4.629  0.2119 -0.6945  0.2239
 1964SOL    HW1 7824   8.586   5.039   4.590 -1.3749 -2.3912  1.7564
 1964SOL    HW2 7825   8.570   5.113   4.721 -1.0681 -0.2180  0.6133
 1965SOL     OW 7826   4.736   8.539   5.363  0.1275  0.7168  0.6680
 1965SOL    HW1 7827   4.700   8.624   5.387 -0.0227  0.6112  0.8184
 1965SOL    HW2 7828   4.678   8.508   5.292  0.6781  1.1096  0.0407
 1966SOL     OW 7829   1.301   0.914   1.740  0.0437 -0.1784  0.0318
 1966SOL    HW1 7830   1.264   0.997   1.709 -1.7409 -0.9016  0.1417
 1966SOL    HW2 7831   1.320   0.865   1.660 -2.2231 -1.0385 -0.0503
 1967SOL     OW 7832   1.215   0.187   1.654 -0.4280  0.2482 -0.2552
 1967SOL    HW1 7833   1.248   0.135   1.580 -0.6242 -0.7974  0.3623
 1967SOL    HW2 7834   1.147   0.242   1.616  0.6120  0.9518 -1.1586
 1968SOL     OW 7835   5.352   8.525   0.560  0.1868 -0.4131  0.2871
 1968SOL    HW1 7836   5.279   8.481   0.515  0.0939 -1.3039  1.2673
 1968SOL    HW2 7837   5.310   8.598   0.606  0.2438  0.3436 -0.8292
 1969SOL     OW 7838   8.800   4.399   8.189  0.1647  0.2887 -0.2842
 1969SOL    HW1 7839   8.805   4.350   8.107  1.0440 -0.9972  0.5099
 1969SOL    HW2 7840   8.742   4.348   8.245 -1.9371  2.0964 -0.6619
 1970SOL     OW 7841   0.861   6.762   1.102  0.6498 -0.3688 -0.6194
 1970SOL    HW1 7842   0.876   6.811   1.021  1.1770  1.2338  0.4163
 1970SOL    HW2 7843   0.769   6.777   1.124  0.8143  0.1933 -0.2959
 1971SOL     OW 7844   2.574   4.591   2.416 -0.5760 -0.4914  0.1249
 1971SOL    HW1 7845   2.628   4.538   2.474 -0.1081 -0.0972  0.0518
 1971SOL    HW2 7846   2.559   4.534   2.339 -1.0804 -0.9597  0.5611
 1972SOL     OW 7847   2.181   7.319   6.671 -0.2437 -0.4233 -0.3363
 1972SOL    HW1 7848   2.204   7.226   6.667 -0.5383 -0.6925  2.2040
 1972SOL    HW2 7849   2.090   7.320   6.699  0.1440  0.5840  1.0255
 1973SOL     OW 7850   2.423   1.661   2.779 -0.1003 -0.3427 -0.7351
 1973SOL    HW1 7851   2.429   1.568   2.757 -0.4654 -0.6105  0.2465
 1973SOL    HW2 7852   2.505   1.681   2.824  0.1073 -0.1085 -1.2111
 1974SOL     OW 7853   6.781   3.100   4.362 -0.1778 -0.9631 -0.0422
 1974SOL    HW1 7854   6.734   3.066   4.438 -1.8718 -1.1249 -1.1044
 1974SOL    HW2 7855   6.744   3.052   4.287  2.2990 -1.7161 -0.8881
 1975SOL     OW 7856   5.986   2.008   3.234 -0.3768  0.0684  0.0736
 1975SOL    HW1 7857   5.975   2.057   3.152 -0.6428 -1.5288 -0.8866
 1975SOL    HW2 7858   6.007   2.075   3.299  0.4109  1.3225 -1.4022
 1976SOL     OW 7859   5.820   8.442   2.543  0.2829 -0.5112  0.1084
 1976SOL    HW1 7860   5.856   8.360   2.577  0.7516 -1.0776 -1.6077
 1976SOL    HW2 7861   5.731   8.419   2.515  0.4639 -0.4941 -0.5071
 1977SOL     OW 7862   5.626   1.676   2.550  0.0417  0.3385 -0.4531
 1977SOL    HW1 7863   5.589   1.599   2.508  0.0540  0.7178 -1.1731
 1977SOL    HW2 7864   5.720   1.659   2.553  0.0268  0.2556 -0.4666
 1978SOL     OW 7865   0.913   3.199   1.548 -0.0447  0.4414  0.9982
 1978SOL    HW1 7866   0.958   3.150   1.617 -2.2560  1.8349  3.5801
 1978SOL    HW2 7867   0.845   3.139   1.517  0.2442  0.2240  0.7703
 1979SOL     OW 7868   0.382   4.519   7.256  0.5980 -0.1074  0.0406
 1979SOL    HW1 7869   0.357   4.461   7.184  0.3032  0.6628 -0.4955
 1979SOL    HW2 7870   0.474   4.541   7.239  1.1229 -1.4627  0.9867
 1980SOL     OW 7871   3.608   8.683   2.590  0.4101  0.4163  0.6316
 1980SOL    HW1 7872   3.674   8.694   2.659  1.3202  0.9360 -0.3026
 1980SOL    HW2 7873   3.544   8.752   2.607 -0.4438 -0.6801  2.1162
 1981SOL     OW 7874   6.201   4.355   2.347 -0.3404  0.3968  0.1430
 1981SOL    HW1 7875   6.123   4.333   2.295  1.0815  0.2854 -2.1005
 1981SOL    HW2 7876   6.222   4.274   2.394  1.0012 -1.1722 -2.8700
 1982SOL     OW 7877   0.650   5.885   8.853  0.3981  0.3930 -0.0361
 1982SOL    HW1 7878   0.694   5.967   8.830  0.5913  0.8402  1.7625
 1982SOL    HW2 7879   0.614   5.901   8.940  0.5754 -1.4721  0.4195
 1983SOL     OW 7880   7.018   0.875   7.822  0.1261  0.1457 -0.4010
 1983SOL    HW1 7881   7.092   0.830   7.780 -0.3776 -1.9962  0.8568
 1983SOL    HW2 7882   6.941   0.847   7.772 -0.0232  1.0496 -0.6899
 1984SOL     OW 7883   8.564   8.576   4.088  0.1882  0.4494  0.0405
 1984SOL    HW1 7884   8.492   8.568   4.026  1.2543  0.4089 -1.2386
 1984SOL    HW2 7885   8.616   8.497   4.075 -0.1100 -0.0690  1.7473
 1985SOL     OW 7886   1.388   5.157   5.280 -0.1836  0.9776 -0.1042
 1985SOL    HW1 7887   1.329   5.084   5.259 -0.7722  1.8745 -1.6859
 1985SOL    HW2 7888   1.336   5.235   5.264  0.7954  1.7774  0.5122
 1986SOL     OW 7889   8.764   5.841   6.483  0.2799 -0.0837 -0.4265
 1986SOL    HW1 7890   8.844   5.840   6.431  0.1542 -2.4564 -0.6682
 1986SOL    HW2 7891   8.748   5.749   6.505 -1.7460  0.4526  0.5949
 1987SOL     OW 7892   4.945   0.802   6.381  0.4971  0.1389  0.0551
 1987SOL    HW1 7893   4.878   0.835   6.441 -0.1648  0.1232 -0.6675
 1987SOL    HW2 7894   4.908   0.721   6.347  1.3072 -0.3791  0.3839
 1988SOL     OW 7895   2.861   4.188   5.381  0.7663 -0.5493 -0.4207
 1988SOL    HW1 7896   2.925   4.134   5.427  0.0323 -0.1378  1.1206
 1988SOL    HW2 7897   2.897   4.277   5.387  0.5581 -0.4632 -0.4541
 1989SOL     OW 7898   3.495   3.105   0.866  0.4614 -0.5304  0.6957
 1989SOL    HW1 7899   3.527   3.073   0.951  1.6937  1.4618  1.0648
 1989SOL    HW2 7900   3.404   3.130   0.882 -0.1027 -2.4519  0.7331
 1990SOL     OW 7901   0.134   4.936   3.059  0.3726 -0.0488 -0.1379
 1990SOL    HW1 7902   0.158   4.843   3.067 -0.7593 -0.3482 -0.0415
 1990SOL    HW2 7903   0.177   4.964   2.978  2.0408 -0.2070  0.6363
 1991SOL     OW 7904   0.599   5.416   8.097 -0.4445 -0.2225  0.3977
 1991SOL    HW1 7905   0.588   5.392   8.005 -0.1885  2.6378 -0.4749
 1991SOL    HW2 7906   0.538   5.359   8.144 -2.8626  0.2743 -1.8923
 1992SOL     OW 7907   8.707   8.541   0.594  0.0931 -0.3611 -0.1131
 1992SOL    HW1 7908   8.734   8.576   0.510 -1.1054 -0.4352 -0.5455
 1992SOL    HW2 7909   8.777   8.566   0.654 -0.5114  2.5185 -0.4588
 1993SOL     OW 7910   3.222   0.435   1.413 -0.2958 -0.4712 -0.2780
 1993SOL    HW1 7911   3.296   0.407   1.468 -0.5157  0.9236  0.8062
 1993SOL    HW2 7912   3.218   0.530   1.427 -0.8661 -0.1999 -2.1294
 1994SOL     OW 7913   4.027   3.015   2.282 -0.2978  0.5986  0.4073
 1994SOL    HW1 7914   4.110   3.047   2.247 -0.8592 -0.0022 -1.5662
 1994SOL    HW2 7915   3.968   3.010   2.207 -1.6634 -0.5002  1.4783
 1995SOL     OW 7916   0.480   1.142   2.219  0.4528  0.2078  0.4424
 1995SOL    HW1 7917   0.558   1.196   2.229  1.1282 -0.6656  0.0680
 1995SOL    HW2 7918   0.502   1.082   2.147 -0.4588 -0.2268  0.5140
 1996SOL     OW 7919   2.622   7.176   1.433 -0.5177  0.8771  0.1184
 1996SOL    HW1 7920   2.634   7.083   1.453 -2.6922  0.3078 -0.9154
 1996SOL    HW2 7921   2.657   7.186   1.344 -0.3911  1.0235  0.1848
 1997SOL     OW 7922   6.221   7.464   8.204  0.2685  0.0547  0.2474
 1997SOL    HW1 7923   6.179   7.405   8.267 -1.1624  1.2209  0.4565
 1997SOL    HW2 7924   6.191   7.433   8.118 -0.3096  0.3190  0.3457
 1998SOL     OW 7925   2.485   5.405   8.764 -0.0271 -0.1155  0.4346
 1998SOL    HW1 7926   2.445   5.486   8.796  1.8632  0.5306  1.2736
 1998SOL    HW2 7927   2.563   5.394   8.818  1.7492 -0.5289 -2.0675
 1999SOL     OW 7928   6.700   5.313   1.403  0.0302 -0.4724  0.3632
 1999SOL    HW1 7929   6.794   5.329   1.394 -0.1624  0.2556 -0.5160
 1999SOL    HW2 7930   6.671   5.375   1.469 -0.0255  0.0881 -0.1841
 2000SOL     OW 7931   0.008   5.518   6.834  0.2218 -0.0085 -0.2631
 2000SOL    HW1 7932   0.072   5.590   6.836 -0.7675  0.9073  2.4317
 2000SOL    HW2 7933  -0.062   5.549   6.777  0.4630  0.5416 -0.2618
 2001SOL     OW 7934   3.496   2.117   0.221  0.5682 -0.0250 -0.2719
 2001SOL    HW1 7935   3.521   2.043   0.276  0.4121  0.9086  1.1024
 2001SOL    HW2 7936   3.409   2.093   0.188  0.7454 -0.6802 -0.2897
 2002SOL     OW 7937   0.955   4.281   3.716  0.0115  0.0174 -0.1131
 2002SOL    HW1 7938   0.945   4.216   3.647 -0.1114  0.1362 -0.2063
 2002SOL    HW2 7939   0.993   4.357   3.673  1.2836 -0.4041  0.2211
 2003SOL     OW 7940   8.586   1.846   5.533 -0.1533 -0.1190  0.0457
 2003SOL    HW1 7941   8.519   1.783   5.560 -0.5754 -0.7867 -2.3437
 2003SOL    HW2 7942   8.589   1.839   5.438 -0.6254  3.9110 -0.4533
 2004SOL     OW 7943   4.520   8.196   5.839 -0.2842 -0.1518 -0.2423
 2004SOL    HW1 7944   4.518   8.133   5.911  0.9131  0.4181  0.3258
 2004SOL    HW2 7945   4.480   8.151   5.765 -2.7235 -0.3304  1.0944
 2005SOL     OW 7946   8.785   2.873   6.640  0.1521  0.4464  0.3494
 2005SOL    HW1 7947   8.783   2.810   6.568  1.4590 -0.4984  1.0995
 2005SOL    HW2 7948   8.877   2.877   6.666  0.3520  3.5861 -0.4232
 2006SOL     OW 7949   3.860   2.300   6.960  0.1030  0.5948  0.0451
 2006SOL    HW1 7950   3.789   2.263   7.013 -0.0655  0.5772 -0.1962
 2006SOL    HW2 7951   3.884   2.380   7.007  0.6528  0.0512  0.7225
 2007SOL     OW 7952   8.211   6.135   0.076  0.2511 -0.0365 -0.1961
 2007SOL    HW1 7953   8.179   6.100   0.159 -1.1750  0.7374 -0.3809
 2007SOL    HW2 7954   8.163   6.086   0.010 -1.9727  2.2851 -0.4598
 2008SOL     OW 7955   2.685   0.730   0.847  0.2298 -0.2314  0.0892
 2008SOL    HW1 7956   2.672   0.683   0.930  2.5908 -1.1851 -0.0080
 2008SOL    HW2 7957   2.742   0.674   0.796  0.6578  1.3813 -1.3007
 2009SOL     OW 7958   2.363   7.998   4.588  0.0779  0.1771  0.5105
 2009SOL    HW1 7959   2.314   8.045   4.520  0.4164  0.0612  0.1775
 2009SOL    HW2 7960   2.391   7.917   4.545 -0.0071 -0.0606  0.9025
 2010SOL     OW 7961   6.557   2.535   0.781 -0.6516  0.3767  0.0755
 2010SOL    HW1 7962   6.515   2.514   0.697 -1.2794  0.1879  0.4260
 2010SOL    HW2 7963   6.513   2.615   0.811 -1.4072 -0.3090  0.8658
 2011SOL     OW 7964   0.248   6.241   4.635 -0.7599 -0.0281  0.2181
 2011SOL    HW1 7965   0.187   6.262   4.706 -0.9538  0.2878 -0.0397
 2011SOL    HW2 7966   0.335   6.256   4.672 -0.8524 -0.0881  0.4613
 2012SOL     OW 7967   2.933   2.615   5.133 -0.1519  0.2772 -0.4371
 2012SOL    HW1 7968   2.883   2.686   5.093 -0.8071 -0.5581 -1.1278
 2012SOL    HW2 7969   2.992   2.586   5.063 -0.6615 -0.5863 -0.5149
 2013SOL     OW 7970   0.461   0.310   1.713  0.1628 -0.1580 -0.4591
 2013SOL    HW1 7971   0.382   0.327   1.661 -0.4955 -2.4828 -0.3415
 2013SOL    HW2 7972   0.457   0.216   1.733  0.2916  0.5873  3.9739
 2014SOL     OW 7973   1.520   7.443   1.184 -0.0756  0.2709 -0.2306
 2014SOL    HW1 7974   1.545   7.532   1.208  0.1909 -0.3879  2.1785
 2014SOL    HW2 7975   1.603   7.398   1.167 -0.2196  0.4900 -1.7006
 2015SOL     OW 7976   2.502   6.819   0.321  0.6310 -0.2647  0.0712
 2015SOL    HW1 7977   2.423   6.855   0.360  1.4253  0.0007  1.5230
 2015SOL    HW2 7978   2.504   6.728   0.350  0.0011 -0.7742 -1.3888
 2016SOL     OW 7979   5.211   1.187   1.476  0.2745 -0.0548  0.1322
 2016SOL    HW1 7980   5.224   1.184   1.571 -2.4167 -0.1828  0.5853
 2016SOL    HW2 7981   5.234   1.277   1.452  0.3197  0.1843  1.0154
 2017SOL     OW 7982   4.193   1.844   3.042  0.7386 -0.1508  0.3713
 2017SOL    HW1 7983   4.214   1.890   3.123  0.5013 -2.2072  1.6899
 2017SOL    HW2 7984   4.113   1.795   3.062 -0.4921  0.8093 -1.7796
 2018SOL     OW 7985   3.284   4.132   3.774  0.2833 -0.5041 -0.1277
 2018SOL    HW1 7986   3.258   4.216   3.735 -0.3574 -1.0322 -0.8645
 2018SOL    HW2 7987   3.365   4.152   3.820 -0.5447  0.8247  0.8280
 2019SOL     OW 7988   0.664   4.740   1.026  0.2866 -0.5280 -0.0942
 2019SOL    HW1 7989   0.756   4.767   1.025 -0.3347  1.7629 -0.0565
 2019SOL    HW2 7990   0.644   4.729   1.119  0.1885  0.2313 -0.0224
 2020SOL     OW 7991   4.825   6.166   0.632 -0.0535  0.1757  0.0846
 2020SOL    HW1 7992   4.746   6.220   0.631 -0.2852 -0.1589 -1.0471
 2020SOL    HW2 7993   4.896   6.228   0.613 -0.4685 -0.0738 -2.6863
 2021SOL     OW 7994   5.766   4.610   1.214  0.1848 -0.1945  0.0753
 2021SOL    HW1 7995   5.713   4.593   1.136  1.3407  1.4280 -1.1530
 2021SOL    HW2 7996   5.768   4.706   1.221  0.3853 -0.2917  1.9302
 2022SOL     OW 7997   5.552   3.430   3.996 -0.1006 -0.3703  0.2464
 2022SOL    HW1 7998   5.504   3.448   4.076  0.0202  2.0860 -0.1640
 2022SOL    HW2 7999   5.542   3.509   3.943  1.6670 -1.0402 -1.2238
 2023SOL     OW 8000   3.039   4.789   2.444  0.1356 -0.1103  0.3867
 2023SOL    HW1 8001   3.083   4.716   2.402 -0.9238  0.9465 -2.8502
 2023SOL    HW2 8002   3.108   4.833   2.494  1.7921 -0.8622 -1.1405
 2024SOL     OW 8003   0.158   0.308   3.322 -0.4802 -0.0156 -0.2243
 2024SOL    HW1 8004   0.206   0.225   3.325 -1.6270 -0.6771  0.5645
 2024SOL    HW2 8005   0.212   0.364   3.266  1.0203 -0.8323  0.3224
 2025SOL     OW 8006   5.107   6.203   8.392 -0.1283  0.2673 -0.0505
 2025SOL    HW1 8007   5.031   6.191   8.448  0.8855  1.4331  1.6921
 2025SOL    HW2 8008   5.110   6.298   8.376 -0.0394  0.0302 -1.6091
 2026SOL     OW 8009   2.653   8.173   4.277 -0.3628  0.4483 -0.2697
 2026SOL    HW1 8010   2.596   8.244   4.247  0.0247  0.6157 -0.6272
 2026SOL    HW2 8011   2.642   8.172   4.372 -1.2840  0.1918 -0.3680
 2027SOL     OW 8012   3.893   4.179   8.153 -0.5865 -0.2408 -0.0122
 2027SOL    HW1 8013   3.897   4.194   8.248 -1.7181  0.6756 -0.0718
 2027SOL    HW2 8014   3.809   4.135   8.140  0.0504 -1.3333 -0.4950
 2028SOL     OW 8015   6.835   2.862   5.621 -0.0293  0.2401 -0.0474
 2028SOL    HW1 8016   6.786   2.797   5.571  1.0298 -0.9308  0.3829
 2028SOL    HW2 8017   6.917   2.818   5.644  0.9643  1.9229 -0.2174
 2029SOL     OW 8018   2.023   5.940   6.681 -0.2208 -0.3058  0.2388
 2029SOL    HW1 8019   1.998   5.953   6.772 -1.5382 -0.7048 -0.0528
 2029SOL    HW2 8020   2.075   6.018   6.659  0.1323 -0.2246  1.3255
 2030SOL     OW 8021   0.501   2.573   7.353  0.6002  0.3739 -0.0196
 2030SOL    HW1 8022   0.523   2.666   7.353  0.3496  0.4363 -0.6318
 2030SOL    HW2 8023   0.562   2.533   7.290  1.0030  0.0467  0.5653
 2031SOL     OW 8024   6.355   6.661   8.010  1.0569 -0.2564 -0.4376
 2031SOL    HW1 8025   6.265   6.655   7.978  0.4693  1.1871  0.7973
 2031SOL    HW2 8026   6.347   6.659   8.105  2.3000  0.1834 -0.3014
 2032SOL     OW 8027   5.256   4.381   2.436 -0.1113  0.0956 -0.0469
 2032SOL    HW1 8028   5.319   4.414   2.500  1.2994 -2.4268  0.0107
 2032SOL    HW2 8029   5.197   4.326   2.488  0.1810 -0.8307 -0.6637
 2033SOL     OW 8030   1.269   6.949   4.079 -0.8690 -0.2095  0.3506
 2033SOL    HW1 8031   1.174   6.961   4.077 -1.0574 -1.4774  0.4957
 2033SOL    HW2 8032   1.282   6.877   4.141 -0.0480 -1.7869 -1.5228
 2034SOL     OW 8033   3.389   6.129   6.161 -0.2776  0.2889 -0.2758
 2034SOL    HW1 8034   3.420   6.142   6.072  0.5218 -1.9861 -0.3986
 2034SOL    HW2 8035   3.308   6.080   6.152  0.7712 -1.6629  0.2105
 2035SOL     OW 8036   2.626   8.681   3.934 -0.4205  0.4868 -0.0681
 2035SOL    HW1 8037   2.719   8.689   3.915 -0.4037  2.2571  0.5678
 2035SOL    HW2 8038   2.602   8.594   3.902  1.8565 -0.8228  1.5201
 2036SOL     OW 8039   6.135   3.201   4.517  0.0207  0.6936  0.3189
 2036SOL    HW1 8040   6.185   3.167   4.443  1.7406  0.3036  1.5786
 2036SOL    HW2 8041   6.083   3.272   4.480 -1.4860 -1.3955 -1.8054
 2037SOL     OW 8042   3.164   5.202   8.762  0.1231 -0.2659  0.0320
 2037SOL    HW1 8043   3.109   5.279   8.746 -0.4181 -0.3999  1.1552
 2037SOL    HW2 8044   3.150   5.147   8.685 -1.0056 -0.1091  0.1054
 2038SOL     OW 8045   7.515   5.298   3.708  0.1457 -0.0421  0.2901
 2038SOL    HW1 8046   7.608   5.276   3.703 -0.1680 -1.1588 -2.5223
 2038SOL    HW2 8047   7.472   5.218   3.739 -0.1837 -0.9091 -2.1730
 2039SOL     OW 8048   2.772   7.476   0.865 -0.2689  0.2580 -0.1209
 2039SOL    HW1 8049   2.697   7.534   0.881 -0.4922  0.5412 -1.9534
 2039SOL    HW2 8050   2.845   7.517   0.911 -1.2145 -0.0408  1.7310
 2040SOL     OW 8051   5.393   5.133   5.126 -0.2789 -0.1073 -0.2949
 2040SOL    HW1 8052   5.435   5.070   5.185  0.6270  0.2786 -0.5131
 2040SOL    HW2 8053   5.448   5.211   5.131 -1.3441  0.6538 -0.0981
 2041SOL     OW 8054   8.618   4.657   1.736 -0.5400 -0.4227 -0.4207
 2041SOL    HW1 8055   8.595   4.630   1.647 -1.7186 -1.9852  0.2899
 2041SOL    HW2 8056   8.536   4.649   1.785  0.1733  0.0172  0.8929
 2042SOL     OW 8057   7.590   4.177   4.457 -0.5519 -0.2647  0.0545
 2042SOL    HW1 8058   7.676   4.146   4.488 -0.5042 -0.7413 -0.5437
 2042SOL    HW2 8059   7.565   4.243   4.521 -0.1391 -0.7459  0.7324
 2043SOL     OW 8060   2.913   4.070   0.775 -0.0390  0.2894  0.1591
 2043SOL    HW1 8061   2.965   4.070   0.855 -0.2137  1.2299  0.2870
 2043SOL    HW2 8062   2.862   4.150   0.780 -1.1893 -0.4062 -0.1729
 2044SOL     OW 8063   2.753   0.984   3.122 -0.0170  0.1661  0.3107
 2044SOL    HW1 8064   2.795   1.066   3.096 -0.2551  0.8220  1.8870
 2044SOL    HW2 8065   2.712   0.952   3.041 -0.8540  2.1649 -0.1386
 2045SOL     OW 8066   7.682   3.789   3.565 -0.0436  0.7432  0.1515
 2045SOL    HW1 8067   7.770   3.775   3.529  0.9333 -0.0193  2.6394
 2045SOL    HW2 8068   7.642   3.702   3.562 -0.0487  0.7293  0.6643
 2046SOL     OW 8069   6.385   0.153   5.886  0.1627  0.0170  0.3291
 2046SOL    HW1 8070   6.296   0.117   5.896 -1.0811  2.6845 -0.2569
 2046SOL    HW2 8071   6.383   0.236   5.934  1.2274  1.8190 -2.5381
 2047SOL     OW 8072   3.558   0.126   3.868 -0.3556 -0.1367  0.6793
 2047SOL    HW1 8073   3.617   0.136   3.793 -1.3365 -0.2709 -0.1420
 2047SOL    HW2 8074   3.594   0.052   3.917  0.7631  0.4715  0.7995
 2048SOL     OW 8075   1.697   0.101   4.357 -0.2449  1.3985 -0.4443
 2048SOL    HW1 8076   1.605   0.084   4.336 -0.3227  1.1181  0.0931
 2048SOL    HW2 8077   1.714   0.188   4.322 -1.0101  1.8828  0.3411
 2049SOL     OW 8078   7.697   2.267   3.331  0.0432 -0.0843  0.2749
 2049SOL    HW1 8079   7.787   2.234   3.339 -0.0477 -0.7173 -1.0767
 2049SOL    HW2 8080   7.683   2.275   3.237 -0.9639  1.0249  0.5030
 2050SOL     OW 8081   4.272   7.343   1.898  0.3604 -0.2590  0.3489
 2050SOL    HW1 8082   4.357   7.386   1.893  0.8010 -1.1672 -0.7755
 2050SOL    HW2 8083   4.222   7.380   1.825  1.0757 -2.2106 -1.2366
 2051SOL     OW 8084   5.307   6.364   0.773  0.2337  0.3140  0.4911
 2051SOL    HW1 8085   5.367   6.304   0.728  0.1195  0.5651  0.0054
 2051SOL    HW2 8086   5.313   6.445   0.724  0.8822  0.9207  1.5293
 2052SOL     OW 8087   6.061   3.432   5.652 -0.1925 -0.1793 -0.2206
 2052SOL    HW1 8088   6.021   3.450   5.567  2.7422 -3.1501 -2.4782
 2052SOL    HW2 8089   6.152   3.459   5.642  0.5734 -1.9101  1.4648
 2053SOL     OW 8090   6.044   5.195   6.034 -0.3003  0.0712 -0.3233
 2053SOL    HW1 8091   6.051   5.199   5.938  1.3835 -2.1984 -0.3761
 2053SOL    HW2 8092   6.067   5.105   6.056 -0.6989  0.5264  2.2348
 2054SOL     OW 8093   6.664   0.944   8.250  0.0223 -0.4576  0.7613
 2054SOL    HW1 8094   6.648   0.851   8.270 -1.5551  0.0152  1.8887
 2054SOL    HW2 8095   6.623   0.957   8.165  0.9995 -0.9608  0.1887
 2055SOL     OW 8096   6.441   6.348   3.213  0.5167  0.0335  0.2545
 2055SOL    HW1 8097   6.361   6.361   3.161 -0.4848 -0.6286  1.5676
 2055SOL    HW2 8098   6.509   6.333   3.148 -0.8040 -1.4011 -0.8843
 2056SOL     OW 8099   4.175   3.196   3.618 -0.1931 -0.1967  0.6960
 2056SOL    HW1 8100   4.119   3.188   3.541  0.9504 -2.4215  0.0051
 2056SOL    HW2 8101   4.129   3.149   3.687 -0.9487  1.3151  1.2714
 2057SOL     OW 8102   7.636   2.556   8.360  0.0425 -0.1228  0.8162
 2057SOL    HW1 8103   7.661   2.606   8.283 -0.2826 -1.1375  0.0295
 2057SOL    HW2 8104   7.553   2.596   8.388  0.4363  0.5936  0.9675
 2058SOL     OW 8105   6.975   3.721   7.012  0.2094 -0.2416  0.1364
 2058SOL    HW1 8106   7.002   3.763   6.931  1.9491 -0.6370  0.4727
 2058SOL    HW2 8107   6.969   3.628   6.990  0.1438 -0.2828  0.3269
 2059SOL     OW 8108   5.693   1.208   4.691  0.0386  0.2968  0.1689
 2059SOL    HW1 8109   5.651   1.122   4.696 -0.8610  0.6913 -0.3365
 2059SOL    HW2 8110   5.787   1.190   4.699 -0.1048 -0.7752 -0.4037
 2060SOL     OW 8111   7.691   6.785   1.733 -0.4257 -0.0147 -0.0853
 2060SOL    HW1 8112   7.668   6.786   1.641  0.4052 -2.9483 -0.4310
 2060SOL    HW2 8113   7.611   6.756   1.778 -0.0177 -1.5929 -0.2991
 2061SOL     OW 8114   0.326   3.553   6.641 -0.0810 -0.0432  0.0524
 2061SOL    HW1 8115   0.320   3.478   6.581  2.1106 -0.9351  0.8336
 2061SOL    HW2 8116   0.264   3.533   6.711 -0.3230 -0.5778 -0.3122
 2062SOL     OW 8117   1.774   3.228   4.111 -0.5658 -0.2530  0.1269
 2062SOL    HW1 8118   1.868   3.239   4.124 -0.6850  1.3464 -0.1591
 2062SOL    HW2 8119   1.766   3.196   4.021 -0.2356 -2.1432  0.7312
 2063SOL     OW 8120   6.695   1.902   0.102  0.2161  0.2184  0.2322
 2063SOL    HW1 8121   6.690   1.807   0.111  0.6349  0.1815  0.1107
 2063SOL    HW2 8122   6.710   1.916   0.009  1.2482  0.3470  0.4028
 2064SOL     OW 8123   7.054   2.242   4.617 -0.0248  0.4202 -0.2455
 2064SOL    HW1 8124   7.140   2.217   4.650  0.1601  0.9837 -0.2933
 2064SOL    HW2 8125   7.062   2.235   4.522  0.4267  1.8865 -0.3349
 2065SOL     OW 8126   1.705   0.700   6.139  1.1284 -0.8839  0.3118
 2065SOL    HW1 8127   1.697   0.618   6.187  1.3446 -1.1673 -0.1395
 2065SOL    HW2 8128   1.774   0.685   6.075  0.6639 -0.5891 -0.2647
 2066SOL     OW 8129   6.962   0.058   6.023 -0.0537  0.2899  0.5749
 2066SOL    HW1 8130   6.903   0.027   6.092 -0.7813  1.0398  0.2986
 2066SOL    HW2 8131   6.945   0.152   6.016  0.5526  0.3622 -0.1135
 2067SOL     OW 8132   6.144   7.899   0.850  0.3306 -0.1083  0.3861
 2067SOL    HW1 8133   6.227   7.945   0.865 -0.5824  1.5158  0.6590
 2067SOL    HW2 8134   6.088   7.926   0.923  0.0513 -2.4881  1.1410
 2068SOL     OW 8135   1.099   6.694   0.104 -0.1672  0.0353  0.6994
 2068SOL    HW1 8136   1.052   6.756   0.050  0.1905  2.0764  2.5732
 2068SOL    HW2 8137   1.155   6.646   0.043 -0.8846  1.1424 -0.8853
 2069SOL     OW 8138   3.894   8.218   1.824 -0.2092 -0.1928  0.1001
 2069SOL    HW1 8139   3.985   8.248   1.827  0.3705 -1.7730 -0.6087
 2069SOL    HW2 8140   3.868   8.210   1.916  0.1227  0.8794  0.3067
 2070SOL     OW 8141   5.861   3.447   0.879 -0.2449  0.3672  0.1531
 2070SOL    HW1 8142   5.891   3.446   0.970 -1.6641  2.7490  0.7429
 2070SOL    HW2 8143   5.880   3.536   0.848 -2.5115  0.5833 -0.8451
 2071SOL     OW 8144   4.931   2.987   6.736  0.6451  0.6061  0.4047
 2071SOL    HW1 8145   4.896   3.073   6.716 -1.7909 -0.1228  1.1306
 2071SOL    HW2 8146   4.897   2.968   6.824  0.7702 -1.2395  0.0917
 2072SOL     OW 8147   7.881   6.349   2.510 -0.3068  0.0349 -0.0106
 2072SOL    HW1 8148   7.965   6.359   2.554  0.0436 -1.3634 -0.3175
 2072SOL    HW2 8149   7.901   6.299   2.430 -1.1380  1.3291 -1.0830
 2073SOL     OW 8150   1.692   4.529   6.659  0.1074 -0.5093 -0.5839
 2073SOL    HW1 8151   1.619   4.543   6.598  0.1196 -1.6687 -0.8878
 2073SOL    HW2 8152   1.751   4.471   6.611  1.3992  0.6560 -0.4633
 2074SOL     OW 8153   3.298   0.688   8.588  1.0521  0.4731 -0.7605
 2074SOL    HW1 8154   3.303   0.727   8.675  0.3996 -0.7153 -0.1632
 2074SOL    HW2 8155   3.331   0.756   8.529 -2.8439  3.1816 -0.1932
 2075SOL     OW 8156   8.199   8.628   6.697  0.7363 -1.0045 -0.0018
 2075SOL    HW1 8157   8.166   8.632   6.608 -0.6058 -1.5934  0.4378
 2075SOL    HW2 8158   8.218   8.535   6.712 -0.2426 -1.1114  0.7108
 2076SOL     OW 8159   6.998   2.239   2.227  0.5818  0.6190  0.3342
 2076SOL    HW1 8160   6.937   2.268   2.159  0.3945 -0.6472 -0.0625
 2076SOL    HW2 8161   6.969   2.283   2.307 -1.2301 -0.4169  0.2800
 2077SOL     OW 8162   2.413   3.734   4.719  0.4914 -0.6178  0.0213
 2077SOL    HW1 8163   2.501   3.746   4.755  0.1270 -1.2080  1.1441
 2077SOL    HW2 8164   2.368   3.816   4.740  1.3503  0.6215 -2.4706
 2078SOL     OW 8165   3.710   1.861   4.899 -0.0418  0.1876  0.4709
 2078SOL    HW1 8166   3.677   1.856   4.989  0.4048  2.3211  0.7847
 2078SOL    HW2 8167   3.781   1.797   4.896  0.6428  0.8247  1.9661
 2079SOL     OW 8168   3.662   2.690   4.171 -0.3657  0.2284 -0.3201
 2079SOL    HW1 8169   3.740   2.732   4.208 -0.5105 -1.1022  1.6227
 2079SOL    HW2 8170   3.696   2.617   4.120 -0.2943  0.3614 -0.4638
 2080SOL     OW 8171   2.892   6.681   7.345  0.5594 -0.2051  0.0790
 2080SOL    HW1 8172   2.971   6.723   7.378  0.3810  1.0229 -0.9649
 2080SOL    HW2 8173   2.887   6.598   7.393  2.3360 -0.2049  0.3484
 2081SOL     OW 8174   6.255   4.062   1.254  0.3079 -0.5406 -0.6500
 2081SOL    HW1 8175   6.294   4.127   1.312  1.0584  0.5977 -2.3736
 2081SOL    HW2 8176   6.164   4.091   1.244  0.8846  0.8767 -2.1930
 2082SOL     OW 8177   8.196   5.382   8.282  0.1564 -0.0429  0.0063
 2082SOL    HW1 8178   8.277   5.353   8.325 -0.2362 -1.0150  0.1181
 2082SOL    HW2 8179   8.152   5.437   8.348  0.9856  0.9765 -0.2649
 2083SOL     OW 8180   6.748   4.650   3.103 -0.4842 -0.4956 -0.0055
 2083SOL    HW1 8181   6.709   4.737   3.094 -1.7105 -1.1610 -1.5667
 2083SOL    HW2 8182   6.736   4.628   3.195 -0.3795  0.8647  0.3577
 2084SOL     OW 8183   8.707   1.057   5.746 -0.4059 -0.0201 -0.1097
 2084SOL    HW1 8184   8.622   1.039   5.788 -1.0153  3.2859  0.3192
 2084SOL    HW2 8185   8.691   1.133   5.690  1.6517 -1.1088 -2.3600
 2085SOL     OW 8186   4.509   2.574   8.192  0.1779  0.4028 -0.2909
 2085SOL    HW1 8187   4.451   2.591   8.266  1.5816 -0.6288  1.1041
 2085SOL    HW2 8188   4.504   2.653   8.139 -1.5550  0.8101  0.4074
 2086SOL     OW 8189   0.379   2.178   1.973  0.0404 -0.3183 -0.1203
 2086SOL    HW1 8190   0.444   2.123   2.017 -0.0043 -0.7142 -0.5368
 2086SOL    HW2 8191   0.338   2.119   1.909 -0.8218 -0.1158  0.2266
 2087SOL     OW 8192   0.641   7.126   8.264  0.4862 -0.6112  0.2389
 2087SOL    HW1 8193   0.648   7.183   8.341  0.1091  0.5781 -0.5671
 2087SOL    HW2 8194   0.584   7.055   8.291  0.5086 -0.3069  1.1129
 2088SOL     OW 8195   0.970   3.870   7.051 -0.1627 -0.0622 -0.2098
 2088SOL    HW1 8196   0.976   3.890   7.144  1.8052  0.0258 -0.3135
 2088SOL    HW2 8197   0.876   3.868   7.033 -0.5957 -0.2461  1.7951
 2089SOL     OW 8198   6.527   2.327   8.464  0.5334 -0.6702 -0.3343
 2089SOL    HW1 8199   6.458   2.356   8.403  1.5840 -0.6892 -1.5756
 2089SOL    HW2 8200   6.510   2.377   8.544 -1.4662 -1.3429 -0.2731
 2090SOL     OW 8201   1.659   5.457   0.605  0.0580 -0.7845 -0.3040
 2090SOL    HW1 8202   1.727   5.392   0.592  0.2159 -0.4196 -1.4295
 2090SOL    HW2 8203   1.604   5.450   0.527  2.2440  2.9817 -2.4784
 2091SOL     OW 8204   6.782   5.551   4.819  0.1920 -1.1659  0.0107
 2091SOL    HW1 8205   6.702   5.580   4.775  0.1195 -0.4120  0.6251
 2091SOL    HW2 8206   6.848   5.614   4.793  0.7094 -2.0417 -0.8493
 2092SOL     OW 8207   4.086   2.015   6.073 -0.4576 -0.6580  0.1754
 2092SOL    HW1 8208   4.109   2.093   6.124  0.0375 -1.1660  0.7453
 2092SOL    HW2 8209   4.042   2.049   5.995 -0.1690  0.1964  0.3783
 2093SOL     OW 8210   5.758   4.403   0.509  0.1004  0.3107  0.1314
 2093SOL    HW1 8211   5.703   4.476   0.537 -1.2264 -0.0140 -1.4904
 2093SOL    HW2 8212   5.701   4.327   0.513  1.0300 -0.3897  0.3576
 2094SOL     OW 8213   7.642   4.827   8.311  0.2434 -0.1023  0.1062
 2094SOL    HW1 8214   7.730   4.819   8.275  0.0758 -0.6024 -0.2022
 2094SOL    HW2 8215   7.585   4.835   8.235 -0.0181 -0.2076  0.2905
 2095SOL     OW 8216   7.413   8.597   2.719 -0.1142 -0.1117 -0.2228
 2095SOL    HW1 8217   7.486   8.653   2.691 -0.7700  0.2617 -1.2356
 2095SOL    HW2 8218   7.456   8.520   2.757  0.8040  1.1255  1.3707
 2096SOL     OW 8219   7.431   4.421   3.344  0.4373  0.4130  0.1148
 2096SOL    HW1 8220   7.477   4.499   3.376  0.5254  0.6485 -0.5870
 2096SOL    HW2 8221   7.478   4.348   3.385  0.9656  0.6850  0.0003
 2097SOL     OW 8222   3.076   7.233   3.275  0.1551  0.1988  0.0118
 2097SOL    HW1 8223   3.031   7.317   3.287 -0.7846 -0.4554  1.2911
 2097SOL    HW2 8224   3.056   7.184   3.354  1.1917 -1.0208 -0.4579
 2098SOL     OW 8225   6.273   4.608   7.422  0.3434  0.5069  0.0735
 2098SOL    HW1 8226   6.196   4.607   7.365 -0.2788 -0.4700  0.8938
 2098SOL    HW2 8227   6.277   4.697   7.455 -1.5616  0.1577  1.4408
 2099SOL     OW 8228   4.700   8.499   7.589 -0.3306 -0.1381 -0.3922
 2099SOL    HW1 8229   4.649   8.486   7.509 -3.7927 -0.4757  1.6819
 2099SOL    HW2 8230   4.693   8.416   7.636  2.2086 -0.1858  0.0678
 2100SOL     OW 8231   6.396   5.599   0.457 -0.4099  0.4858 -0.2513
 2100SOL    HW1 8232   6.322   5.658   0.443  0.6142  2.1609  0.9506
 2100SOL    HW2 8233   6.357   5.516   0.484 -1.8645  1.0424 -0.5686
 2101SOL     OW 8234   7.580   0.727   3.647  0.4901 -0.1450 -0.1553
 2101SOL    HW1 8235   7.645   0.765   3.705 -0.1613  1.8472 -0.6494
 2101SOL    HW2 8236   7.496   0.750   3.686  0.0617 -0.4224 -0.8783
 2102SOL     OW 8237   3.378   6.060   5.681  0.2876  0.0525 -0.0807
 2102SOL    HW1 8238   3.404   5.975   5.647  0.6644 -0.5002  1.4741
 2102SOL    HW2 8239   3.285   6.066   5.663 -0.1028 -1.4424  1.2058
 2103SOL     OW 8240   7.332   1.648   4.050  0.4717  0.0721 -0.3650
 2103SOL    HW1 8241   7.287   1.566   4.029 -1.4948  0.3276  2.2193
 2103SOL    HW2 8242   7.400   1.623   4.112  0.1294  0.3002  0.1166
 2104SOL     OW 8243   5.978   5.717   7.872  0.3638  0.0479  0.1505
 2104SOL    HW1 8244   5.930   5.800   7.874  0.9475  0.3882  0.2961
 2104SOL    HW2 8245   5.982   5.694   7.779  0.4714  0.3463  0.0810
 2105SOL     OW 8246   8.563   6.252   2.745  0.0256 -0.2967 -0.0930
 2105SOL    HW1 8247   8.527   6.276   2.830 -0.3384  0.4829 -0.4604
 2105SOL    HW2 8248   8.533   6.320   2.685  0.9852 -0.3620 -0.6826
 2106SOL     OW 8249   7.635   1.783   1.958 -0.2521  0.1213 -0.4633
 2106SOL    HW1 8250   7.686   1.829   2.025 -0.9431  0.3276 -0.0732
 2106SOL    HW2 8251   7.546   1.815   1.969 -0.8157 -1.5080 -0.0116
 2107SOL     OW 8252   3.946   8.302   8.354 -0.4749  0.6797  0.3559
 2107SOL    HW1 8253   3.938   8.215   8.393  3.7052  0.1938  0.5900
 2107SOL    HW2 8254   3.937   8.362   8.428 -1.7856  0.3839  0.4553
 2108SOL     OW 8255   5.407   7.117   1.078 -0.2802  0.0000  0.7765
 2108SOL    HW1 8256   5.465   7.132   1.004 -2.2840  1.9593 -0.5319
 2108SOL    HW2 8257   5.351   7.045   1.050  1.3230 -1.8324  2.0044
 2109SOL     OW 8258   5.999   7.022   4.013 -0.6492  0.0604 -0.7056
 2109SOL    HW1 8259   5.908   7.052   4.018 -0.5360  0.4177 -0.7685
 2109SOL    HW2 8260   6.015   7.009   3.920 -0.4805  0.4925 -0.7410
 2110SOL     OW 8261   7.123   7.843   0.952  0.4281 -0.1380  0.2891
 2110SOL    HW1 8262   7.036   7.823   0.986  0.2062  0.2387 -0.0525
 2110SOL    HW2 8263   7.120   7.813   0.861 -0.0835  1.8657 -0.4095
 2111SOL     OW 8264   2.774   2.008   0.450  0.1890 -0.3598 -0.3336
 2111SOL    HW1 8265   2.860   2.050   0.459 -0.4010  0.8050  0.0110
 2111SOL    HW2 8266   2.730   2.025   0.533 -1.0838  0.7255 -1.1949
 2112SOL     OW 8267   2.656   6.588   2.353 -0.6342  0.2803  0.4965
 2112SOL    HW1 8268   2.599   6.654   2.314  0.9978  0.9598 -0.8011
 2112SOL    HW2 8269   2.735   6.588   2.299 -0.3684 -2.3859  0.7491
 2113SOL     OW 8270   4.315   2.478   6.317  0.1450 -0.0708 -0.0498
 2113SOL    HW1 8271   4.224   2.447   6.326  0.1379  0.1581  0.7514
 2113SOL    HW2 8272   4.363   2.431   6.385  0.4727  0.3965  0.0469
 2114SOL     OW 8273   4.323   5.993   7.104  0.1768  0.1265  0.2683
 2114SOL    HW1 8274   4.279   6.064   7.057 -1.9310 -0.9077  0.5285
 2114SOL    HW2 8275   4.255   5.926   7.114  2.1143 -2.0340 -0.1556
 2115SOL     OW 8276   5.580   0.787   0.743 -0.0040 -0.1363 -0.2658
 2115SOL    HW1 8277   5.499   0.824   0.780 -0.1311 -0.5448 -0.1228
 2115SOL    HW2 8278   5.626   0.751   0.819  0.7586  0.8975 -0.2184
 2116SOL     OW 8279   2.110   0.399   8.130 -0.2359 -0.5499 -0.0175
 2116SOL    HW1 8280   2.116   0.392   8.226 -1.7821  1.1970  0.2689
 2116SOL    HW2 8281   2.041   0.464   8.115 -0.3036 -1.0712 -2.3439
 2117SOL     OW 8282   5.854   3.957   2.965 -0.7228 -0.2039 -0.4413
 2117SOL    HW1 8283   5.850   3.883   2.905 -1.5129 -0.9287  0.4693
 2117SOL    HW2 8284   5.888   4.029   2.912 -0.5815 -1.0370 -1.5218
 2118SOL     OW 8285   5.259   5.671   6.888 -0.3071 -0.0746 -0.2527
 2118SOL    HW1 8286   5.298   5.656   6.974 -0.4703  1.3968  0.0903
 2118SOL    HW2 8287   5.212   5.590   6.869  0.1626 -0.6144  0.8027
 2119SOL     OW 8288   3.716   0.371   2.185  0.0734 -0.0068  0.7033
 2119SOL    HW1 8289   3.623   0.395   2.177  0.1049 -0.3652 -1.4833
 2119SOL    HW2 8290   3.756   0.406   2.105  2.0434  0.9307  2.0263
 2120SOL     OW 8291   7.381   0.948   6.543  0.1612 -0.6893 -0.2980
 2120SOL    HW1 8292   7.358   0.975   6.454  0.0899 -1.9171 -0.6756
 2120SOL    HW2 8293   7.439   1.018   6.575 -0.8109  0.3896 -0.8308
 2121SOL     OW 8294   8.358   2.394   1.185 -0.3786 -0.0269 -0.3173
 2121SOL    HW1 8295   8.353   2.310   1.230 -3.3846  0.3065  0.2047
 2121SOL    HW2 8296   8.439   2.390   1.135  1.3177 -1.8230  2.3392
 2122SOL     OW 8297   1.350   1.320   2.420 -0.5780 -0.3801  0.3543
 2122SOL    HW1 8298   1.258   1.342   2.410 -0.1373  0.9613 -1.3064
 2122SOL    HW2 8299   1.352   1.247   2.481 -2.5834  0.9007  2.0781
 2123SOL     OW 8300   1.450   0.514   4.725  0.6655  0.1399  0.2187
 2123SOL    HW1 8301   1.532   0.498   4.678  1.3302 -0.9881  1.6620
 2123SOL    HW2 8302   1.387   0.537   4.657  2.1294  0.9120 -0.9520
 2124SOL     OW 8303   7.705   2.959   7.908  0.7451 -0.2602 -0.0138
 2124SOL    HW1 8304   7.717   2.998   7.822 -0.6099  1.6393  0.5937
 2124SOL    HW2 8305   7.672   2.871   7.891  0.0789  0.2464 -1.4449
 2125SOL     OW 8306   0.817   7.349   5.673  0.2116 -0.0968 -0.3385
 2125SOL    HW1 8307   0.779   7.311   5.752  1.4872  0.3384  0.5335
 2125SOL    HW2 8308   0.829   7.442   5.695  2.5665 -0.3706 -0.1897
 2126SOL     OW 8309   5.207   1.456   2.532  0.3094  0.7560  0.4382
 2126SOL    HW1 8310   5.122   1.492   2.559  0.0075  1.2316 -1.0844
 2126SOL    HW2 8311   5.270   1.524   2.556  0.0758  1.0830  0.1308
 2127SOL     OW 8312   4.869   4.521   4.058  0.3308  0.1083  0.4365
 2127SOL    HW1 8313   4.918   4.603   4.060  1.1406 -0.3576 -0.0260
 2127SOL    HW2 8314   4.891   4.478   4.141  0.0682  0.2644  0.5874
 2128SOL     OW 8315   8.438   0.992   2.369 -0.8833  0.5719  0.2426
 2128SOL    HW1 8316   8.448   1.004   2.275  0.4432  0.7553  0.3834
 2128SOL    HW2 8317   8.347   1.016   2.387 -2.1838 -2.4608 -1.4451
 2129SOL     OW 8318   6.142   7.322   5.717 -0.4008  0.6269 -0.4843
 2129SOL    HW1 8319   6.175   7.409   5.695 -0.1499  0.5882 -0.2667
 2129SOL    HW2 8320   6.203   7.261   5.675 -0.5369  0.5522 -0.5789
 2130SOL     OW 8321   7.118   4.927   7.999  0.7700  0.1943  0.5427
 2130SOL    HW1 8322   7.031   4.945   7.962  0.1171 -0.5017  1.6693
 2130SOL    HW2 8323   7.175   4.919   7.923 -0.4361 -0.7290 -0.3087
 2131SOL     OW 8324   2.180   8.858   1.761 -0.0386  0.2211  0.2303
 2131SOL    HW1 8325   2.153   8.939   1.804  1.1407  0.2875  0.8877
 2131SOL    HW2 8326   2.196   8.797   1.833 -1.1862 -0.6979 -0.2709
 2132SOL     OW 8327   4.052   2.472   2.271  0.1334 -0.0385  0.0162
 2132SOL    HW1 8328   3.981   2.513   2.223  1.3070  0.2278 -1.5682
 2132SOL    HW2 8329   4.037   2.496   2.362 -0.8757  1.3999 -0.5015
 2133SOL     OW 8330   3.783   3.644   2.233 -0.4951 -0.2316  0.2185
 2133SOL    HW1 8331   3.738   3.728   2.241 -1.3331 -0.5768 -0.5393
 2133SOL    HW2 8332   3.775   3.604   2.319 -1.5640 -0.2260  0.1417
 2134SOL     OW 8333   4.496   3.484   2.470  0.1918 -0.0090  0.6780
 2134SOL    HW1 8334   4.414   3.435   2.468  0.2309 -0.0629  0.1022
 2134SOL    HW2 8335   4.527   3.481   2.380  1.2350 -0.6614  1.0436
 2135SOL     OW 8336   1.210   7.450   1.487 -0.1191  0.8345 -0.2238
 2135SOL    HW1 8337   1.299   7.481   1.502 -0.2802  1.0651  0.3010
 2135SOL    HW2 8338   1.154   7.519   1.523 -0.4981  0.3904  0.0562
 2136SOL     OW 8339   1.397   8.235   7.189 -0.3030  0.0312  0.2574
 2136SOL    HW1 8340   1.363   8.178   7.257 -0.2855  0.2905  0.4851
 2136SOL    HW2 8341   1.319   8.272   7.147 -0.3060  0.7545  0.8886
 2137SOL     OW 8342   6.988   1.267   6.794  0.0308 -0.8450  0.4954
 2137SOL    HW1 8343   7.005   1.347   6.845 -0.5066 -0.2096 -0.2958
 2137SOL    HW2 8344   6.896   1.248   6.810 -1.1157  1.1971 -2.6326
 2138SOL     OW 8345   6.455   5.279   4.466  0.0432 -0.3935  0.6178
 2138SOL    HW1 8346   6.397   5.314   4.533 -0.2142 -0.5781  0.4942
 2138SOL    HW2 8347   6.517   5.224   4.514  0.2048 -0.0832  0.7659
 2139SOL     OW 8348   7.262   4.489   2.743  0.0769  0.0334  0.4309
 2139SOL    HW1 8349   7.247   4.582   2.723 -2.6403 -0.2346  0.8178
 2139SOL    HW2 8350   7.276   4.449   2.657 -0.4588  0.5617  0.0832
 2140SOL     OW 8351   3.017   8.176   3.126 -0.2794 -1.2295 -0.5862
 2140SOL    HW1 8352   3.108   8.206   3.124 -0.4060 -0.5062  1.7892
 2140SOL    HW2 8353   2.967   8.246   3.084  0.0904 -0.8773 -0.4416
 2141SOL     OW 8354   6.480   4.942   1.046 -0.1183  0.2869  0.3178
 2141SOL    HW1 8355   6.489   4.874   0.980  0.0582 -0.6557  1.2897
 2141SOL    HW2 8356   6.569   4.974   1.061 -0.1819  0.6358 -0.0286
 2142SOL     OW 8357   3.109   6.012   1.531  0.0698  0.2423  0.0075
 2142SOL    HW1 8358   3.028   6.041   1.573  1.6016  1.3681  2.3566
 2142SOL    HW2 8359   3.141   5.941   1.586  0.2401 -0.8597 -1.4516
 2143SOL     OW 8360   8.139   5.467   7.503  0.2206 -0.1252 -0.0722
 2143SOL    HW1 8361   8.176   5.498   7.585 -0.7631  0.4107  0.1842
 2143SOL    HW2 8362   8.089   5.389   7.527  1.1656 -0.8647 -0.4218
 2144SOL     OW 8363   7.907   0.595   3.797 -0.4110  0.2507  0.6243
 2144SOL    HW1 8364   7.871   0.509   3.772  0.9151  0.2069 -1.3198
 2144SOL    HW2 8365   7.986   0.574   3.846 -1.3957  0.3895  2.3671
 2145SOL     OW 8366   5.468   0.014   1.602  0.3983 -0.2098 -0.3398
 2145SOL    HW1 8367   5.458  -0.051   1.672 -0.5337 -0.2090 -0.4640
 2145SOL    HW2 8368   5.419   0.090   1.634  0.9938  0.2266 -0.4558
 2146SOL     OW 8369   2.661   6.450   2.945  0.0261 -0.1932 -0.5421
 2146SOL    HW1 8370   2.618   6.507   2.881  0.7807  0.1464 -0.7603
 2146SOL    HW2 8371   2.747   6.490   2.958 -0.7254  0.7403  2.0254
 2147SOL     OW 8372   0.708   1.114   5.371  0.1854 -0.8762  0.0245
 2147SOL    HW1 8373   0.743   1.038   5.418 -0.1470 -0.9843  0.1027
 2147SOL    HW2 8374   0.617   1.121   5.401  1.0079  1.4135  2.3985
 2148SOL     OW 8375   2.143   7.471   8.319 -0.2912  0.3882  0.4570
 2148SOL    HW1 8376   2.125   7.468   8.413  2.1202  1.0091  1.0013
 2148SOL    HW2 8377   2.138   7.564   8.297  0.3605  0.3790  0.2545
 2149SOL     OW 8378   8.658   8.518   5.108 -0.0162  0.2210 -0.4391
 2149SOL    HW1 8379   8.563   8.526   5.096  0.2579  0.9699 -2.5374
 2149SOL    HW2 8380   8.691   8.607   5.097  0.9926 -0.1279 -0.3395
 2150SOL     OW 8381   4.415   1.441   3.732  0.2317 -0.0997 -0.6844
 2150SOL    HW1 8382   4.419   1.377   3.803  0.2029  3.0182  2.4467
 2150SOL    HW2 8383   4.323   1.469   3.730  0.6462  1.3853 -0.3466
 2151SOL     OW 8384   7.134   3.624   1.300 -0.4796  0.3083  0.2841
 2151SOL    HW1 8385   7.141   3.577   1.217  1.5930 -0.0172  0.5842
 2151SOL    HW2 8386   7.213   3.678   1.304 -0.2127 -0.1567  2.2984
 2152SOL     OW 8387   4.793   3.117   1.248 -0.3319  0.0808  0.0884
 2152SOL    HW1 8388   4.860   3.101   1.181  0.3776  1.4309  0.4287
 2152SOL    HW2 8389   4.777   3.032   1.287 -1.8670 -1.0764 -2.7695
 2153SOL     OW 8390   6.504   2.770   7.591  0.7467  0.2987 -0.1186
 2153SOL    HW1 8391   6.571   2.729   7.537 -0.4880 -0.2824 -1.2773
 2153SOL    HW2 8392   6.453   2.824   7.530  1.3556  2.3481  1.0869
 2154SOL     OW 8393   7.159   6.402   7.673 -0.1038  0.0174  0.0740
 2154SOL    HW1 8394   7.158   6.328   7.612 -0.2632  0.6907 -0.7503
 2154SOL    HW2 8395   7.071   6.440   7.668 -0.3603 -0.3731  1.3014
 2155SOL     OW 8396   7.974   5.802   2.964  0.3855 -0.2566  0.3881
 2155SOL    HW1 8397   8.043   5.799   3.031 -0.3258 -0.0468  1.1408
 2155SOL    HW2 8398   7.912   5.735   2.991  0.3700 -0.5720 -0.3936
 2156SOL     OW 8399   0.471   3.286   4.061  0.4813  0.2272  0.0544
 2156SOL    HW1 8400   0.502   3.255   4.146  0.6818 -0.7887 -0.3725
 2156SOL    HW2 8401   0.502   3.220   3.999 -0.6562  0.3395 -0.6578
 2157SOL     OW 8402   2.957   6.484   4.534  0.2561 -0.4559 -0.1184
 2157SOL    HW1 8403   2.886   6.465   4.596 -1.1428  1.5530 -0.9574
 2157SOL    HW2 8404   3.005   6.556   4.574  0.3270 -0.2146 -0.6246
 2158SOL     OW 8405   6.120   5.010   8.213  0.0708  1.1546  0.0404
 2158SOL    HW1 8406   6.081   5.022   8.300 -0.1885 -1.0574  0.2808
 2158SOL    HW2 8407   6.214   5.019   8.228  0.1299 -0.4000  0.8364
 2159SOL     OW 8408   4.704   4.123   4.085  0.4260  0.3220  0.0567
 2159SOL    HW1 8409   4.624   4.174   4.089  0.2150  0.0570 -0.5163
 2159SOL    HW2 8410   4.721   4.113   3.991  0.3619 -0.7989  0.1483
 2160SOL     OW 8411   8.119   2.236   7.568  0.2043 -1.1795  0.2758
 2160SOL    HW1 8412   8.109   2.260   7.660 -1.9044 -2.9016  0.5967
 2160SOL    HW2 8413   8.033   2.250   7.530  1.4058  0.9519 -1.8954
 2161SOL     OW 8414   1.100   0.253   4.007  0.3717  0.6471  0.7272
 2161SOL    HW1 8415   1.013   0.281   4.036 -0.5390  0.1187 -1.3102
 2161SOL    HW2 8416   1.087   0.163   3.976  1.4056  0.9120 -0.5588
 2162SOL     OW 8417   4.054   6.228   3.743 -0.1983  0.1877 -0.1963
 2162SOL    HW1 8418   4.098   6.296   3.794 -0.6280 -0.7856  1.5380
 2162SOL    HW2 8419   3.984   6.275   3.697  1.0838  1.3261 -1.0681
 2163SOL     OW 8420   7.723   2.770   6.272 -0.1681 -0.4061  0.4616
 2163SOL    HW1 8421   7.715   2.682   6.309 -0.1347  0.0365  1.5769
 2163SOL    HW2 8422   7.748   2.756   6.181 -2.8611 -1.6264 -0.1800
 2164SOL     OW 8423   5.244   3.091   5.245 -0.0596 -0.5277  0.2700
 2164SOL    HW1 8424   5.311   3.025   5.230 -0.4574 -0.8772  0.0025
 2164SOL    HW2 8425   5.165   3.040   5.266 -0.1128 -0.1167  1.1350
 2165SOL     OW 8426   5.340   2.038   3.447  0.3056  0.1726  0.3120
 2165SOL    HW1 8427   5.393   1.960   3.466  3.4369  2.2521  0.9605
 2165SOL    HW2 8428   5.271   2.036   3.512 -0.5399 -2.6505 -0.4961
 2166SOL     OW 8429   2.371   6.813   3.165  0.3677  0.3163 -0.1285
 2166SOL    HW1 8430   2.311   6.825   3.238 -0.3938 -1.4628 -0.4207
 2166SOL    HW2 8431   2.321   6.841   3.088 -0.7733 -2.6283 -0.5824
 2167SOL     OW 8432   4.577   7.389   5.242 -0.2152  0.1910 -0.2937
 2167SOL    HW1 8433   4.549   7.334   5.314 -0.2545 -0.7766 -1.0345
 2167SOL    HW2 8434   4.567   7.335   5.164 -1.1733  1.5420 -1.1718
 2168SOL     OW 8435   8.054   5.390   2.633 -0.2719 -0.2149 -0.1681
 2168SOL    HW1 8436   8.041   5.326   2.564  0.3426 -1.7133  1.0390
 2168SOL    HW2 8437   8.046   5.340   2.714 -0.6464  1.4153  0.8546
 2169SOL     OW 8438   5.879   0.100   0.533 -0.0999 -0.7474 -0.5512
 2169SOL    HW1 8439   5.902   0.167   0.468 -0.2042  1.3811  1.5047
 2169SOL    HW2 8440   5.790   0.074   0.510 -0.5491  0.8004 -0.6196
 2170SOL     OW 8441   2.970   0.110   0.811 -0.0273 -0.3932  0.8268
 2170SOL    HW1 8442   2.903   0.119   0.742  0.6902 -1.3937 -0.0372
 2170SOL    HW2 8443   2.989   0.016   0.813 -0.3989 -0.4491  2.7769
 2171SOL     OW 8444   7.096   6.777   5.720 -0.0390  0.3689  0.1984
 2171SOL    HW1 8445   7.107   6.746   5.810 -0.1251  1.2071  0.5096
 2171SOL    HW2 8446   7.035   6.851   5.727  2.3728  2.5319 -0.0606
 2172SOL     OW 8447   6.444   6.556   7.049  0.6518 -0.1570 -0.0552
 2172SOL    HW1 8448   6.411   6.567   7.138 -0.2030 -1.1231 -0.2265
 2172SOL    HW2 8449   6.491   6.473   7.052  2.4408  0.8083 -0.0211
 2173SOL     OW 8450   3.351   5.580   3.988  0.6744  0.7180  0.5765
 2173SOL    HW1 8451   3.270   5.575   4.039 -0.4908 -0.9566 -1.3128
 2173SOL    HW2 8452   3.322   5.584   3.897  2.7292  1.4125 -0.1061
 2174SOL     OW 8453   2.874   0.496   2.328 -0.5786 -0.3462  0.0434
 2174SOL    HW1 8454   2.918   0.474   2.410  0.1313  0.8463  0.0056
 2174SOL    HW2 8455   2.840   0.413   2.296 -0.3093 -0.9330  1.2167
 2175SOL     OW 8456   4.917   2.641   3.995 -0.0444  0.3542 -0.1262
 2175SOL    HW1 8457   4.964   2.573   3.946 -1.1924 -0.4366 -0.1441
 2175SOL    HW2 8458   4.938   2.722   3.949 -0.5013 -0.2820 -1.4994
 2176SOL     OW 8459   5.381   4.010   0.850 -0.0295  0.4216 -0.3492
 2176SOL    HW1 8460   5.317   3.983   0.784 -1.2156  2.2327 -0.0204
 2176SOL    HW2 8461   5.425   4.086   0.811 -0.8061  1.5688  0.9301
 2177SOL     OW 8462   4.986   1.695   1.418  0.2171  0.0255 -0.3109
 2177SOL    HW1 8463   5.040   1.711   1.341  0.4619  0.3254 -0.0781
 2177SOL    HW2 8464   5.003   1.769   1.476 -1.8069  1.0803 -0.9802
 2178SOL     OW 8465   6.551   6.274   1.322 -0.5111  0.3284  0.4162
 2178SOL    HW1 8466   6.576   6.274   1.414 -0.6266  0.2788  0.4482
 2178SOL    HW2 8467   6.529   6.366   1.304 -1.0086  0.2462  0.5837
 2179SOL     OW 8468   2.842   5.120   0.081  0.0845 -0.1344  0.0571
 2179SOL    HW1 8469   2.926   5.089   0.114  0.4009  0.4979 -0.1420
 2179SOL    HW2 8470   2.847   5.110  -0.014  0.3018  0.7677 -0.0373
 2180SOL     OW 8471   2.334   0.255   5.980 -0.4978  0.2338  0.1909
 2180SOL    HW1 8472   2.327   0.223   5.890  0.1916 -0.0566  0.2320
 2180SOL    HW2 8473   2.411   0.312   5.979 -0.6758  0.4807  0.5234
 2181SOL     OW 8474   3.657   1.853   0.545  0.5049  0.6658  0.6818
 2181SOL    HW1 8475   3.653   1.775   0.600  2.5631 -0.2866 -0.4219
 2181SOL    HW2 8476   3.573   1.853   0.498  1.2707 -2.2078 -0.9249
 2182SOL     OW 8477   1.819   0.909   5.275  0.0793  0.0966  0.0424
 2182SOL    HW1 8478   1.748   0.917   5.211 -0.5436  2.1023  0.9096
 2182SOL    HW2 8479   1.794   0.968   5.346  1.6085 -0.7535  1.3502
 2183SOL     OW 8480   1.983   5.904   3.679 -0.2398  0.1253  0.3213
 2183SOL    HW1 8481   2.020   5.834   3.732  2.4068  0.4928 -0.8223
 2183SOL    HW2 8482   2.056   5.931   3.621 -2.3581  0.9867 -2.1666
 2184SOL     OW 8483   6.614   1.483   4.855 -0.3130  0.1843  0.5098
 2184SOL    HW1 8484   6.534   1.507   4.901 -0.6297 -1.8803  1.1231
 2184SOL    HW2 8485   6.586   1.455   4.768 -0.1095  0.5922  0.3073
 2185SOL     OW 8486   8.046   4.310   1.555 -0.3598  0.2035  0.3627
 2185SOL    HW1 8487   8.063   4.246   1.624  2.6827  1.0075  0.5418
 2185SOL    HW2 8488   8.127   4.362   1.551 -1.0323  1.2194 -2.7316
 2186SOL     OW 8489   5.997   0.240   0.734 -0.1155 -0.5711  0.2164
 2186SOL    HW1 8490   6.003   0.315   0.674 -1.6024 -0.9109 -0.4223
 2186SOL    HW2 8491   5.951   0.173   0.683 -1.4951 -0.8490  1.7292
 2187SOL     OW 8492   2.076   4.783   8.070  0.3118 -0.1470  0.0209
 2187SOL    HW1 8493   2.060   4.862   8.122 -0.5980 -0.1609 -0.2228
 2187SOL    HW2 8494   2.142   4.735   8.119  1.7686  1.3200 -0.4235
 2188SOL     OW 8495   0.089   0.911   2.544  0.0983 -0.2925  0.8483
 2188SOL    HW1 8496   0.019   0.964   2.507  0.8587 -0.3136 -0.7270
 2188SOL    HW2 8497   0.113   0.850   2.474  1.3527 -0.6124  1.5106
 2189SOL     OW 8498   5.330   7.963   5.326  0.7066  0.1350 -0.6760
 2189SOL    HW1 8499   5.376   7.953   5.409  0.7494  2.5806 -0.3189
 2189SOL    HW2 8500   5.243   7.927   5.341  1.1997 -0.8187 -0.0657
 2190SOL     OW 8501   2.685   6.210   0.798 -0.2832 -0.2443 -0.2221
 2190SOL    HW1 8502   2.776   6.190   0.774 -0.6554 -0.8275 -1.2017
 2190SOL    HW2 8503   2.633   6.147   0.748 -1.2453  0.3151  0.0591
 2191SOL     OW 8504   1.902   6.621   1.363 -0.1561 -0.2854  0.7402
 2191SOL    HW1 8505   1.890   6.699   1.416  0.9847  0.1313  0.4135
 2191SOL    HW2 8506   1.997   6.615   1.350 -0.3696 -0.5979 -0.9165
 2192SOL     OW 8507   6.811   8.370   2.878  0.2191 -0.5597  0.3178
 2192SOL    HW1 8508   6.721   8.340   2.875  0.1563 -0.2872 -0.6742
 2192SOL    HW2 8509   6.808   8.453   2.925 -0.0669 -0.4733  0.1427
 2193SOL     OW 8510   8.231   8.681   6.188  0.0328 -0.2178  0.1617
 2193SOL    HW1 8511   8.313   8.632   6.194  0.9266  1.2573  0.6044
 2193SOL    HW2 8512   8.194   8.656   6.104  1.5230 -0.0681 -0.5731
 2194SOL     OW 8513   0.474   6.023   6.799 -0.8891  0.0609  0.4443
 2194SOL    HW1 8514   0.534   5.996   6.869 -1.0219  0.2426  0.6293
 2194SOL    HW2 8515   0.401   6.064   6.845 -1.2993 -0.4316  0.2389
 2195SOL     OW 8516   0.695   6.796   7.119 -0.8559  0.5545 -0.8355
 2195SOL    HW1 8517   0.691   6.729   7.050 -1.6360 -0.7026  0.3687
 2195SOL    HW2 8518   0.605   6.824   7.130 -1.0343 -0.5273  0.8132
 2196SOL     OW 8519   0.051   7.076   8.642 -0.0396 -0.3886  0.1300
 2196SOL    HW1 8520   0.138   7.042   8.624  0.3017  0.1136  0.7705
 2196SOL    HW2 8521   0.002   7.063   8.561  1.2786  1.3213 -0.9949
 2197SOL     OW 8522   6.535   0.109   6.446  0.5361  0.4777  0.1532
 2197SOL    HW1 8523   6.605   0.109   6.381  1.2355  4.2755  0.6620
 2197SOL    HW2 8524   6.578   0.129   6.528 -1.0528  3.4047  0.4037
 2198SOL     OW 8525   7.806   0.558   5.931 -0.3171  0.6215  0.0360
 2198SOL    HW1 8526   7.867   0.496   5.892  0.6571  0.4073  1.7727
 2198SOL    HW2 8527   7.720   0.518   5.920  0.1084 -0.1624 -0.4650
 2199SOL     OW 8528   3.958   3.585   6.066  0.1942 -0.3333 -0.4480
 2199SOL    HW1 8529   3.917   3.498   6.064  0.1989 -0.3585  0.2177
 2199SOL    HW2 8530   4.034   3.574   6.124  1.9501 -0.6227 -2.6909
 2200SOL     OW 8531   7.130   6.518   4.065 -0.2365  0.1796 -0.2466
 2200SOL    HW1 8532   7.067   6.446   4.067  0.1716 -0.3204 -2.3699
 2200SOL    HW2 8533   7.081   6.592   4.031 -0.4419  0.7034  1.1372
 2201SOL     OW 8534   8.516   2.906   4.726  0.3996 -0.0384  0.7312
 2201SOL    HW1 8535   8.569   2.868   4.796 -0.1173 -1.2264  0.5092
 2201SOL    HW2 8536   8.490   2.831   4.672 -0.9718  0.5859  0.4719
 2202SOL     OW 8537   1.474   0.329   0.907 -0.3748 -0.6942  0.9600
 2202SOL    HW1 8538   1.482   0.253   0.965 -0.1302 -0.0593  1.7887
 2202SOL    HW2 8539   1.525   0.398   0.951 -1.0274  0.1036  0.4946
 2203SOL     OW 8540   8.506   2.503   0.262 -0.0793  0.6444  0.3949
 2203SOL    HW1 8541   8.426   2.476   0.218  0.3235 -0.3169  0.2257
 2203SOL    HW2 8542   8.502   2.459   0.347  0.4388  0.2751  0.2345
 2204SOL     OW 8543   2.144   6.045   3.443 -0.3295  0.1140 -0.5894
 2204SOL    HW1 8544   2.096   6.116   3.399 -2.0020 -0.5851  0.0622
 2204SOL    HW2 8545   2.104   5.965   3.410 -1.9128 -0.4587  2.3937
 2205SOL     OW 8546   4.594   8.620   5.085  0.0681  0.3972  0.5752
 2205SOL    HW1 8547   4.522   8.666   5.040  0.1707  1.7366  1.7025
 2205SOL    HW2 8548   4.550   8.567   5.152  0.1075  1.8486  1.8183
 2206SOL     OW 8549   7.890   6.765   7.109 -0.1883  0.4211  0.1594
 2206SOL    HW1 8550   7.965   6.742   7.164  1.5840 -2.5236 -3.0618
 2206SOL    HW2 8551   7.923   6.833   7.051 -1.0922  1.3672  0.7186
 2207SOL     OW 8552   1.059   8.099   4.382  0.3588 -0.0309 -0.0017
 2207SOL    HW1 8553   1.053   8.027   4.446 -0.7308  0.0140 -0.0251
 2207SOL    HW2 8554   1.145   8.089   4.342 -0.0061 -1.7214 -0.4430
 2208SOL     OW 8555   0.381   1.269   8.513  0.0752  0.5842  0.0123
 2208SOL    HW1 8556   0.365   1.221   8.594 -0.8035  1.0859  0.1395
 2208SOL    HW2 8557   0.400   1.201   8.449  1.2257  0.2079  0.7281
 2209SOL     OW 8558   5.823   6.428   7.420  0.0245 -0.0747  0.2360
 2209SOL    HW1 8559   5.871   6.502   7.456 -0.4577  0.3236  0.0785
 2209SOL    HW2 8560   5.889   6.361   7.405  0.5082  0.4172  0.1445
 2210SOL     OW 8561   1.032   5.239   0.640 -0.1743 -0.2940 -0.2191
 2210SOL    HW1 8562   1.080   5.273   0.716  0.5740 -0.7302 -0.4880
 2210SOL    HW2 8563   1.096   5.185   0.593 -0.2823  0.9004 -1.8143
 2211SOL     OW 8564   1.467   8.624   3.820 -0.0519  0.0518 -0.0675
 2211SOL    HW1 8565   1.491   8.618   3.913  0.0677  0.7459 -0.0476
 2211SOL    HW2 8566   1.545   8.594   3.773 -0.4048 -1.0938  0.0715
 2212SOL     OW 8567   0.771   7.161   4.528  0.5611  0.0793  0.0304
 2212SOL    HW1 8568   0.808   7.116   4.604 -0.1983  0.2028  0.4845
 2212SOL    HW2 8569   0.758   7.251   4.557  0.1328  0.0932 -0.1985
 2213SOL     OW 8570   8.435   2.008   5.018 -0.2035 -0.8178 -0.0836
 2213SOL    HW1 8571   8.458   1.930   4.968 -1.1588 -0.0252 -1.8508
 2213SOL    HW2 8572   8.342   2.022   4.999 -1.1155 -1.4137  3.2927
 2214SOL     OW 8573   8.844   5.938   8.062  0.6518  0.6166 -0.5931
 2214SOL    HW1 8574   8.813   5.876   8.129 -0.2340  1.4338 -0.2233
 2214SOL    HW2 8575   8.767   5.991   8.041  0.8620  0.2668 -2.4156
 2215SOL     OW 8576   2.598   5.168   3.130  0.6861 -0.1943  0.6814
 2215SOL    HW1 8577   2.673   5.227   3.133 -0.1226  0.9202 -0.2130
 2215SOL    HW2 8578   2.613   5.114   3.052  0.6669 -0.1199  0.6261
 2216SOL     OW 8579   5.914   7.851   6.377 -0.6181 -0.0584  0.1719
 2216SOL    HW1 8580   5.981   7.787   6.399 -0.8763 -0.4100 -0.0520
 2216SOL    HW2 8581   5.833   7.801   6.371 -0.6945  0.1579 -0.7628
 2217SOL     OW 8582   2.787   2.553   8.061 -0.2651  0.0180 -0.6165
 2217SOL    HW1 8583   2.827   2.628   8.105  0.6685 -0.6995 -0.2146
 2217SOL    HW2 8584   2.729   2.592   7.996 -2.1696  1.1257  1.5949
 2218SOL     OW 8585   6.780   5.170   1.671 -0.2440 -0.2154 -0.4145
 2218SOL    HW1 8586   6.784   5.100   1.605 -1.3872 -0.5858 -0.1142
 2218SOL    HW2 8587   6.687   5.193   1.675 -0.0641  0.3872  0.4664
 2219SOL     OW 8588   8.631   1.986   3.618  0.7297 -0.0592  0.6140
 2219SOL    HW1 8589   8.722   1.987   3.649  0.4887 -1.4737  1.4812
 2219SOL    HW2 8590   8.610   2.078   3.603  3.0242  0.1750 -1.8663
 2220SOL     OW 8591   6.266   4.877   1.208  0.3750 -0.1212  0.1493
 2220SOL    HW1 8592   6.322   4.853   1.281  1.5046 -2.8383 -1.4530
 2220SOL    HW2 8593   6.325   4.919   1.145 -0.3806  1.2956  0.3564
 2221SOL     OW 8594   2.690   7.755   2.606  0.1731  0.6874  0.3553
 2221SOL    HW1 8595   2.748   7.694   2.561 -0.2998 -1.7267  2.7618
 2221SOL    HW2 8596   2.745   7.797   2.672 -0.0753  1.0463  0.3401
 2222SOL     OW 8597   3.222   1.136   8.012 -0.0058  0.0035 -0.0408
 2222SOL    HW1 8598   3.150   1.148   7.950 -0.4232  3.7725  0.9207
 2222SOL    HW2 8599   3.184   1.161   8.097  2.0172  0.6672  0.7282
 2223SOL     OW 8600   0.483   1.922   7.771 -0.4985  0.2325 -0.0688
 2223SOL    HW1 8601   0.455   1.833   7.791  1.8990 -0.8141 -1.0191
 2223SOL    HW2 8602   0.438   1.944   7.690 -0.0858 -0.6591 -0.5507
 2224SOL     OW 8603   1.510   2.935   8.345 -0.2135  0.0120  0.9068
 2224SOL    HW1 8604   1.592   2.952   8.393  0.0939  0.9608  0.0853
 2224SOL    HW2 8605   1.443   2.929   8.413  0.4190  0.0232  1.5403
 2225SOL     OW 8606   6.526   1.503   1.520  0.2222  0.0143  0.2471
 2225SOL    HW1 8607   6.500   1.583   1.565  1.3720  1.1476 -1.0209
 2225SOL    HW2 8608   6.462   1.494   1.449  0.6359  0.3151 -0.1638
 2226SOL     OW 8609   3.094   4.745   4.391  0.2696 -0.5254  0.2776
 2226SOL    HW1 8610   3.091   4.657   4.353  0.0121  0.3182 -1.7974
 2226SOL    HW2 8611   3.016   4.750   4.446 -0.8747 -0.9436 -1.2270
 2227SOL     OW 8612   1.412   4.485   5.112 -0.2392  0.0889  0.3121
 2227SOL    HW1 8613   1.385   4.562   5.063  1.6428  0.0160 -0.9022
 2227SOL    HW2 8614   1.385   4.411   5.058  1.8865  0.0095 -0.7429
 2228SOL     OW 8615   0.149   5.503   0.761  0.1680  0.5553  0.5171
 2228SOL    HW1 8616   0.068   5.456   0.739 -0.5811  2.4883 -1.1508
 2228SOL    HW2 8617   0.206   5.488   0.686  0.0436  2.0005  0.1208
 2229SOL     OW 8618   8.758   8.609   0.333 -0.2556  0.0276 -0.3781
 2229SOL    HW1 8619   8.674   8.634   0.294 -0.1421 -1.2920 -1.5464
 2229SOL    HW2 8620   8.821   8.672   0.297 -0.7108  0.9651  0.4341
 2230SOL     OW 8621   4.233   8.254   2.040 -0.3199  0.1015 -0.3145
 2230SOL    HW1 8622   4.210   8.191   2.108 -2.2549  1.6828  0.6286
 2230SOL    HW2 8623   4.159   8.315   2.039  1.7273  2.7458 -0.6622
 2231SOL     OW 8624   2.510   1.639   0.444 -0.0838 -0.6698 -0.8152
 2231SOL    HW1 8625   2.424   1.604   0.470 -0.2177 -0.4720 -0.9913
 2231SOL    HW2 8626   2.570   1.604   0.510 -0.1823 -1.3903 -1.0913
 2232SOL     OW 8627   3.694   6.882   3.090  0.0540  0.2768  0.2677
 2232SOL    HW1 8628   3.648   6.886   3.174  1.2031  1.1535  0.8908
 2232SOL    HW2 8629   3.695   6.789   3.067 -2.2682  0.2546  0.0602
 2233SOL     OW 8630   0.785   8.262   4.231 -0.1287  0.3345 -0.3583
 2233SOL    HW1 8631   0.792   8.289   4.140  0.0755 -0.5429 -0.6099
 2233SOL    HW2 8632   0.875   8.245   4.259 -0.2931 -0.6484 -0.3900
 2234SOL     OW 8633   8.004   0.746   0.368 -0.1362  0.2237 -0.1671
 2234SOL    HW1 8634   8.043   0.786   0.446 -1.2185 -0.6159  0.8408
 2234SOL    HW2 8635   7.940   0.811   0.337 -0.1915  0.2698  0.0445
 2235SOL     OW 8636   4.152   7.972   4.041 -0.0217 -0.1018 -0.1122
 2235SOL    HW1 8637   4.207   8.043   4.076  0.1349  0.2264 -0.9958
 2235SOL    HW2 8638   4.157   7.903   4.107 -0.6584  0.9292  1.0713
 2236SOL     OW 8639   1.278   8.037   7.331 -0.2256 -0.2998  0.5208
 2236SOL    HW1 8640   1.311   7.964   7.279  2.7959  1.2524  0.0551
 2236SOL    HW2 8641   1.221   7.996   7.396  0.5635 -2.9176 -0.3115
 2237SOL     OW 8642   4.536   8.598   5.637  0.4628 -0.1115 -0.0158
 2237SOL    HW1 8643   4.632   8.594   5.643  0.8775  1.0600 -3.7210
 2237SOL    HW2 8644   4.517   8.690   5.618 -0.9976 -0.9395 -3.1087
 2238SOL     OW 8645   7.332   6.709   0.301  0.1137  0.0919  1.3234
 2238SOL    HW1 8646   7.391   6.660   0.244 -0.7241  1.6185 -1.0500
 2238SOL    HW2 8647   7.336   6.664   0.385  1.1767 -2.5605 -0.0122
 2239SOL     OW 8648   6.161   5.214   7.411  0.2572 -0.3212 -0.0907
 2239SOL    HW1 8649   6.210   5.283   7.366  0.4381 -0.8131 -0.6614
 2239SOL    HW2 8650   6.190   5.132   7.369  1.3568 -0.9240  1.7325
 2240SOL     OW 8651   7.853   4.004   1.765 -0.2829  0.5147  0.5043
 2240SOL    HW1 8652   7.800   4.011   1.686 -0.2500  0.0818  0.4419
 2240SOL    HW2 8653   7.790   4.002   1.836 -0.2840  1.9026  0.5694
 2241SOL     OW 8654   8.437   4.670   2.724 -0.0145 -0.0508  0.1799
 2241SOL    HW1 8655   8.516   4.719   2.743  0.0544  0.1571 -0.6024
 2241SOL    HW2 8656   8.373   4.736   2.696 -0.4932 -0.2066  0.8621
 2242SOL     OW 8657   7.866   1.695   0.986  0.1546  0.2313  0.1933
 2242SOL    HW1 8658   7.953   1.666   1.013  1.7610  1.0479 -3.4148
 2242SOL    HW2 8659   7.866   1.790   1.001  0.1521  0.3239 -0.3576
 2243SOL     OW 8660   6.736   8.663   0.794 -0.4382  0.1849 -0.5604
 2243SOL    HW1 8661   6.663   8.722   0.772 -0.8216  0.2695  0.8398
 2243SOL    HW2 8662   6.698   8.601   0.857 -0.0065 -1.4834 -1.8754
 2244SOL     OW 8663   3.466   2.304   3.747 -0.1577 -0.0358  0.2244
 2244SOL    HW1 8664   3.507   2.306   3.834 -0.9454  1.5199  0.5994
 2244SOL    HW2 8665   3.406   2.230   3.751  2.2201 -2.1340 -0.2059
 2245SOL     OW 8666   6.102   1.509   3.840  0.2755 -0.1693  0.1443
 2245SOL    HW1 8667   6.103   1.564   3.919 -0.6170  2.0417 -1.2543
 2245SOL    HW2 8668   6.191   1.514   3.806 -0.0886  1.7255 -0.7111
 2246SOL     OW 8669   8.530   1.815   3.445  0.1224 -0.1584 -0.1586
 2246SOL    HW1 8670   8.557   1.883   3.506 -2.7034  1.1271 -0.2087
 2246SOL    HW2 8671   8.505   1.742   3.501  0.2390 -0.0368  0.0573
 2247SOL     OW 8672   4.984   4.701   6.189 -0.7412  0.1797  0.1296
 2247SOL    HW1 8673   5.058   4.685   6.130 -1.1662  1.0622 -0.6857
 2247SOL    HW2 8674   4.978   4.623   6.244  1.5798  0.5856  1.0759
 2248SOL     OW 8675   6.793   8.821   2.477  0.2500  0.1189 -0.2164
 2248SOL    HW1 8676   6.864   8.799   2.538 -0.4421  0.7401  0.8630
 2248SOL    HW2 8677   6.767   8.737   2.439  2.2909  0.0030 -1.5114
 2249SOL     OW 8678   8.186   7.320   0.347 -0.0186  0.2923 -0.0691
 2249SOL    HW1 8679   8.241   7.259   0.395 -0.8788 -0.0051  0.5722
 2249SOL    HW2 8680   8.097   7.288   0.361 -0.5021  1.7253  0.3701
 2250SOL     OW 8681   6.217   8.070   6.180 -0.3318 -0.1789 -0.4849
 2250SOL    HW1 8682   6.182   8.066   6.091  0.0393  1.2699 -0.7180
 2250SOL    HW2 8683   6.266   8.153   6.183 -1.6873  0.6114  1.5701
 2251SOL     OW 8684   0.502   4.914   4.928  0.4560  0.3250 -0.4653
 2251SOL    HW1 8685   0.431   4.851   4.943  1.0854 -0.2050  0.2980
 2251SOL    HW2 8686   0.496   4.934   4.834  1.1667 -2.0050 -1.0583
 2252SOL     OW 8687   5.855   3.389   6.751 -0.1960 -0.5536  0.5531
 2252SOL    HW1 8688   5.768   3.416   6.722 -0.9226 -2.2884  0.9970
 2252SOL    HW2 8689   5.844   3.368   6.844  1.0406  0.5350  0.9764
 2253SOL     OW 8690   5.391   6.100   1.387 -0.5414  0.0697 -0.2453
 2253SOL    HW1 8691   5.462   6.058   1.339 -1.5524 -0.6352 -1.1767
 2253SOL    HW2 8692   5.354   6.030   1.441  1.3970  1.1259  2.6687
 2254SOL     OW 8693   8.653   5.213   7.942  0.2485  0.3046 -0.1275
 2254SOL    HW1 8694   8.582   5.278   7.945 -0.8203 -0.8120 -0.4739
 2254SOL    HW2 8695   8.624   5.149   7.877  2.0076  0.2922 -0.9491
 2255SOL     OW 8696   6.014   0.612   5.564 -0.2288  0.1212  0.2022
 2255SOL    HW1 8697   6.083   0.674   5.589  0.0798 -0.0206 -0.2838
 2255SOL    HW2 8698   5.934   0.647   5.603 -0.3468  1.6387 -1.3136
 2256SOL     OW 8699   3.374   4.597   6.233  0.7178 -0.1080  0.1904
 2256SOL    HW1 8700   3.374   4.540   6.157  2.1427 -2.0354  1.5419
 2256SOL    HW2 8701   3.282   4.598   6.263  0.2674  0.1760 -1.1413
 2257SOL     OW 8702   6.456   1.763   3.562 -0.7737 -0.2705  0.4045
 2257SOL    HW1 8703   6.473   1.810   3.643 -0.8872  2.0602 -0.8181
 2257SOL    HW2 8704   6.531   1.705   3.550  0.0351  0.5570  1.3672
 2258SOL     OW 8705   4.318   5.830   0.601  0.2868  0.0719  0.4874
 2258SOL    HW1 8706   4.254   5.772   0.559  0.8486  0.0914 -0.4314
 2258SOL    HW2 8707   4.345   5.890   0.531  0.2618  0.9721  1.2376
 2259SOL     OW 8708   3.515   5.913   2.732 -0.3010  0.4500 -0.0023
 2259SOL    HW1 8709   3.447   5.854   2.702 -0.7345  0.5061  0.8472
 2259SOL    HW2 8710   3.520   5.981   2.664 -1.0949  0.4526 -0.0604
 2260SOL     OW 8711   7.606   3.612   0.569 -0.6063 -0.0905 -0.0242
 2260SOL    HW1 8712   7.596   3.576   0.657  0.9810  1.0636  0.6679
 2260SOL    HW2 8713   7.600   3.536   0.511 -2.2032 -0.8100  0.9928
 2261SOL     OW 8714   0.094   5.612   1.950  0.4937 -0.3282  0.1460
 2261SOL    HW1 8715   0.164   5.549   1.967  1.2268  0.4107 -0.0570
 2261SOL    HW2 8716   0.077   5.605   1.857  0.8591  0.0524  0.0478
 2262SOL     OW 8717   8.319   2.135   6.483  0.1920  0.1496  0.1350
 2262SOL    HW1 8718   8.278   2.221   6.482  0.3414  0.2692  1.7334
 2262SOL    HW2 8719   8.253   2.077   6.445 -1.8455  0.2364  3.1426
 2263SOL     OW 8720   0.602   4.940   5.655  0.0992  0.3201  0.2875
 2263SOL    HW1 8721   0.683   4.958   5.702  0.1257  0.3619  0.2263
 2263SOL    HW2 8722   0.624   4.954   5.563  0.9805 -2.9503 -0.1168
 2264SOL     OW 8723   6.496   3.451   4.306  0.1615 -0.0560  0.9798
 2264SOL    HW1 8724   6.557   3.506   4.258  1.5461 -1.6263  0.8279
 2264SOL    HW2 8725   6.421   3.442   4.248  0.6647  0.2671  0.2649
 2265SOL     OW 8726   1.180   8.738   6.873 -0.2644  0.1764 -0.6119
 2265SOL    HW1 8727   1.233   8.682   6.930 -1.0556 -2.0702 -1.9255
 2265SOL    HW2 8728   1.090   8.723   6.902 -0.6109 -0.4109 -1.9164
 2266SOL     OW 8729   4.441   5.306   2.734 -0.4118 -0.4843 -0.1530
 2266SOL    HW1 8730   4.414   5.300   2.642  1.2034 -0.4881 -0.6592
 2266SOL    HW2 8731   4.528   5.266   2.736  0.8381  2.0394  0.8192
 2267SOL     OW 8732   4.449   6.722   0.966  0.2572 -0.6146 -0.2453
 2267SOL    HW1 8733   4.534   6.753   0.997  0.1249 -0.5303  0.0400
 2267SOL    HW2 8734   4.387   6.787   0.997  0.1644 -0.2934 -1.0663
 2268SOL     OW 8735   2.854   1.107   1.021  0.3645  0.4147 -0.2902
 2268SOL    HW1 8736   2.940   1.102   0.978 -0.0915  0.7564 -1.2824
 2268SOL    HW2 8737   2.822   1.195   1.001  0.4715  0.8852  1.4619
 2269SOL     OW 8738   2.785   8.393   3.475  0.3972 -0.7749  0.4838
 2269SOL    HW1 8739   2.802   8.486   3.458 -1.2716 -0.2514  1.3833
 2269SOL    HW2 8740   2.762   8.356   3.390 -2.2185  0.4506  0.5822
 2270SOL     OW 8741   6.554   6.576   6.096  0.2633 -0.3051 -0.1264
 2270SOL    HW1 8742   6.566   6.661   6.138  0.8538 -0.7577  0.6606
 2270SOL    HW2 8743   6.491   6.530   6.152  2.1069 -1.4397  1.1436
 2271SOL     OW 8744   6.140   7.919   1.576  0.4046 -0.1462  0.1411
 2271SOL    HW1 8745   6.082   7.979   1.529  0.4419 -1.0510 -1.1228
 2271SOL    HW2 8746   6.199   7.884   1.509  0.2272 -1.7594  0.7648
 2272SOL     OW 8747   3.506   2.253   4.940  0.4291  0.1556 -0.3850
 2272SOL    HW1 8748   3.453   2.175   4.924  0.3593  0.5056 -2.1040
 2272SOL    HW2 8749   3.447   2.315   4.982  0.0777 -0.2226 -0.3237
 2273SOL     OW 8750   4.944   8.854   2.803 -0.4164 -0.1798 -0.3927
 2273SOL    HW1 8751   5.031   8.814   2.794 -0.2241 -0.1976  1.3523
 2273SOL    HW2 8752   4.934   8.907   2.723  0.6289 -1.2152 -1.2483
 2274SOL     OW 8753   0.481   5.311   3.031 -0.2754 -0.3271 -0.3418
 2274SOL    HW1 8754   0.568   5.303   2.992 -0.8597  0.1188 -1.7801
 2274SOL    HW2 8755   0.483   5.394   3.079  0.4288 -0.8547  0.5779
 2275SOL     OW 8756   7.116   2.201   0.701 -0.3388 -0.1416  0.0683
 2275SOL    HW1 8757   7.077   2.283   0.732 -1.6772 -0.9488  0.6110
 2275SOL    HW2 8758   7.208   2.208   0.724 -0.7772  0.4690  1.7801
 2276SOL     OW 8759   2.596   4.233   8.540 -0.1600  0.4799  0.1989
 2276SOL    HW1 8760   2.648   4.178   8.481 -0.8494 -0.4956  0.4909
 2276SOL    HW2 8761   2.520   4.258   8.489 -0.2743  0.4474  0.3542
 2277SOL     OW 8762   1.809   4.634   0.552  0.3322  0.3497  0.0101
 2277SOL    HW1 8763   1.865   4.595   0.619  1.0543  2.5776  0.7997
 2277SOL    HW2 8764   1.728   4.656   0.597  0.1700  0.3219 -0.2656
 2278SOL     OW 8765   7.461   6.188   8.198 -0.9517  0.3084 -0.1564
 2278SOL    HW1 8766   7.525   6.128   8.236 -0.7292  0.1075 -0.8360
 2278SOL    HW2 8767   7.433   6.243   8.271 -0.2823  0.1550  0.2198
 2279SOL     OW 8768   8.477   5.446   0.511  0.0968  0.4125 -0.1538
 2279SOL    HW1 8769   8.428   5.458   0.592  0.4897 -0.7800  0.2802
 2279SOL    HW2 8770   8.411   5.425   0.445 -0.2782  1.8787 -0.2849
 2280SOL     OW 8771   5.641   2.730   7.358  0.0832  0.2306 -0.2981
 2280SOL    HW1 8772   5.623   2.657   7.417 -1.9446 -0.1509 -1.2909
 2280SOL    HW2 8773   5.728   2.760   7.383  0.2542 -1.4015  1.2997
 2281SOL     OW 8774   8.368   3.683   5.836  0.1164  0.3247 -0.1714
 2281SOL    HW1 8775   8.439   3.658   5.777  0.7822  0.1999  0.6676
 2281SOL    HW2 8776   8.402   3.760   5.882 -0.5708  0.6895 -0.2675
 2282SOL     OW 8777   5.234   5.672   7.273  0.0011 -0.5579  0.0386
 2282SOL    HW1 8778   5.318   5.659   7.229  0.4891  0.6654  0.5347
 2282SOL    HW2 8779   5.170   5.629   7.217  0.1489  3.2189 -3.5502
 2283SOL     OW 8780   3.211   1.915   7.735 -0.4219 -0.1926  0.4389
 2283SOL    HW1 8781   3.130   1.910   7.785 -1.2509  0.6582 -0.7660
 2283SOL    HW2 8782   3.186   1.957   7.652  1.2391  0.0861  0.0400
 2284SOL     OW 8783   2.843   0.365   5.954  0.1231  0.1959 -0.0592
 2284SOL    HW1 8784   2.888   0.352   6.038  1.5163  0.3282 -0.7530
 2284SOL    HW2 8785   2.753   0.336   5.970  0.8214 -1.5781  0.9621
 2285SOL     OW 8786   0.731   4.515   1.904 -0.4709  0.0645 -0.2073
 2285SOL    HW1 8787   0.801   4.461   1.866  0.4847  0.0676  1.4557
 2285SOL    HW2 8788   0.762   4.605   1.892  0.1734  0.0478  1.0962
 2286SOL     OW 8789   8.199   5.023   7.334  0.5973  0.2824 -0.3544
 2286SOL    HW1 8790   8.282   5.061   7.364  0.9271 -1.0224  0.4556
 2286SOL    HW2 8791   8.133   5.069   7.385  1.2111 -3.0134  4.0118
 2287SOL     OW 8792   5.720   3.850   4.641  0.5474  0.3838  0.2518
 2287SOL    HW1 8793   5.785   3.802   4.692 -0.6444 -2.0929 -0.4011
 2287SOL    HW2 8794   5.710   3.799   4.560 -1.1982  1.4457 -0.2770
 2288SOL     OW 8795   4.436   8.478   3.887 -0.3703  0.5269  0.0061
 2288SOL    HW1 8796   4.375   8.411   3.917  0.7183 -0.6069 -0.2696
 2288SOL    HW2 8797   4.509   8.474   3.949  0.4860  0.2655 -0.9900
 2289SOL     OW 8798   8.733   8.103   0.867 -0.0702 -0.2605  0.1506
 2289SOL    HW1 8799   8.737   8.008   0.869  1.3778 -0.2175  0.7464
 2289SOL    HW2 8800   8.786   8.128   0.791 -2.1657  0.0456 -1.2855
 2290SOL     OW 8801   0.008   1.643   2.996 -0.3953 -0.0035  0.0561
 2290SOL    HW1 8802  -0.014   1.642   2.903 -0.4389  1.0716  0.0489
 2290SOL    HW2 8803   0.030   1.552   3.016 -0.7733 -0.3205 -0.9078
 2291SOL     OW 8804   8.817   4.633   3.531  0.3055 -0.4195 -0.0042
 2291SOL    HW1 8805   8.810   4.621   3.625 -0.8365  0.3126  0.0278
 2291SOL    HW2 8806   8.898   4.684   3.519  0.0782  0.1113  0.6489
 2292SOL     OW 8807   4.588   1.065   3.095 -0.0423 -0.5497 -0.6625
 2292SOL    HW1 8808   4.656   1.075   3.028 -1.1048  0.4172 -1.6214
 2292SOL    HW2 8809   4.546   1.151   3.101 -1.1731 -1.1166 -0.0764
 2293SOL     OW 8810   3.085   8.531   5.799  0.0475  0.0213 -0.1548
 2293SOL    HW1 8811   3.180   8.534   5.788  0.6332 -0.7948  3.3724
 2293SOL    HW2 8812   3.067   8.601   5.862 -1.2663 -1.3696  1.1082
 2294SOL     OW 8813   7.715   1.636   3.003 -0.3160  0.6512 -0.8896
 2294SOL    HW1 8814   7.764   1.574   2.950 -0.3905 -0.3262  0.1481
 2294SOL    HW2 8815   7.623   1.618   2.984 -0.3593 -0.0667 -0.0568
 2295SOL     OW 8816   0.737   2.561   5.493 -0.7944 -0.1188  0.4231
 2295SOL    HW1 8817   0.777   2.633   5.443 -2.0640  0.5853  0.3769
 2295SOL    HW2 8818   0.773   2.570   5.581  0.6931 -0.7560 -0.0982
 2296SOL     OW 8819   2.358   7.367   5.577  0.1776  0.0931 -0.2513
 2296SOL    HW1 8820   2.418   7.399   5.509 -0.4427 -2.5077 -2.2144
 2296SOL    HW2 8821   2.412   7.312   5.633  0.0016 -1.0034 -1.1079
 2297SOL     OW 8822   6.689   4.959   0.803 -0.0846  0.1401 -0.2374
 2297SOL    HW1 8823   6.703   4.883   0.860 -1.1682 -0.0443 -0.1969
 2297SOL    HW2 8824   6.675   5.032   0.863  0.6464  0.3264 -0.2787
 2298SOL     OW 8825   4.737   3.266   2.982  0.0664 -0.2071  0.2508
 2298SOL    HW1 8826   4.802   3.268   2.912  0.8174 -1.6826  0.8498
 2298SOL    HW2 8827   4.659   3.229   2.941 -1.0653  3.0445 -0.8978
 2299SOL     OW 8828   4.777   3.583   7.301 -0.3507  0.2236  0.0539
 2299SOL    HW1 8829   4.772   3.674   7.330 -0.9318 -0.5181  2.5009
 2299SOL    HW2 8830   4.835   3.540   7.365 -2.0396 -1.6236  0.4377
 2300SOL     OW 8831   3.340   5.590   1.394 -0.2666 -0.2630  0.0898
 2300SOL    HW1 8832   3.369   5.542   1.316  0.4438 -0.4553  0.4710
 2300SOL    HW2 8833   3.341   5.526   1.464  2.1536  0.6145  0.9364
 2301SOL     OW 8834   6.847   7.745   6.573  0.3284 -0.4805 -0.0394
 2301SOL    HW1 8835   6.824   7.783   6.488  0.0703  0.8227  0.5885
 2301SOL    HW2 8836   6.880   7.819   6.624  0.2837 -1.2044  1.0746
 2302SOL     OW 8837   3.193   3.494   4.130  0.2978  0.9417  0.0577
 2302SOL    HW1 8838   3.139   3.468   4.205 -0.7011 -1.7807 -1.4870
 2302SOL    HW2 8839   3.143   3.563   4.087 -1.1542 -0.3258 -0.3550
 2303SOL     OW 8840   5.587   2.815   0.042  0.1496 -0.1304 -0.2439
 2303SOL    HW1 8841   5.525   2.791   0.111  0.6975  1.0497  0.6740
 2303SOL    HW2 8842   5.645   2.739   0.036 -1.2169 -1.1779 -0.9818
 2304SOL     OW 8843   4.278   2.752   6.479  0.0620  0.1562  0.7186
 2304SOL    HW1 8844   4.228   2.702   6.415  3.4803 -0.0111 -2.1563
 2304SOL    HW2 8845   4.326   2.686   6.529  1.2498  0.3897 -0.0812
 2305SOL     OW 8846   0.364   5.144   1.281 -0.3838 -0.1281  0.3951
 2305SOL    HW1 8847   0.321   5.208   1.224 -1.9743  1.1670  2.8370
 2305SOL    HW2 8848   0.439   5.113   1.231 -0.0523  3.0073 -1.3077
 2306SOL     OW 8849   3.164   8.492   2.751  0.9497 -0.4660  0.5688
 2306SOL    HW1 8850   3.202   8.489   2.840  0.6330 -0.1488  0.7163
 2306SOL    HW2 8851   3.188   8.579   2.719  0.4387 -0.3079  0.6197
 2307SOL     OW 8852   4.975   7.440   5.513 -0.1042  0.2745 -0.1173
 2307SOL    HW1 8853   4.958   7.346   5.509  0.3408  0.2325 -1.6054
 2307SOL    HW2 8854   5.052   7.453   5.458  0.7492  1.3318  1.2552
 2308SOL     OW 8855   6.519   7.869   4.929 -0.6972 -0.1216  0.0441
 2308SOL    HW1 8856   6.600   7.820   4.937 -1.3256 -1.3710 -0.9040
 2308SOL    HW2 8857   6.539   7.955   4.966  0.5505 -0.9387  1.3908
 2309SOL     OW 8858   8.550   3.489   5.976 -0.6310  0.2956  0.2171
 2309SOL    HW1 8859   8.505   3.435   5.912 -0.2746 -0.5639  0.6782
 2309SOL    HW2 8860   8.623   3.436   6.006 -1.6869  0.0070  2.5179
 2310SOL     OW 8861   5.908   0.827   3.030  0.4820 -0.2074 -0.1805
 2310SOL    HW1 8862   5.938   0.912   3.063 -1.1730  0.7873 -1.0713
 2310SOL    HW2 8863   5.965   0.808   2.956 -0.3252  1.1409 -1.2063
 2311SOL     OW 8864   8.653   1.752   4.617  0.3374 -0.1388  0.5275
 2311SOL    HW1 8865   8.729   1.693   4.612 -0.2865 -0.8626 -1.5397
 2311SOL    HW2 8866   8.577   1.694   4.621 -0.1671  0.5770  2.2331
 2312SOL     OW 8867   5.351   0.266   1.665 -0.6339  0.5261 -0.1166
 2312SOL    HW1 8868   5.307   0.348   1.642  1.6109  2.2548  1.3650
 2312SOL    HW2 8869   5.383   0.280   1.754  0.8546 -1.5041 -0.2722
 2313SOL     OW 8870   2.585   0.064   1.653 -0.2263 -0.3344  0.2159
 2313SOL    HW1 8871   2.526   0.001   1.694  0.6633 -0.1206  1.9240
 2313SOL    HW2 8872   2.644   0.010   1.600 -1.6931 -0.5731 -1.2714
 2314SOL     OW 8873   5.777   3.348   3.492  0.0557 -0.2355  0.2903
 2314SOL    HW1 8874   5.809   3.438   3.483 -1.8989  0.4121 -0.9690
 2314SOL    HW2 8875   5.696   3.356   3.543 -0.8216 -1.0723 -0.9119
 2315SOL     OW 8876   2.067   1.021   5.148  0.1168  0.0321  0.2700
 2315SOL    HW1 8877   2.089   0.957   5.216 -1.8003  0.0966  1.0004
 2315SOL    HW2 8878   1.973   1.035   5.156  0.3627  2.5593 -0.2347
 2316SOL     OW 8879   2.395   2.463   7.107  0.0355 -0.6708  0.5486
 2316SOL    HW1 8880   2.392   2.382   7.158 -1.2855 -0.8227  0.2533
 2316SOL    HW2 8881   2.420   2.530   7.171 -2.3123 -0.7270  1.6514
 2317SOL     OW 8882   0.829   1.390   1.764  0.7809 -0.5053  0.0555
 2317SOL    HW1 8883   0.880   1.314   1.790  0.9568 -0.1262  0.8542
 2317SOL    HW2 8884   0.878   1.465   1.799 -0.4074 -0.1406  1.0485
 2318SOL     OW 8885   0.494   4.633   4.692  0.3365 -0.0338 -0.3325
 2318SOL    HW1 8886   0.571   4.672   4.650 -0.3970  0.7340 -1.0070
 2318SOL    HW2 8887   0.530   4.566   4.750  1.5609  0.8554 -0.0225
 2319SOL     OW 8888   6.558   6.320   7.068 -0.4587  0.0706  0.7272
 2319SOL    HW1 8889   6.580   6.295   6.979  0.7068  0.2368  0.9563
 2319SOL    HW2 8890   6.593   6.249   7.123 -1.0568  0.0285  1.0667
 2320SOL     OW 8891   3.858   0.767   8.787 -0.6610  0.1384  0.2737
 2320SOL    HW1 8892   3.839   0.737   8.698  0.7708  1.2131 -0.4195
 2320SOL    HW2 8893   3.777   0.748   8.835 -0.8969 -1.9746 -0.8255
 2321SOL     OW 8894   3.650   8.041   3.795 -0.0086  0.8107  0.0989
 2321SOL    HW1 8895   3.641   8.025   3.701 -1.4802 -0.7187  0.4566
 2321SOL    HW2 8896   3.702   7.967   3.827  0.5312  1.3532  0.4978
 2322SOL     OW 8897   6.277   2.407   5.113 -0.0989  0.3124 -0.3385
 2322SOL    HW1 8898   6.297   2.385   5.204 -0.3167 -1.0190 -0.5937
 2322SOL    HW2 8899   6.182   2.397   5.106  0.0027 -0.3175 -0.8898
 2323SOL     OW 8900   1.374   3.457   8.210  0.7659  0.6436  0.2816
 2323SOL    HW1 8901   1.445   3.521   8.221  1.4654 -0.3033  1.4979
 2323SOL    HW2 8902   1.303   3.490   8.265  0.6546  1.0207 -0.0825
 2324SOL     OW 8903   4.691   4.653   8.076 -0.3587  0.0664  0.2321
 2324SOL    HW1 8904   4.762   4.607   8.122 -0.0006  0.5435  0.1707
 2324SOL    HW2 8905   4.699   4.625   7.985 -1.1837 -1.0240  0.4708
 2325SOL     OW 8906   7.676   3.592   7.397  0.1264 -0.5824  0.1052
 2325SOL    HW1 8907   7.740   3.541   7.447  0.6627 -0.7733 -0.7504
 2325SOL    HW2 8908   7.632   3.528   7.342 -3.1387 -1.0162  2.9333
 2326SOL     OW 8909   1.601   0.342   0.403 -0.2687 -0.1101  0.2722
 2326SOL    HW1 8910   1.679   0.288   0.388 -1.7517 -2.7953  1.4959
 2326SOL    HW2 8911   1.586   0.385   0.319  0.4852 -2.3985 -1.1612
 2327SOL     OW 8912   5.872   3.926   3.505 -0.3291 -0.0749  0.1807
 2327SOL    HW1 8913   5.862   3.931   3.410 -0.7581  2.3202  0.2857
 2327SOL    HW2 8914   5.794   3.970   3.540 -0.7925 -1.9738  1.7098
 2328SOL     OW 8915   0.753   7.650   2.323 -0.6164  0.4284 -0.0136
 2328SOL    HW1 8916   0.804   7.731   2.316  1.7074 -0.9533 -0.2983
 2328SOL    HW2 8917   0.775   7.615   2.409  0.2277 -0.9606 -0.7480
 2329SOL     OW 8918   1.828   6.316   8.395 -0.2694 -0.1119 -0.1226
 2329SOL    HW1 8919   1.802   6.261   8.321  0.1603 -0.0829 -0.2983
 2329SOL    HW2 8920   1.826   6.405   8.360 -0.8125 -0.0304  0.1182
 2330SOL     OW 8921   7.124   3.033   0.798 -0.8433 -0.5834  0.1029
 2330SOL    HW1 8922   7.174   3.072   0.726  1.0274 -4.2080 -0.7663
 2330SOL    HW2 8923   7.033   3.031   0.766 -1.0621  2.6410  0.1541
 2331SOL     OW 8924   2.528   8.237   3.643 -0.2582 -0.3200  0.7724
 2331SOL    HW1 8925   2.433   8.243   3.639 -0.1644  0.3128 -1.4627
 2331SOL    HW2 8926   2.558   8.249   3.553  1.9005 -1.5471  1.2422
 2332SOL     OW 8927   3.659   5.685   6.796 -0.2030 -0.0498 -0.2221
 2332SOL    HW1 8928   3.722   5.744   6.836 -0.3736  1.0375 -1.4789
 2332SOL    HW2 8929   3.658   5.608   6.853  2.4444 -0.2209 -0.2846
 2333SOL     OW 8930   4.411   2.509   2.386 -0.4280 -0.0614  0.6542
 2333SOL    HW1 8931   4.363   2.448   2.443  0.5516 -1.7588 -0.2912
 2333SOL    HW2 8932   4.348   2.531   2.317 -0.5828 -0.5041  0.6493
 2334SOL     OW 8933   6.629   7.727   4.065  0.2330  0.4847  0.3285
 2334SOL    HW1 8934   6.662   7.665   4.001  0.6903  1.2326 -0.1675
 2334SOL    HW2 8935   6.706   7.775   4.095 -0.0966  0.7478  0.7777
 2335SOL     OW 8936   2.037   7.844   6.619 -0.1112 -0.2061 -0.3150
 2335SOL    HW1 8937   1.961   7.897   6.646  1.3242  0.8613  1.9548
 2335SOL    HW2 8938   2.085   7.901   6.559  0.0275 -0.0058 -0.0159
 2336SOL     OW 8939   3.987   8.017   0.460 -0.8834 -0.1636  0.0272
 2336SOL    HW1 8940   4.011   8.018   0.552  0.4396  0.0679 -0.3051
 2336SOL    HW2 8941   3.994   8.108   0.431  0.9568 -0.5229 -0.8252
 2337SOL     OW 8942   3.768   0.137   0.379 -0.1457  0.3742  0.3368
 2337SOL    HW1 8943   3.751   0.230   0.392 -0.8749  0.4315 -0.9236
 2337SOL    HW2 8944   3.682   0.095   0.387 -0.1677  0.0756 -1.1996
 2338SOL     OW 8945   2.834   8.198   2.150  0.2098 -0.0616  0.1718
 2338SOL    HW1 8946   2.884   8.125   2.113 -0.3403 -0.8361  0.9270
 2338SOL    HW2 8947   2.855   8.195   2.244 -1.8174 -0.8923  0.6505
 2339SOL     OW 8948   2.617   5.566   0.596  0.6597 -0.5733 -0.3650
 2339SOL    HW1 8949   2.669   5.623   0.652 -0.0355  0.1176 -0.4110
 2339SOL    HW2 8950   2.637   5.478   0.627 -0.5842 -0.1651  1.7988
 2340SOL     OW 8951   0.233   2.710   3.346 -0.4027 -0.3176 -0.0277
 2340SOL    HW1 8952   0.212   2.722   3.253  2.3806  1.9200 -0.5205
 2340SOL    HW2 8953   0.278   2.626   3.350  1.6402  0.6428 -1.2449
 2341SOL     OW 8954   1.995   2.596   5.080  0.2557 -0.4298 -0.5547
 2341SOL    HW1 8955   1.920   2.541   5.058  0.7459 -0.6238 -1.8346
 2341SOL    HW2 8956   1.963   2.653   5.149 -0.4945 -1.7982  0.2663
 2342SOL     OW 8957   8.070   2.909   8.417 -0.0004  0.1200  0.0116
 2342SOL    HW1 8958   8.000   2.905   8.352  0.8163  1.1993 -0.9753
 2342SOL    HW2 8959   8.053   2.990   8.465  1.5854  1.3948 -1.4766
 2343SOL     OW 8960   6.833   8.316   0.416  0.2850 -0.0346  0.4239
 2343SOL    HW1 8961   6.926   8.302   0.397  0.3905 -1.0574  1.5317
 2343SOL    HW2 8962   6.793   8.329   0.330  1.3797 -0.0568 -0.1120
 2344SOL     OW 8963   1.711   4.100   8.464  0.0551  0.0176  0.5018
 2344SOL    HW1 8964   1.780   4.163   8.441 -0.0571 -0.8057 -2.5130
 2344SOL    HW2 8965   1.759   4.023   8.496  0.4324  0.1100  0.1681
 2345SOL     OW 8966   3.080   1.474   0.855 -0.1584 -0.1853  0.2880
 2345SOL    HW1 8967   3.044   1.555   0.891  1.7943  1.3837 -1.1014
 2345SOL    HW2 8968   3.064   1.480   0.761 -2.6248 -2.8783  0.3791
 2346SOL     OW 8969   3.002   3.060   3.276  0.1188  0.1400  0.6934
 2346SOL    HW1 8970   2.966   3.072   3.189 -0.7651  0.0448  1.0347
 2346SOL    HW2 8971   3.049   3.141   3.295  0.1732  0.2220  0.1986
 2347SOL     OW 8972   2.718   1.827   6.431  0.0586  0.1552  0.1498
 2347SOL    HW1 8973   2.725   1.773   6.352 -0.5516  3.2977 -2.2417
 2347SOL    HW2 8974   2.630   1.809   6.465  1.0889 -2.8812  1.5958
 2348SOL     OW 8975   6.418   6.733   3.375  0.1098  0.0854 -0.0990
 2348SOL    HW1 8976   6.499   6.687   3.393 -1.6132 -3.4122 -0.4275
 2348SOL    HW2 8977   6.392   6.705   3.287 -0.7536  2.3426 -0.6550
 2349SOL     OW 8978   7.129   2.643   6.067  0.0100 -0.0252 -0.0929
 2349SOL    HW1 8979   7.046   2.595   6.065 -1.4165  2.2132  0.3810
 2349SOL    HW2 8980   7.187   2.589   6.121 -0.9231 -1.9272 -0.8999
 2350SOL     OW 8981   0.645   2.519   6.700 -0.3381  0.4188 -0.0284
 2350SOL    HW1 8982   0.683   2.591   6.751 -0.5422 -0.0329  0.7780
 2350SOL    HW2 8983   0.697   2.443   6.724 -0.8287  0.0776 -0.0351
 2351SOL     OW 8984   5.267   1.716   6.700  0.3385  0.5978  0.0746
 2351SOL    HW1 8985   5.306   1.665   6.630  2.5264  1.0623  0.8844
 2351SOL    HW2 8986   5.278   1.808   6.674 -0.5734  0.7518  0.1631
 2352SOL     OW 8987   0.189   5.985   2.667 -0.0559  0.0709 -0.4267
 2352SOL    HW1 8988   0.137   6.050   2.620  2.2913  2.4581  0.0435
 2352SOL    HW2 8989   0.230   5.933   2.598 -0.3816  0.3964 -0.8753
 2353SOL     OW 8990   6.685   1.495   7.421 -0.3425  0.1904  1.1906
 2353SOL    HW1 8991   6.636   1.478   7.501  0.7958  0.0566  1.8930
 2353SOL    HW2 8992   6.702   1.408   7.384  1.2047  0.0521  2.1262
 2354SOL     OW 8993   1.952   8.318   3.738  0.8686 -0.1153 -0.2686
 2354SOL    HW1 8994   2.023   8.383   3.736  0.1853  0.6453 -0.2573
 2354SOL    HW2 8995   1.898   8.339   3.661  0.3112 -0.2863  0.0728
 2355SOL     OW 8996   6.183   2.627   1.051  0.5190  0.1849  0.5074
 2355SOL    HW1 8997   6.170   2.710   1.096  0.9149 -0.0202  1.0177
 2355SOL    HW2 8998   6.095   2.598   1.027  0.4351  1.0958 -0.3265
 2356SOL     OW 8999   3.676   4.846   5.653 -0.1168  0.4894  0.2550
 2356SOL    HW1 9000   3.696   4.908   5.723 -0.1750  0.1798  0.5518
 2356SOL    HW2 9001   3.725   4.767   5.676 -2.0972 -0.4974  1.3257
 2357SOL     OW 9002   4.243   2.396   7.824  0.1181 -0.6003  0.5699
 2357SOL    HW1 9003   4.200   2.468   7.779 -0.2428 -1.4393 -0.4817
 2357SOL    HW2 9004   4.333   2.425   7.837 -0.2672  0.4093  1.0299
 2358SOL     OW 9005   6.274   2.424   0.879 -0.0660 -0.2491  0.6791
 2358SOL    HW1 9006   6.358   2.391   0.908  0.1438  0.2414  0.6306
 2358SOL    HW2 9007   6.245   2.483   0.948  0.1390  0.4231  0.2032
 2359SOL     OW 9008   2.141   5.752   7.109  0.6234 -0.1211  0.7552
 2359SOL    HW1 9009   2.108   5.836   7.077 -1.1736 -0.4361  1.6750
 2359SOL    HW2 9010   2.065   5.694   7.107  1.8769 -1.7995 -0.0143
 2360SOL     OW 9011   5.530   6.120   8.842 -0.1812 -0.0365  0.2847
 2360SOL    HW1 9012   5.500   6.101   8.930 -1.4668 -0.8269 -0.2949
 2360SOL    HW2 9013   5.488   6.203   8.819  0.7431  0.5498  0.6708
 2361SOL     OW 9014   6.249   7.245   3.064 -0.1551  0.4743 -0.3153
 2361SOL    HW1 9015   6.339   7.274   3.078 -0.1163 -0.0186  0.5282
 2361SOL    HW2 9016   6.255   7.184   2.989  0.3110  0.0045  0.0951
 2362SOL     OW 9017   0.499   8.296   6.554  0.0873 -0.3404  0.5512
 2362SOL    HW1 9018   0.468   8.291   6.644 -2.0174  0.7678 -0.0347
 2362SOL    HW2 9019   0.420   8.283   6.501  1.0412  0.3159 -1.1093
 2363SOL     OW 9020   6.931   7.454   2.646  0.1464 -0.4760 -0.3125
 2363SOL    HW1 9021   6.884   7.456   2.730  2.3870  1.2015  1.0119
 2363SOL    HW2 9022   6.973   7.368   2.645 -1.3735 -1.2563 -0.6601
 2364SOL     OW 9023   5.725   5.381   1.223  0.4024  1.0658 -0.3223
 2364SOL    HW1 9024   5.820   5.377   1.212  0.3235 -0.5816 -0.6893
 2364SOL    HW2 9025   5.708   5.332   1.304 -0.2598 -0.4910 -1.3474
 2365SOL     OW 9026   2.266   2.427   0.866 -0.4852  1.0284 -0.2685
 2365SOL    HW1 9027   2.217   2.460   0.942 -0.7476  1.0561 -0.4488
 2365SOL    HW2 9028   2.259   2.497   0.801 -1.1672  0.5667 -0.7075
 2366SOL     OW 9029   5.907   5.637   0.285 -0.2632  0.4004  0.3307
 2366SOL    HW1 9030   5.867   5.721   0.262 -2.3181 -0.3545  1.0151
 2366SOL    HW2 9031   5.886   5.579   0.212 -2.2995 -0.5609  1.5986
 2367SOL     OW 9032   0.629   5.380   1.355 -0.0828  0.2427 -0.8853
 2367SOL    HW1 9033   0.574   5.328   1.414  0.9442  0.6376  0.4573
 2367SOL    HW2 9034   0.600   5.354   1.267 -1.3759 -0.6537 -0.2306
 2368SOL     OW 9035   7.761   7.073   0.999 -0.3752  0.1464  0.1695
 2368SOL    HW1 9036   7.736   7.009   1.066 -2.9198 -0.4034 -1.1623
 2368SOL    HW2 9037   7.804   7.143   1.047 -1.4803 -0.5437  2.2994
 2369SOL     OW 9038   2.020   3.194   5.873  0.1968  0.2593 -0.0952
 2369SOL    HW1 9039   2.112   3.184   5.848  0.5687  1.7182  0.5478
 2369SOL    HW2 9040   1.980   3.241   5.799  0.0942  0.1079 -0.1366
 2370SOL     OW 9041   3.814   4.841   2.145  0.0535 -0.1878  0.1770
 2370SOL    HW1 9042   3.853   4.927   2.164  3.2281 -0.7277 -2.9706
 2370SOL    HW2 9043   3.868   4.779   2.194 -0.1801 -0.6049 -0.0898
 2371SOL     OW 9044   8.596   7.003   0.081 -0.3482 -0.1168  0.3740
 2371SOL    HW1 9045   8.567   6.924   0.127 -0.1197  0.2382  1.1536
 2371SOL    HW2 9046   8.568   6.990  -0.010  0.3064 -1.4087  0.3349
 2372SOL     OW 9047   3.686   7.625   8.755 -0.0046  0.9065  0.2931
 2372SOL    HW1 9048   3.641   7.605   8.838  1.6814 -1.0049  0.8301
 2372SOL    HW2 9049   3.647   7.566   8.692  0.3935  0.6278  0.3056
 2373SOL     OW 9050   0.730   1.650   1.338 -0.1583 -0.1348  0.4239
 2373SOL    HW1 9051   0.755   1.669   1.247 -1.4750  2.1702  0.4983
 2373SOL    HW2 9052   0.671   1.575   1.331 -0.3717  0.1141 -0.6419
 2374SOL     OW 9053   4.086   0.850   2.696 -0.0611 -0.0177 -0.2438
 2374SOL    HW1 9054   4.176   0.855   2.665 -0.5998 -0.1667 -1.9468
 2374SOL    HW2 9055   4.092   0.800   2.778  1.2323 -1.4203 -1.1377
 2375SOL     OW 9056   4.616   1.429   0.044 -0.3327 -0.3539 -0.3089
 2375SOL    HW1 9057   4.577   1.442  -0.043 -1.1205  0.8853  0.1840
 2375SOL    HW2 9058   4.701   1.388   0.028 -0.4661 -0.1250 -1.6630
 2376SOL     OW 9059   0.885   5.635   2.350  1.1183 -0.3302  0.8508
 2376SOL    HW1 9060   0.965   5.620   2.400  2.5173  1.1413 -0.7963
 2376SOL    HW2 9061   0.915   5.650   2.260 -0.8130  2.0624  0.4954
 2377SOL     OW 9062   1.661   2.723   6.880  0.1020 -0.1244 -0.0750
 2377SOL    HW1 9063   1.755   2.708   6.871 -0.1063 -0.8650 -1.1857
 2377SOL    HW2 9064   1.651   2.817   6.865  1.0064  0.6869  3.4327
 2378SOL     OW 9065   7.939   7.045   6.985  0.5267  0.2535  0.7200
 2378SOL    HW1 9066   7.900   7.052   6.897 -0.3236  0.1116  1.0822
 2378SOL    HW2 9067   7.891   7.108   7.038  0.7158 -0.0051  1.2071
 2379SOL     OW 9068   8.618   4.925   0.723 -0.0827  0.3753 -0.7322
 2379SOL    HW1 9069   8.577   4.848   0.763  0.6763 -0.1948 -1.0107
 2379SOL    HW2 9070   8.546   4.983   0.701 -0.6972 -0.4067 -0.8131
 2380SOL     OW 9071   6.632   2.983   4.179 -0.2220 -0.6904  0.4933
 2380SOL    HW1 9072   6.625   2.919   4.250 -3.2525  2.0175  2.9352
 2380SOL    HW2 9073   6.546   2.983   4.138  0.2364  0.6104 -0.5369
 2381SOL     OW 9074   4.045   6.040   7.302  0.6346 -0.1645  0.7082
 2381SOL    HW1 9075   4.011   6.100   7.236 -2.2451 -0.5176  1.7131
 2381SOL    HW2 9076   4.020   6.080   7.385  1.5808 -1.1756  1.5097
 2382SOL     OW 9077   2.977   7.133   5.463 -0.8295  0.1476  0.4649
 2382SOL    HW1 9078   2.952   7.204   5.403 -2.0065  1.2142  2.1216
 2382SOL    HW2 9079   3.004   7.178   5.543  0.9357 -1.2305  0.6842
 2383SOL     OW 9080   1.774   3.764   1.381  0.7503 -0.0972  0.8706
 2383SOL    HW1 9081   1.742   3.712   1.308 -1.0107  2.2181 -0.1434
 2383SOL    HW2 9082   1.701   3.764   1.444  0.3725  1.7019  0.4860
 2384SOL     OW 9083   2.829   4.600   6.240  0.2371 -0.3439 -0.7108
 2384SOL    HW1 9084   2.882   4.536   6.192  0.9482 -1.1282  1.0205
 2384SOL    HW2 9085   2.757   4.549   6.276 -0.0026  0.1096 -0.5440
 2385SOL     OW 9086   6.039   3.983   1.511  0.0443 -0.1532  0.1667
 2385SOL    HW1 9087   6.069   4.058   1.563 -0.2001  0.4337 -0.5138
 2385SOL    HW2 9088   5.944   3.995   1.504  0.1298  0.0705 -0.8333
 2386SOL     OW 9089   5.570   2.832   2.169 -0.6148 -0.3271  0.2755
 2386SOL    HW1 9090   5.581   2.907   2.111 -1.2108 -1.0384 -0.8044
 2386SOL    HW2 9091   5.475   2.816   2.170 -0.5115 -0.9643  0.6175
 2387SOL     OW 9092   7.807   6.600   4.165 -0.4579 -0.0889  0.0457
 2387SOL    HW1 9093   7.785   6.640   4.081 -2.1586  1.4519  1.1233
 2387SOL    HW2 9094   7.895   6.564   4.153 -0.1649  1.1616 -2.0088
 2388SOL     OW 9095   1.681   1.907   2.025  0.1500 -0.2471  0.4686
 2388SOL    HW1 9096   1.632   1.843   2.077  1.4765 -1.5314  0.1842
 2388SOL    HW2 9097   1.677   1.873   1.936 -1.1436  1.3524 -0.1334
 2389SOL     OW 9098   4.962   3.322   3.883 -0.2358 -0.0005  0.1121
 2389SOL    HW1 9099   4.978   3.416   3.890 -2.1829  0.3774  0.0579
 2389SOL    HW2 9100   4.871   3.315   3.854 -0.0894 -1.9077 -0.0372
 2390SOL     OW 9101   6.672   0.758   7.675 -0.0220  0.5590  0.8970
 2390SOL    HW1 9102   6.664   0.815   7.599 -4.4294 -2.2112 -1.1533
 2390SOL    HW2 9103   6.759   0.719   7.668  0.3139  1.6398 -1.7901
 2391SOL     OW 9104   4.544   3.088   6.270 -0.3712 -0.2920 -0.3375
 2391SOL    HW1 9105   4.603   3.156   6.237 -0.8459 -0.8247 -2.4329
 2391SOL    HW2 9106   4.461   3.133   6.282 -0.5761 -0.3860 -1.3211
 2392SOL     OW 9107   4.235   6.931   1.691 -0.1223  0.0055  0.2969
 2392SOL    HW1 9108   4.263   6.927   1.783 -0.0820 -1.6475  0.2553
 2392SOL    HW2 9109   4.269   6.850   1.653  0.9389  1.2395 -1.5113
 2393SOL     OW 9110   5.496   7.987   4.592 -0.8094 -0.3626 -0.6919
 2393SOL    HW1 9111   5.558   8.024   4.654 -3.1501  2.5455  0.1380
 2393SOL    HW2 9112   5.429   7.946   4.648 -2.9381  2.2742 -1.1435
 2394SOL     OW 9113   1.156   3.324   4.852  0.0058  0.2730  0.1001
 2394SOL    HW1 9114   1.179   3.382   4.780  0.8582  1.4413  1.2644
 2394SOL    HW2 9115   1.082   3.273   4.819 -1.1428  2.3887 -0.8044
 2395SOL     OW 9116   5.567   4.736   6.171 -0.2310 -0.1377 -0.1160
 2395SOL    HW1 9117   5.517   4.662   6.205 -0.8085  0.2676 -0.0578
 2395SOL    HW2 9118   5.553   4.805   6.236 -1.2292  0.6063 -1.0708
 2396SOL     OW 9119   6.332   0.935   1.534  0.1604 -0.3433 -0.3206
 2396SOL    HW1 9120   6.296   0.986   1.606  1.7978  0.6446 -0.1344
 2396SOL    HW2 9121   6.331   0.844   1.564  0.2663 -0.0101  0.7169
 2397SOL     OW 9122   8.232   7.195   8.529  0.0860  0.4113  0.1170
 2397SOL    HW1 9123   8.321   7.227   8.545 -0.5828  2.6670 -0.3690
 2397SOL    HW2 9124   8.206   7.155   8.612  1.5059 -0.2287  0.2902
 2398SOL     OW 9125   1.303   3.701   0.550 -0.1981 -0.5413  0.7345
 2398SOL    HW1 9126   1.351   3.720   0.630 -1.6972 -4.1764  2.7372
 2398SOL    HW2 9127   1.249   3.778   0.534 -0.0312  0.1971  3.3809
 2399SOL     OW 9128   3.592   6.565   2.713 -0.1465  0.6102  0.5901
 2399SOL    HW1 9129   3.514   6.619   2.702 -1.3104 -1.0245  0.4158
 2399SOL    HW2 9130   3.577   6.489   2.657  0.5870 -0.7685  2.1579
 2400SOL     OW 9131   5.850   3.422   1.872 -0.2999 -0.7695 -0.4678
 2400SOL    HW1 9132   5.942   3.396   1.880 -0.9528 -3.0621  0.3141
 2400SOL    HW2 9133   5.840   3.494   1.934  0.7871 -1.0206  0.0238
 2401SOL     OW 9134   3.904   7.493   0.224  0.3760  0.5575  0.1245
 2401SOL    HW1 9135   3.992   7.497   0.262  0.2249  0.5405  0.4771
 2401SOL    HW2 9136   3.919   7.492   0.129  0.8022 -0.5184  0.1839
 2402SOL     OW 9137   5.639   1.675   6.630 -0.1904 -0.2817  0.0363
 2402SOL    HW1 9138   5.609   1.704   6.716  0.1924 -0.0442  0.0962
 2402SOL    HW2 9139   5.565   1.692   6.571  0.1109  1.0963  0.0213
 2403SOL     OW 9140   5.936   2.604   7.985  0.2620 -0.1502 -0.0832
 2403SOL    HW1 9141   5.860   2.551   7.963  0.6514 -1.0443  0.6416
 2403SOL    HW2 9142   5.953   2.584   8.077  1.6887 -0.3870 -0.3702
 2404SOL     OW 9143   2.493   4.233   0.873  0.3585  0.5658 -0.0747
 2404SOL    HW1 9144   2.486   4.153   0.926 -0.3268  0.3592 -0.4678
 2404SOL    HW2 9145   2.545   4.292   0.927  1.0329 -0.2067  0.1478
 2405SOL     OW 9146   4.607   3.024   3.427  0.7457 -0.0313  0.9418
 2405SOL    HW1 9147   4.586   3.085   3.356 -0.2501 -0.3111  0.9853
 2405SOL    HW2 9148   4.608   3.078   3.506 -0.1312 -0.0592  0.9793
 2406SOL     OW 9149   2.483   7.871   2.897  0.0190  0.0003 -0.4304
 2406SOL    HW1 9150   2.571   7.890   2.930  0.1040 -1.1292  0.0247
 2406SOL    HW2 9151   2.477   7.922   2.816  1.3310 -0.4178 -0.8139
 2407SOL     OW 9152   4.989   2.864   1.613  0.2556  0.4169  0.4604
 2407SOL    HW1 9153   5.027   2.789   1.566 -0.7371  0.1789  0.0059
 2407SOL    HW2 9154   4.895   2.846   1.614 -0.0019  1.6773  0.3130
 2408SOL     OW 9155   1.891   0.232   1.089  0.4425  0.4503  0.0898
 2408SOL    HW1 9156   1.872   0.222   0.995  0.2947  0.8624  0.0764
 2408SOL    HW2 9157   1.983   0.207   1.097  0.4172  0.2758 -0.1439
 2409SOL     OW 9158   3.554   7.952   1.460 -0.0694 -0.1463  0.4829
 2409SOL    HW1 9159   3.574   8.010   1.387  0.4764 -0.6457  0.2248
 2409SOL    HW2 9160   3.570   8.005   1.538 -0.9542  0.4865  0.2462
 2410SOL     OW 9161   3.631   3.199   6.918  0.8509  0.4038  0.0616
 2410SOL    HW1 9162   3.630   3.224   7.010  0.2091 -1.2385  0.5493
 2410SOL    HW2 9163   3.717   3.157   6.906  1.1260  1.0403 -0.2229
 2411SOL     OW 9164   0.400   4.840   6.973 -0.3553  0.1083 -0.3202
 2411SOL    HW1 9165   0.315   4.819   7.012 -0.8228  0.1725 -1.2993
 2411SOL    HW2 9166   0.438   4.904   7.033 -0.2731 -1.1152  1.0076
 2412SOL     OW 9167   0.395   1.094   6.577  0.1713  0.3313 -0.0695
 2412SOL    HW1 9168   0.364   1.112   6.488  1.2245  1.6806 -0.1901
 2412SOL    HW2 9169   0.343   1.153   6.632  0.2776  0.2816  0.0829
 2413SOL     OW 9170   6.096   8.461   4.226  0.1563  0.2692 -0.6633
 2413SOL    HW1 9171   6.046   8.438   4.147 -1.1518  0.1283  0.1704
 2413SOL    HW2 9172   6.032   8.505   4.282  0.3017 -1.9593  1.4044
 2414SOL     OW 9173   7.422   7.497   4.038 -0.3100  0.3874 -0.2558
 2414SOL    HW1 9174   7.475   7.446   4.100 -0.7338 -0.6670 -0.7392
 2414SOL    HW2 9175   7.487   7.541   3.983  0.0714  0.4025  0.1942
 2415SOL     OW 9176   4.679   1.831   6.996 -0.4125 -0.2548 -0.3726
 2415SOL    HW1 9177   4.605   1.789   7.040  0.3198 -0.5376  0.6359
 2415SOL    HW2 9178   4.690   1.915   7.041  0.4084 -0.5919  0.0912
 2416SOL     OW 9179   6.464   0.240   8.856 -0.5775 -0.1924 -0.1506
 2416SOL    HW1 9180   6.485   0.282   8.773 -1.1444 -0.4593 -0.4378
 2416SOL    HW2 9181   6.510   0.292   8.922 -2.7537  2.1391 -0.2790
 2417SOL     OW 9182   0.889   7.709   7.126 -0.4357 -0.0472 -0.5266
 2417SOL    HW1 9183   0.860   7.670   7.209 -1.4781 -1.1494 -1.3612
 2417SOL    HW2 9184   0.885   7.803   7.141 -0.3341 -0.2276  0.7613
 2418SOL     OW 9185   6.469   4.972   4.817 -0.3330  0.5717 -0.0257
 2418SOL    HW1 9186   6.531   5.023   4.765 -0.3341  0.9089  0.2951
 2418SOL    HW2 9187   6.445   4.899   4.761  2.0361 -0.8224  0.6480
 2419SOL     OW 9188   8.206   3.823   3.405 -0.4267 -0.2801  0.1673
 2419SOL    HW1 9189   8.208   3.747   3.346  0.1099 -0.5651  0.5429
 2419SOL    HW2 9190   8.271   3.883   3.369  1.5345 -1.3848  1.6589
 2420SOL     OW 9191   1.172   1.765   1.300  0.2023  0.1843  0.3844
 2420SOL    HW1 9192   1.198   1.731   1.214 -1.3722  0.2237 -0.1432
 2420SOL    HW2 9193   1.134   1.851   1.281  0.7135  0.6187  1.2559
 2421SOL     OW 9194   3.686   8.842   2.053  0.0941  0.1561  0.0520
 2421SOL    HW1 9195   3.773   8.876   2.034  0.1784 -0.2540 -0.3084
 2421SOL    HW2 9196   3.693   8.748   2.036 -0.7532  0.3017 -1.1727
 2422SOL     OW 9197   2.373   7.796   8.402  0.0426 -0.0679  0.0381
 2422SOL    HW1 9198   2.445   7.762   8.349  0.0477  0.5491 -0.3621
 2422SOL    HW2 9199   2.416   7.854   8.466 -0.2376  1.9415 -1.5032
 2423SOL     OW 9200   6.867   7.027   1.384 -0.4075  0.3913  0.1481
 2423SOL    HW1 9201   6.836   6.942   1.355  0.4570 -0.4776  1.6662
 2423SOL    HW2 9202   6.871   7.020   1.480  1.0635  1.6289  0.2240
 2424SOL     OW 9203   1.531   4.472   0.846  0.2117  0.0784  0.2579
 2424SOL    HW1 9204   1.467   4.472   0.918  0.6990  0.7743  0.7086
 2424SOL    HW2 9205   1.616   4.480   0.889  0.6001 -0.6566 -0.3486
 2425SOL     OW 9206   3.052   8.480   6.924  0.1082 -0.3036 -0.6636
 2425SOL    HW1 9207   3.086   8.560   6.963 -0.9087  0.0836 -0.5261
 2425SOL    HW2 9208   2.984   8.510   6.863  0.1860 -1.0215 -1.1180
 2426SOL     OW 9209   7.142   7.867   5.564  0.0177 -0.3963  0.1164
 2426SOL    HW1 9210   7.099   7.837   5.644 -2.0384  0.3926 -0.6161
 2426SOL    HW2 9211   7.116   7.803   5.497  1.2748 -0.7506 -0.0558
 2427SOL     OW 9212   2.937   6.845   4.256 -0.2945 -0.1219  0.0823
 2427SOL    HW1 9213   2.855   6.867   4.211 -1.6086 -1.3787  1.7441
 2427SOL    HW2 9214   2.924   6.873   4.346  0.9060 -0.8070  0.4984
 2428SOL     OW 9215   6.288   2.206   1.552  0.4586  0.3862  0.8982
 2428SOL    HW1 9216   6.271   2.226   1.645  1.3277  0.8563  0.9663
 2428SOL    HW2 9217   6.282   2.291   1.508  0.9814  0.3058  0.6706
 2429SOL     OW 9218   8.607   4.283   6.884  0.0212 -0.2556  0.8948
 2429SOL    HW1 9219   8.584   4.305   6.975 -0.6177  0.0863  0.6570
 2429SOL    HW2 9220   8.560   4.201   6.867  0.7634 -0.7423  1.1145
 2430SOL     OW 9221   8.596   8.792   5.652  0.2742 -0.5012 -0.1501
 2430SOL    HW1 9222   8.626   8.786   5.743  0.6799 -0.7353 -0.2959
 2430SOL    HW2 9223   8.674   8.775   5.600  0.5001  1.5445 -0.5756
 2431SOL     OW 9224   0.750   1.002   3.152  0.3784 -0.0743 -0.5398
 2431SOL    HW1 9225   0.733   1.001   3.057  1.9127 -0.1848 -0.8413
 2431SOL    HW2 9226   0.744   1.094   3.176 -0.0430 -0.0462 -0.7355
 2432SOL     OW 9227   1.313   2.700   3.354 -0.2035 -0.0077  0.3587
 2432SOL    HW1 9228   1.380   2.767   3.344  0.6856 -0.9301  0.0077
 2432SOL    HW2 9229   1.361   2.621   3.378 -1.2142 -0.5820  0.5514
 2433SOL     OW 9230   7.150   0.186   0.521 -0.7339 -0.3511  0.2066
 2433SOL    HW1 9231   7.076   0.221   0.472 -0.8286  0.4353  0.8978
 2433SOL    HW2 9232   7.154   0.094   0.495 -0.7751  0.0375 -1.2744
 2434SOL     OW 9233   3.015   2.063   4.040  0.1343 -0.4484 -0.1786
 2434SOL    HW1 9234   3.048   2.071   3.950 -1.7468 -1.6216 -1.0305
 2434SOL    HW2 9235   2.938   2.007   4.032 -0.5290  0.0589  2.0858
 2435SOL     OW 9236   8.194   1.186   1.233 -0.1925  0.2506 -0.0225
 2435SOL    HW1 9237   8.155   1.237   1.161  1.1164  1.9901  0.4344
 2435SOL    HW2 9238   8.280   1.160   1.200 -0.2318 -0.3323  0.3347
 2436SOL     OW 9239   6.297   8.276   7.935 -0.1851  0.3303 -0.0594
 2436SOL    HW1 9240   6.334   8.230   8.010 -0.0482 -0.2784 -0.4939
 2436SOL    HW2 9241   6.349   8.247   7.860 -1.8016 -0.9132 -0.7621
 2437SOL     OW 9242   0.227   1.192   4.944  0.0276  0.5036  0.4016
 2437SOL    HW1 9243   0.218   1.098   4.960  1.4747 -0.0743 -1.7474
 2437SOL    HW2 9244   0.305   1.217   4.994 -0.3434  0.5761  0.9541
 2438SOL     OW 9245   8.018   2.602   5.781  0.1647  1.3044  0.3836
 2438SOL    HW1 9246   8.112   2.591   5.798 -0.1666  0.1649  1.6910
 2438SOL    HW2 9247   7.976   2.544   5.844 -1.4392  2.0495  0.0404
 2439SOL     OW 9248   2.208   8.086   6.718 -0.2092 -0.1962  0.2717
 2439SOL    HW1 9249   2.196   8.089   6.623 -0.8010  0.6535  0.3666
 2439SOL    HW2 9250   2.253   8.003   6.733  4.0025  1.5575 -1.1671
 2440SOL     OW 9251   0.128   4.286   7.419  0.1097  0.1082 -0.2745
 2440SOL    HW1 9252   0.139   4.317   7.329  1.4570 -0.8223 -0.4550
 2440SOL    HW2 9253   0.186   4.210   7.426  0.2112  0.2959  1.4448
 2441SOL     OW 9254   6.090   1.302   0.957  0.0142 -0.0727  0.5427
 2441SOL    HW1 9255   6.005   1.282   0.996 -0.4371  0.9938  0.1666
 2441SOL    HW2 9256   6.082   1.273   0.866  0.2706 -0.5141  0.6583
 2442SOL     OW 9257   1.383   1.717   7.605 -0.2245  0.2859  0.0561
 2442SOL    HW1 9258   1.342   1.776   7.542  0.0264  0.6023  0.1898
 2442SOL    HW2 9259   1.473   1.749   7.613 -0.9518  2.0323  2.6940
 2443SOL     OW 9260   7.229   3.059   4.254  0.3149 -0.0348 -0.9249
 2443SOL    HW1 9261   7.157   3.096   4.305  0.2979  0.3587 -1.2305
 2443SOL    HW2 9262   7.203   3.072   4.163  0.1332 -1.1402 -1.0463
 2444SOL     OW 9263   5.250   6.883   1.030  0.1237 -0.1105  0.0419
 2444SOL    HW1 9264   5.267   6.831   1.108 -0.3477  0.5387  0.5882
 2444SOL    HW2 9265   5.308   6.847   0.963 -0.6357 -1.7593  0.2220
 2445SOL     OW 9266   2.867   0.249   0.187 -0.2235  0.1164  0.0726
 2445SOL    HW1 9267   2.957   0.275   0.206 -0.2388  0.4764 -0.3449
 2445SOL    HW2 9268   2.814   0.325   0.211 -0.6053 -0.6769  1.9433
 2446SOL     OW 9269   6.375   3.343   6.990  0.1626  0.0226  0.0126
 2446SOL    HW1 9270   6.292   3.337   6.942  0.6684 -0.9857 -0.7653
 2446SOL    HW2 9271   6.418   3.421   6.956 -0.4023  0.4796  0.3288
 2447SOL     OW 9272   2.964   2.622   7.562  0.9292 -0.2031 -0.3916
 2447SOL    HW1 9273   2.904   2.571   7.617  1.0423 -2.5678 -2.2493
 2447SOL    HW2 9274   2.938   2.713   7.575 -2.1108 -1.0123  0.0100
 2448SOL     OW 9275   0.151   5.036   3.639  0.4212 -0.0994  0.9442
 2448SOL    HW1 9276   0.241   5.067   3.652  0.0047  0.7002  1.9914
 2448SOL    HW2 9277   0.162   4.951   3.596  1.6089  1.0645 -1.2303
 2449SOL     OW 9278   1.838   8.631   8.264 -0.0420 -0.4704  0.2416
 2449SOL    HW1 9279   1.777   8.701   8.287 -0.0525 -0.8596  1.4707
 2449SOL    HW2 9280   1.915   8.648   8.318 -0.2269 -1.6466  0.9248
 2450SOL     OW 9281   4.691   2.488   2.492 -0.6712 -0.0452  0.2986
 2450SOL    HW1 9282   4.734   2.546   2.428 -0.7579 -0.7321 -0.4030
 2450SOL    HW2 9283   4.598   2.495   2.472 -1.0542  2.1927  2.4477
 2451SOL     OW 9284   0.313   6.505   8.291 -0.1770  0.3186  0.0065
 2451SOL    HW1 9285   0.244   6.443   8.314  0.0703 -0.0004 -0.1129
 2451SOL    HW2 9286   0.268   6.589   8.282 -0.4465  0.2404  0.5935
 2452SOL     OW 9287   6.005   3.223   3.399  0.1709  0.8495  0.9897
 2452SOL    HW1 9288   5.917   3.241   3.433 -1.5865 -1.5761 -1.7702
 2452SOL    HW2 9289   5.993   3.213   3.304  3.2856 -0.3420  0.5852
 2453SOL     OW 9290   4.488   8.068   2.114  1.0646 -0.6369 -0.0508
 2453SOL    HW1 9291   4.448   8.151   2.087 -0.7357 -0.6648  2.2012
 2453SOL    HW2 9292   4.423   8.001   2.089  0.1710 -0.8192  2.4667
 2454SOL     OW 9293   5.727   0.465   5.846 -0.2822  0.2427 -0.3201
 2454SOL    HW1 9294   5.641   0.423   5.837  0.4160 -1.0017 -1.8901
 2454SOL    HW2 9295   5.766   0.423   5.922 -1.2862  1.2839  0.8000
 2455SOL     OW 9296   3.948   5.981   3.608 -0.2167  0.0359  0.0184
 2455SOL    HW1 9297   4.023   6.040   3.604 -0.9541  0.9995 -0.0476
 2455SOL    HW2 9298   3.955   5.927   3.529  0.3669  0.1610 -0.0163
 2456SOL     OW 9299   6.781   6.308   8.726 -0.4681  0.3426 -0.0785
 2456SOL    HW1 9300   6.810   6.308   8.634 -1.0857 -1.1137 -0.3032
 2456SOL    HW2 9301   6.686   6.313   8.721 -0.4702  0.9532  0.5199
 2457SOL     OW 9302   1.409   4.316   6.758 -0.1279  0.0947 -0.9233
 2457SOL    HW1 9303   1.492   4.301   6.713  0.4831 -0.1798  0.2549
 2457SOL    HW2 9304   1.345   4.326   6.687  0.8613  0.0794 -1.8471
 2458SOL     OW 9305   2.478   0.840   0.196  0.4618 -0.6161 -0.1607
 2458SOL    HW1 9306   2.519   0.823   0.281  1.2757 -0.7889 -0.5768
 2458SOL    HW2 9307   2.459   0.753   0.160 -2.0352 -0.5670  0.8221
 2459SOL     OW 9308   2.261   8.042   1.729  0.1691  0.0174  0.5138
 2459SOL    HW1 9309   2.214   8.109   1.679  0.2559 -0.2794  0.0284
 2459SOL    HW2 9310   2.336   8.020   1.674 -0.8891 -1.8885 -0.2908
 2460SOL     OW 9311   1.621   3.770   8.531 -0.2752 -0.8949  0.2552
 2460SOL    HW1 9312   1.603   3.752   8.439 -0.4650  1.8538 -0.3196
 2460SOL    HW2 9313   1.546   3.734   8.578 -0.2726 -2.1486 -0.6530
 2461SOL     OW 9314   3.217   1.114   6.451  0.3380 -0.1160  0.0841
 2461SOL    HW1 9315   3.130   1.155   6.454 -1.6782 -3.8130 -0.9001
 2461SOL    HW2 9316   3.244   1.107   6.543 -0.5087  0.9046  0.4238
 2462SOL     OW 9317   5.002   4.070   5.911  0.4559  0.2531 -0.1489
 2462SOL    HW1 9318   5.001   4.135   5.840  3.4004  0.8026  0.1811
 2462SOL    HW2 9319   5.094   4.045   5.919 -0.4337 -3.4196  0.3046
 2463SOL     OW 9320   6.413   2.793   8.079  0.1917 -0.9570  0.3000
 2463SOL    HW1 9321   6.464   2.760   8.153 -0.5132 -1.3083  0.6402
 2463SOL    HW2 9322   6.356   2.720   8.055 -0.6963 -0.3278  0.4296
 2464SOL     OW 9323   6.586   7.624   1.875 -0.3982 -0.4723 -0.1696
 2464SOL    HW1 9324   6.675   7.607   1.846 -0.4838 -1.6043  0.1888
 2464SOL    HW2 9325   6.568   7.714   1.847  1.5476  0.5289  1.5013
 2465SOL     OW 9326   2.314   4.427   7.740 -0.1463 -0.4982  0.9264
 2465SOL    HW1 9327   2.333   4.372   7.664  1.3349  2.0251 -0.6447
 2465SOL    HW2 9328   2.379   4.401   7.805  0.0866 -1.0703  0.4749
 2466SOL     OW 9329   4.278   5.008   7.790  0.0644 -0.2681 -0.3303
 2466SOL    HW1 9330   4.325   5.087   7.763  0.0665 -0.1574 -0.0110
 2466SOL    HW2 9331   4.332   4.935   7.759  0.2713 -0.1414 -0.2691
 2467SOL     OW 9332   7.099   0.541   2.561 -0.5597  0.7966  0.2889
 2467SOL    HW1 9333   7.107   0.636   2.568  0.0931  1.1762 -3.3168
 2467SOL    HW2 9334   7.189   0.509   2.555 -0.8005  0.1028  0.2594
 2468SOL     OW 9335   4.771   1.564   7.865 -0.6063 -0.3554 -0.0291
 2468SOL    HW1 9336   4.793   1.639   7.811  1.9533  0.0447  1.3976
 2468SOL    HW2 9337   4.681   1.580   7.893 -0.2799  1.9982 -0.1123
 2469SOL     OW 9338   8.868   6.114   3.625 -0.2922 -0.2549 -0.3215
 2469SOL    HW1 9339   8.935   6.066   3.576  0.6634  0.7050  0.0053
 2469SOL    HW2 9340   8.909   6.198   3.645 -1.6866  0.4444 -0.2979
 2470SOL     OW 9341   6.445   3.950   3.076 -0.3823 -0.6627 -0.2887
 2470SOL    HW1 9342   6.513   4.010   3.104 -1.4458  1.2566 -1.5235
 2470SOL    HW2 9343   6.451   3.949   2.980 -0.5995 -2.3248 -0.3270
 2471SOL     OW 9344   5.828   6.632   7.917 -0.4975 -0.1541 -0.4414
 2471SOL    HW1 9345   5.762   6.650   7.984 -0.0079  0.3527 -0.0812
 2471SOL    HW2 9346   5.790   6.668   7.837 -1.3648 -1.3379 -0.5792
 2472SOL     OW 9347   6.206   5.860   4.787  0.2301 -0.1742 -0.2121
 2472SOL    HW1 9348   6.242   5.860   4.876 -0.2912 -1.6166  0.0311
 2472SOL    HW2 9349   6.272   5.816   4.735 -0.0260 -0.4829 -0.2786
 2473SOL     OW 9350   6.676   5.428   1.787  0.0970 -0.5099 -0.3198
 2473SOL    HW1 9351   6.600   5.376   1.761 -0.2223  0.0419 -0.4933
 2473SOL    HW2 9352   6.747   5.364   1.792 -0.6979 -1.3279  1.4537
 2474SOL     OW 9353   7.135   6.291   0.451 -0.3308 -0.0740  0.1469
 2474SOL    HW1 9354   7.200   6.264   0.386 -0.0041  1.5739 -0.2707
 2474SOL    HW2 9355   7.166   6.255   0.534 -0.6585 -2.0684 -0.5458
 2475SOL     OW 9356   5.318   1.374   0.125  0.1824  0.0155  0.1274
 2475SOL    HW1 9357   5.282   1.428   0.055  0.9528  0.2056 -0.1374
 2475SOL    HW2 9358   5.371   1.308   0.080  0.0406 -0.3555  0.4958
 2476SOL     OW 9359   6.395   3.518   6.260  0.2841 -0.0355  0.2462
 2476SOL    HW1 9360   6.480   3.485   6.231  0.2156  1.1173 -1.3685
 2476SOL    HW2 9361   6.400   3.613   6.247 -1.0858  0.1107  0.5963
 2477SOL     OW 9362   8.485   8.079   8.678  0.0701  0.2872  0.2724
 2477SOL    HW1 9363   8.512   8.033   8.599  1.8322 -0.9870  1.5157
 2477SOL    HW2 9364   8.391   8.067   8.683  0.2404 -1.5774 -0.4560
 2478SOL     OW 9365   3.705   4.711   3.038 -0.0134  0.4193  0.0275
 2478SOL    HW1 9366   3.665   4.683   2.956  2.0288 -0.4192 -0.7391
 2478SOL    HW2 9367   3.725   4.629   3.084  0.5188  0.8238  0.5354
 2479SOL     OW 9368   0.305   7.245   7.435  0.0761  0.3647 -0.1245
 2479SOL    HW1 9369   0.292   7.183   7.363  1.4438  1.0666 -1.0176
 2479SOL    HW2 9370   0.225   7.238   7.488 -0.5902 -0.7831 -1.2394
 2480SOL     OW 9371   8.488   1.663   0.019 -0.3521 -0.1388 -0.0022
 2480SOL    HW1 9372   8.433   1.626   0.088 -0.1258 -1.0505 -0.2983
 2480SOL    HW2 9373   8.529   1.740   0.059 -1.7872  0.5439  0.2376
 2481SOL     OW 9374   1.811   8.411   7.177  0.2952 -0.5498  0.3365
 2481SOL    HW1 9375   1.801   8.438   7.086 -1.6004  0.2868  0.7429
 2481SOL    HW2 9376   1.782   8.319   7.178  0.3520 -0.5700  0.0874
 2482SOL     OW 9377   3.609   3.267   5.842 -0.4621  0.0264 -0.4630
 2482SOL    HW1 9378   3.660   3.331   5.792 -0.5315 -1.0328 -1.9438
 2482SOL    HW2 9379   3.545   3.321   5.890 -0.3004  1.1038 -1.4058
 2483SOL     OW 9380   1.105   8.744   5.130  0.1415  0.7256  0.3423
 2483SOL    HW1 9381   1.110   8.834   5.096 -2.4491  1.3070  1.3385
 2483SOL    HW2 9382   1.046   8.749   5.205 -1.1537 -2.0348 -0.3726
 2484SOL     OW 9383   1.322   2.738   6.690  0.0484  0.2471  0.4894
 2484SOL    HW1 9384   1.307   2.700   6.603  0.0556  0.2848  0.4715
 2484SOL    HW2 9385   1.239   2.724   6.736 -0.1584  0.7555  0.2788
 2485SOL     OW 9386   6.834   3.591   2.753  0.3152 -0.7523  0.4464
 2485SOL    HW1 9387   6.922   3.557   2.737 -0.0781 -2.2346  1.2187
 2485SOL    HW2 9388   6.846   3.684   2.771  1.6336 -0.7867 -0.1793
 2486SOL     OW 9389   8.630   6.580   6.015  0.4901  0.3504 -0.3482
 2486SOL    HW1 9390   8.680   6.569   5.934  1.3188  1.5187 -0.0158
 2486SOL    HW2 9391   8.607   6.672   6.017  0.8308  0.4262  0.9400
 2487SOL     OW 9392   2.661   3.071   0.344  0.4033  0.4398  0.2740
 2487SOL    HW1 9393   2.651   3.166   0.333 -0.0131  0.2992 -0.6747
 2487SOL    HW2 9394   2.754   3.058   0.360  0.4158  1.0336  0.7260
 2488SOL     OW 9395   8.620   5.640   4.620  0.2218  0.2631 -0.2702
 2488SOL    HW1 9396   8.562   5.626   4.695  0.7024 -0.7799 -0.0688
 2488SOL    HW2 9397   8.563   5.633   4.544 -0.0779  0.1765 -0.0406
 2489SOL     OW 9398   4.091   1.104   6.691 -0.3829 -0.0506  0.0788
 2489SOL    HW1 9399   4.146   1.180   6.675 -0.5955  0.5490  2.0355
 2489SOL    HW2 9400   4.007   1.127   6.653 -0.3464  0.5556  0.3577
 2490SOL     OW 9401   7.625   1.249   6.622  0.2199  0.0893 -0.5026
 2490SOL    HW1 9402   7.586   1.195   6.691  0.1914 -0.6925 -1.1203
 2490SOL    HW2 9403   7.715   1.216   6.614  0.6669  1.0962  0.0926
 2491SOL     OW 9404   0.279   2.128   0.993  0.0801 -0.2580 -0.0150
 2491SOL    HW1 9405   0.373   2.145   1.004  0.2960 -0.2085 -1.6799
 2491SOL    HW2 9406   0.266   2.125   0.898 -1.5030 -0.8703  0.1901
 2492SOL     OW 9407   2.326   2.800   0.846 -0.0777 -0.0812  0.0620
 2492SOL    HW1 9408   2.230   2.794   0.853 -0.0854 -2.4845 -1.1694
 2492SOL    HW2 9409   2.341   2.876   0.791 -1.4972 -1.4878 -2.4427
 2493SOL     OW 9410   4.331   4.973   0.440 -0.1015  0.0579 -0.1767
 2493SOL    HW1 9411   4.271   4.990   0.512  0.4003  0.0057  0.2596
 2493SOL    HW2 9412   4.418   4.976   0.480  0.3427  2.2850 -1.1833
 2494SOL     OW 9413   4.538   7.752   1.509  0.1181  0.2210 -0.4470
 2494SOL    HW1 9414   4.594   7.731   1.583 -2.1147 -0.4324  1.1866
 2494SOL    HW2 9415   4.501   7.668   1.481  1.7583  0.2826 -3.1335
 2495SOL     OW 9416   1.958   5.081   1.666 -0.2805  0.4028 -0.2615
 2495SOL    HW1 9417   2.032   5.034   1.704 -0.0560  0.2785 -0.8351
 2495SOL    HW2 9418   1.884   5.021   1.677 -0.0330 -0.0190 -0.8277
 2496SOL     OW 9419   2.467   8.133   0.593 -0.2422 -0.1698 -0.4523
 2496SOL    HW1 9420   2.425   8.120   0.507 -1.9488 -2.5336  0.6055
 2496SOL    HW2 9421   2.408   8.192   0.640  0.9195  1.4810 -0.9853
 2497SOL     OW 9422   4.796   1.334   5.889 -0.0770  0.1222  0.1881
 2497SOL    HW1 9423   4.714   1.382   5.897 -0.3225 -0.0855 -0.9426
 2497SOL    HW2 9424   4.774   1.245   5.917 -0.7016 -0.3751 -1.7557
 2498SOL     OW 9425   6.695   7.465   6.073 -0.0305  0.4518 -0.4283
 2498SOL    HW1 9426   6.632   7.530   6.103 -0.0157 -0.4178  1.7144
 2498SOL    HW2 9427   6.749   7.511   6.009  0.1222  2.6559  1.1717
 2499SOL     OW 9428   5.005   2.661   2.360 -0.4869 -0.0404 -0.0230
 2499SOL    HW1 9429   5.026   2.605   2.285 -1.7772  0.0338 -0.4824
 2499SOL    HW2 9430   5.003   2.750   2.323  1.2633  0.3089  0.6403
 2500SOL     OW 9431   8.064   8.792   1.457 -0.5439 -0.0448 -0.0098
 2500SOL    HW1 9432   7.989   8.741   1.426  0.2093 -1.3518  0.2321
 2500SOL    HW2 9433   8.038   8.823   1.544 -0.9666 -0.1460 -0.0992
 2501SOL     OW 9434   2.878   1.413   1.055  0.3182  0.0580 -0.5246
 2501SOL    HW1 9435   2.937   1.407   0.979  0.8267 -0.9327 -0.0738
 2501SOL    HW2 9436   2.927   1.463   1.120  0.4012 -0.2022 -0.3864
 2502SOL     OW 9437   0.823   8.401   8.135 -0.4444  0.0008 -0.0303
 2502SOL    HW1 9438   0.814   8.491   8.166 -1.0752 -0.6580  1.8888
 2502SOL    HW2 9439   0.884   8.360   8.197  1.6539 -0.3657 -2.2003
 2503SOL     OW 9440   7.390   2.516   8.159 -0.1562  1.2986  0.0529
 2503SOL    HW1 9441   7.411   2.474   8.243 -0.4298  0.7342 -0.1581
 2503SOL    HW2 9442   7.312   2.568   8.177 -0.9312  0.2379 -0.1254
 2504SOL     OW 9443   3.528   4.282   0.259 -0.0901  0.4291 -0.7383
 2504SOL    HW1 9444   3.441   4.252   0.233  0.8197 -1.2746 -2.0440
 2504SOL    HW2 9445   3.546   4.238   0.341 -1.2314  2.4280  0.6768
 2505SOL     OW 9446   4.393   0.307   8.436  0.3315 -0.6853  0.5157
 2505SOL    HW1 9447   4.472   0.253   8.441  0.3381 -0.6020  1.5630
 2505SOL    HW2 9448   4.334   0.270   8.502 -0.1962 -0.2627  0.2921
 2506SOL     OW 9449   6.921   4.619   8.319 -0.3856 -0.1645 -0.2122
 2506SOL    HW1 9450   6.882   4.540   8.283 -0.3987  0.0134 -0.5877
 2506SOL    HW2 9451   6.956   4.592   8.404 -0.2976 -0.5998 -0.3847
 2507SOL     OW 9452   7.788   7.794   2.259 -0.0972 -0.0784 -0.5986
 2507SOL    HW1 9453   7.826   7.709   2.235 -1.6156 -1.0931  0.4466
 2507SOL    HW2 9454   7.719   7.809   2.194 -2.6651 -1.7322  1.5589
 2508SOL     OW 9455   4.994   0.734   8.517  0.0066  0.0486 -0.0360
 2508SOL    HW1 9456   5.047   0.693   8.585 -0.3833 -0.6040 -0.1130
 2508SOL    HW2 9457   4.958   0.813   8.559  1.0296  0.5053  0.0073
 2509SOL     OW 9458   2.407   1.343   2.316 -0.1959 -0.4048  0.5278
 2509SOL    HW1 9459   2.457   1.387   2.384  0.6234 -0.6699  0.1190
 2509SOL    HW2 9460   2.316   1.361   2.337  0.0987  0.9243  0.7430
 2510SOL     OW 9461   2.863   2.489   3.854  0.0330 -0.3601 -0.5505
 2510SOL    HW1 9462   2.861   2.584   3.863  0.4951 -0.5170  2.3196
 2510SOL    HW2 9463   2.928   2.472   3.786 -0.9116  1.3598 -1.9686
 2511SOL     OW 9464   7.393   8.163   0.835 -0.4138 -0.5223 -0.2449
 2511SOL    HW1 9465   7.327   8.223   0.800 -0.9044 -0.9531 -0.0786
 2511SOL    HW2 9466   7.347   8.114   0.903  0.3893 -0.0285  0.6923
 2512SOL     OW 9467   2.723   2.447   4.877  0.5498 -0.9713 -0.7733
 2512SOL    HW1 9468   2.655   2.451   4.945  2.0819 -0.3163  0.7988
 2512SOL    HW2 9469   2.735   2.538   4.849  0.3942 -1.1582 -1.4721
 2513SOL     OW 9470   2.104   7.036   8.623  0.3650  0.1979 -0.2933
 2513SOL    HW1 9471   2.037   7.014   8.688 -1.2710  0.9894 -1.6279
 2513SOL    HW2 9472   2.174   7.077   8.674 -0.6531  0.3632  1.0405
 2514SOL     OW 9473   1.847   0.416   4.932  0.1548  0.7596 -0.2222
 2514SOL    HW1 9474   1.905   0.417   4.856  1.4192  3.6814  0.6483
 2514SOL    HW2 9475   1.857   0.502   4.971 -2.6946  0.3888  1.6222
 2515SOL     OW 9476   5.321   5.795   2.260  0.0894 -0.5324  0.0758
 2515SOL    HW1 9477   5.267   5.829   2.189  0.2832 -2.3542 -1.0054
 2515SOL    HW2 9478   5.391   5.746   2.216  1.4761  0.0645  1.4935
 2516SOL     OW 9479   3.618   4.910   0.372 -0.3631  0.0777  0.4161
 2516SOL    HW1 9480   3.578   4.915   0.285  0.9705  1.1409 -0.1756
 2516SOL    HW2 9481   3.689   4.847   0.362 -0.0444  0.3910  0.6521
 2517SOL     OW 9482   0.981   2.507   2.134  0.3930  0.0263 -0.2619
 2517SOL    HW1 9483   0.922   2.502   2.210 -0.5936  0.3999 -0.9814
 2517SOL    HW2 9484   1.032   2.586   2.149 -0.5930  0.7407 -0.5151
 2518SOL     OW 9485   0.899   6.960   5.752 -0.0111 -0.2722 -0.2572
 2518SOL    HW1 9486   0.942   7.023   5.694 -0.6511  1.0592  0.6855
 2518SOL    HW2 9487   0.928   6.984   5.840 -1.3130 -0.4523  0.2407
 2519SOL     OW 9488   0.268   7.673   6.376 -0.1940 -0.1342  0.3124
 2519SOL    HW1 9489   0.209   7.687   6.450  0.0971  0.2423  0.4772
 2519SOL    HW2 9490   0.221   7.707   6.300 -1.2420 -2.1245  0.0080
 2520SOL     OW 9491   6.773   3.935   3.426  0.2169  0.9827  0.2476
 2520SOL    HW1 9492   6.695   3.929   3.481 -0.6290  1.1571 -0.9028
 2520SOL    HW2 9493   6.839   3.885   3.473 -1.0121 -0.4432  0.5333
 2521SOL     OW 9494   5.662   6.108   8.311  0.5588  0.4572  0.3088
 2521SOL    HW1 9495   5.651   6.193   8.353 -0.9000  0.5957 -0.2855
 2521SOL    HW2 9496   5.742   6.118   8.258  2.2815  0.3573  2.7017
 2522SOL     OW 9497   0.295   7.323   2.391 -0.5847  0.6616 -0.0358
 2522SOL    HW1 9498   0.220   7.377   2.415  0.6215  1.8310  1.2791
 2522SOL    HW2 9499   0.300   7.330   2.296 -1.3145  1.6928 -0.0157
 2523SOL     OW 9500   0.264   4.148   3.500 -0.2293  0.0285  0.4767
 2523SOL    HW1 9501   0.188   4.105   3.460 -1.7342 -0.8847  3.8918
 2523SOL    HW2 9502   0.260   4.238   3.468 -2.4320 -0.1500  0.0898
 2524SOL     OW 9503   6.301   7.558   8.596  0.5424 -0.0148 -0.2229
 2524SOL    HW1 9504   6.324   7.616   8.523 -0.8060  0.5541 -0.2326
 2524SOL    HW2 9505   6.378   7.502   8.608  0.9656  0.2042 -1.7599
 2525SOL     OW 9506   2.563   4.710   5.675 -0.4237 -0.1577  0.6225
 2525SOL    HW1 9507   2.645   4.716   5.724  0.0627 -1.6615  0.0666
 2525SOL    HW2 9508   2.534   4.619   5.689 -2.7850  0.7237  2.0227
 2526SOL     OW 9509   6.816   3.812   8.355  0.4353 -0.5583 -0.4902
 2526SOL    HW1 9510   6.752   3.741   8.352  0.3494 -0.5190  0.1901
 2526SOL    HW2 9511   6.868   3.801   8.276 -1.0815  0.0507 -1.6354
 2527SOL     OW 9512   0.555   6.154   0.606  0.1563 -0.2790 -0.0860
 2527SOL    HW1 9513   0.589   6.066   0.621  1.4005  0.0349 -0.9155
 2527SOL    HW2 9514   0.538   6.157   0.512  0.4988  0.4909 -0.1279
 2528SOL     OW 9515   3.543   8.406   6.661 -0.4981  0.4177  0.1914
 2528SOL    HW1 9516   3.465   8.449   6.695 -0.9471 -0.3733  0.1899
 2528SOL    HW2 9517   3.524   8.391   6.568 -0.0748  0.8115  0.0382
 2529SOL     OW 9518   4.607   7.896   6.957 -0.3959 -0.0481  0.3662
 2529SOL    HW1 9519   4.618   7.894   7.052 -1.3616 -2.2597  0.4963
 2529SOL    HW2 9520   4.624   7.806   6.929  0.3368  0.6628 -1.6288
 2530SOL     OW 9521   4.721   5.971   0.793  0.4120  0.3713  0.3533
 2530SOL    HW1 9522   4.740   6.049   0.742 -0.6559 -0.6014 -1.6619
 2530SOL    HW2 9523   4.772   5.902   0.750 -0.6366 -0.5113  0.4830
 2531SOL     OW 9524   1.974   0.066   6.054  0.2786  0.1454  0.5288
 2531SOL    HW1 9525   1.893   0.015   6.050  0.1262  0.4659 -2.4828
 2531SOL    HW2 9526   2.041   0.005   6.022  1.0194  0.3147  1.7103
 2532SOL     OW 9527   8.431   5.267   8.440 -0.1506  0.0196 -0.2475
 2532SOL    HW1 9528   8.507   5.314   8.473 -0.3119  0.5154 -0.5796
 2532SOL    HW2 9529   8.439   5.179   8.478  0.3352  0.2059  0.0910
 2533SOL     OW 9530   0.004   0.561   5.549  0.3285 -0.0623  0.1381
 2533SOL    HW1 9531   0.039   0.482   5.590  2.0396  0.2175 -0.6747
 2533SOL    HW2 9532  -0.085   0.538   5.523  0.0703 -1.0222  1.7779
 2534SOL     OW 9533   6.188   8.323   7.447 -0.1507  0.1061 -0.1948
 2534SOL    HW1 9534   6.184   8.392   7.381  0.0050  0.7300  0.4417
 2534SOL    HW2 9535   6.105   8.330   7.494  1.1417  2.0403  2.0131
 2535SOL     OW 9536   8.207   2.787   2.444  0.3981  0.3545 -0.0142
 2535SOL    HW1 9537   8.164   2.849   2.385 -0.1992 -1.2367 -1.3037
 2535SOL    HW2 9538   8.151   2.710   2.444  1.8021 -0.7171  0.4753
 2536SOL     OW 9539   0.418   3.108   2.329 -0.2074  0.6184 -0.3056
 2536SOL    HW1 9540   0.385   3.136   2.244  0.5662  0.0571 -0.7988
 2536SOL    HW2 9541   0.383   3.173   2.391 -2.6160 -0.1907 -0.7152
 2537SOL     OW 9542   5.901   5.073   8.032  0.1461 -0.0939 -0.1290
 2537SOL    HW1 9543   5.837   5.111   8.093 -0.4023  0.6917 -1.1712
 2537SOL    HW2 9544   5.983   5.075   8.080  0.1673  2.5298 -0.1577
 2538SOL     OW 9545   4.329   5.480   5.179 -0.0964  0.0037 -0.1335
 2538SOL    HW1 9546   4.385   5.471   5.102 -1.7517 -0.6169 -1.3247
 2538SOL    HW2 9547   4.373   5.430   5.247  0.6366 -0.7494 -1.1314
 2539SOL     OW 9548   2.168   7.062   0.155  0.3168  0.0031 -0.4898
 2539SOL    HW1 9549   2.218   7.101   0.083  0.2098  0.2576 -0.4281
 2539SOL    HW2 9550   2.102   7.128   0.177 -1.8596 -1.3815 -2.3838
 2540SOL     OW 9551   4.695   4.329   2.750 -0.0482  0.3897  0.0487
 2540SOL    HW1 9552   4.637   4.367   2.816 -1.2947 -0.0154 -0.7973
 2540SOL    HW2 9553   4.704   4.238   2.776  1.7109  0.8295  1.2004
 2541SOL     OW 9554   2.925   2.471   3.106  0.2584  0.2014  0.1014
 2541SOL    HW1 9555   3.004   2.455   3.055  1.1265 -1.4452  1.8599
 2541SOL    HW2 9556   2.939   2.558   3.144  0.0299  1.0278 -1.5792
 2542SOL     OW 9557   5.410   0.357   1.947  0.2286 -0.3761  0.7751
 2542SOL    HW1 9558   5.341   0.405   1.991  0.7707  0.5859  0.6037
 2542SOL    HW2 9559   5.491   0.384   1.991  0.8128  0.8205 -0.9389
 2543SOL     OW 9560   4.128   0.839   1.011 -0.3788  0.5968 -0.5864
 2543SOL    HW1 9561   4.197   0.808   1.070 -0.9180  0.6788  0.1082
 2543SOL    HW2 9562   4.174   0.877   0.937  0.3189  0.3704 -0.2721
 2544SOL     OW 9563   1.363   4.443   7.017 -0.0732  0.5584  0.1204
 2544SOL    HW1 9564   1.335   4.397   6.938 -0.0238  0.1584  0.3299
 2544SOL    HW2 9565   1.438   4.495   6.990 -0.1806  0.5753 -0.1411
 2545SOL     OW 9566   4.534   4.367   2.243 -0.1163 -0.5412 -0.5982
 2545SOL    HW1 9567   4.620   4.355   2.283 -0.4296 -0.3191  0.1625
 2545SOL    HW2 9568   4.490   4.430   2.300 -0.8181 -0.7252 -0.9268
 2546SOL     OW 9569   8.441   8.351   5.260  0.3485 -0.0223  0.2349
 2546SOL    HW1 9570   8.457   8.375   5.352 -0.8081 -2.1350  1.0642
 2546SOL    HW2 9571   8.391   8.424   5.225  0.4357  0.6394  1.4295
 2547SOL     OW 9572   2.165   0.423   8.859 -0.6420 -0.1075 -0.4206
 2547SOL    HW1 9573   2.241   0.401   8.913 -0.6281 -2.0763 -1.1559
 2547SOL    HW2 9574   2.125   0.339   8.839 -2.0199  0.7613 -1.5121
 2548SOL     OW 9575   4.963   5.792   4.990 -0.1003  0.0910 -0.6192
 2548SOL    HW1 9576   4.930   5.721   5.046  1.5820  0.1651  0.5323
 2548SOL    HW2 9577   5.058   5.786   4.997  0.1094  1.3599 -1.9350
 2549SOL     OW 9578   5.610   3.691   7.602  0.3155 -0.2084  0.9160
 2549SOL    HW1 9579   5.575   3.610   7.564 -0.1225 -0.7782  2.4583
 2549SOL    HW2 9580   5.536   3.752   7.601 -0.4079 -0.9659  2.8873
 2550SOL     OW 9581   8.599   8.438   3.754  0.0113  0.2183 -0.0021
 2550SOL    HW1 9582   8.630   8.394   3.832 -0.6162 -0.0971  0.0784
 2550SOL    HW2 9583   8.597   8.370   3.686 -1.5329 -0.0557  0.2756
 2551SOL     OW 9584   6.902   3.887   4.430  0.1788  0.1692 -0.3704
 2551SOL    HW1 9585   6.960   3.825   4.473 -0.6521  0.1166  0.7125
 2551SOL    HW2 9586   6.814   3.858   4.453 -0.2434  1.1686 -0.6659
 2552SOL     OW 9587   5.549   4.130   4.391 -0.2405  0.1099 -0.0192
 2552SOL    HW1 9588   5.559   4.062   4.323 -2.3208  1.1572 -1.4921
 2552SOL    HW2 9589   5.610   4.199   4.365 -1.0978  0.5474 -0.9176
 2553SOL     OW 9590   6.339   2.905   2.574  0.3865 -0.2031  0.0685
 2553SOL    HW1 9591   6.390   2.824   2.579  1.7928  0.7297  2.1879
 2553SOL    HW2 9592   6.286   2.905   2.654  0.7059  1.1534  0.2901
 2554SOL     OW 9593   1.072   6.795   2.367  0.2986  0.1398  0.5708
 2554SOL    HW1 9594   1.098   6.785   2.275 -1.6977  1.3995 -0.2035
 2554SOL    HW2 9595   1.036   6.884   2.371 -2.6594 -0.9999  1.7533
 2555SOL     OW 9596   5.343   4.831   5.090  0.2690  0.1585  0.3034
 2555SOL    HW1 9597   5.402   4.833   5.166  1.3933 -2.8679 -0.3333
 2555SOL    HW2 9598   5.365   4.749   5.045 -3.2699 -0.2883 -0.9511
 2556SOL     OW 9599   2.414   1.719   7.115 -0.3386 -0.7990  0.2910
 2556SOL    HW1 9600   2.492   1.680   7.154 -0.3131 -1.8612 -0.7500
 2556SOL    HW2 9601   2.341   1.676   7.159 -0.3553 -0.0457  1.0296
 2557SOL     OW 9602   2.697   2.706   1.452 -0.0930 -0.1095 -0.1540
 2557SOL    HW1 9603   2.728   2.773   1.513 -1.4790  0.8265 -0.4377
 2557SOL    HW2 9604   2.602   2.711   1.458 -0.2443 -0.4132 -1.9555
 2558SOL     OW 9605   5.162   2.833   0.930 -0.1111 -0.0589 -0.1504
 2558SOL    HW1 9606   5.257   2.840   0.923 -0.2769  2.3824 -0.9483
 2558SOL    HW2 9607   5.144   2.841   1.024  0.3709  2.6730 -0.2094
 2559SOL     OW 9608   2.620   0.267   2.830 -0.4407 -0.3600 -0.5816
 2559SOL    HW1 9609   2.527   0.254   2.811  0.0329 -1.4568 -2.4363
 2559SOL    HW2 9610   2.654   0.315   2.755  0.5159 -0.0086  0.0482
 2560SOL     OW 9611   7.368   2.458   1.831  0.0016 -0.2509  0.1133
 2560SOL    HW1 9612   7.428   2.447   1.757 -0.1594  1.5374 -0.3223
 2560SOL    HW2 9613   7.425   2.455   1.908  0.2639 -1.3416 -0.0924
 2561SOL     OW 9614   7.769   5.335   2.964  0.1156  0.2848  0.4158
 2561SOL    HW1 9615   7.786   5.269   3.031  0.6806 -0.3664 -0.3596
 2561SOL    HW2 9616   7.705   5.295   2.905  0.0281  0.6453  0.2621
 2562SOL     OW 9617   2.933   6.671   0.709  0.3013 -0.3928 -0.2033
 2562SOL    HW1 9618   2.838   6.662   0.715  0.2104  1.3753  3.2472
 2562SOL    HW2 9619   2.967   6.629   0.788  2.2044  0.8862 -0.2672
 2563SOL     OW 9620   6.428   1.942   5.375  0.4268 -0.2603  0.2372
 2563SOL    HW1 9621   6.384   1.914   5.454 -1.0276 -0.8316 -0.7332
 2563SOL    HW2 9622   6.487   1.870   5.352  0.6544 -0.2049  0.6456
 2564SOL     OW 9623   4.451   2.878   1.349  0.4072 -0.1681  0.3297
 2564SOL    HW1 9624   4.402   2.797   1.335  0.7615 -0.7193  2.0180
 2564SOL    HW2 9625   4.385   2.942   1.374  0.2739 -0.2874  0.2822
 2565SOL     OW 9626   8.127   6.297   2.831  0.4597  0.4825  0.0446
 2565SOL    HW1 9627   8.098   6.208   2.814 -2.5567  1.1849  0.8141
 2565SOL    HW2 9628   8.118   6.342   2.747 -1.0516  0.7163  0.2893
 2566SOL     OW 9629   5.315   7.613   5.607  0.4285  0.0879 -0.4066
 2566SOL    HW1 9630   5.228   7.597   5.571 -0.0251 -0.5613  0.9005
 2566SOL    HW2 9631   5.362   7.531   5.595 -0.7689 -1.3409  3.1811
 2567SOL     OW 9632   6.410   2.069   6.182 -0.2884 -0.0773  0.2797
 2567SOL    HW1 9633   6.422   1.985   6.227  0.0973  0.0560  0.4259
 2567SOL    HW2 9634   6.499   2.102   6.169 -0.4670  0.7429  1.0536
 2568SOL     OW 9635   3.945   8.405   8.607  0.3238  0.2138 -0.3995
 2568SOL    HW1 9636   3.987   8.460   8.674 -0.2912 -1.1138  1.1287
 2568SOL    HW2 9637   3.869   8.367   8.651  1.4861 -2.9931 -0.8769
 2569SOL     OW 9638   6.924   6.849   2.082  0.1566 -0.0130  0.1509
 2569SOL    HW1 9639   6.976   6.811   2.012 -1.6064 -0.0359 -1.2070
 2569SOL    HW2 9640   6.909   6.939   2.055  1.5703  0.7659  1.7750
 2570SOL     OW 9641   2.912   7.904   1.887 -0.0575  0.1780  0.2637
 2570SOL    HW1 9642   2.925   7.889   1.980 -1.6463  3.1578  1.1101
 2570SOL    HW2 9643   2.964   7.982   1.868 -0.5674  0.2105 -1.0956
 2571SOL     OW 9644   0.051   8.005   8.230  0.2689  0.3544 -0.3028
 2571SOL    HW1 9645   0.106   8.055   8.291  0.5408  1.7788 -1.6630
 2571SOL    HW2 9646   0.098   7.922   8.219  1.9052  1.3106 -0.9800
 2572SOL     OW 9647   3.066   7.002   4.684 -0.6939  0.0967 -0.0453
 2572SOL    HW1 9648   3.086   7.044   4.768  0.5338 -1.6896  0.6100
 2572SOL    HW2 9649   3.140   7.024   4.627 -0.2814 -0.7346  0.1515
 2573SOL     OW 9650   7.639   3.341   1.253  0.0507  0.3214 -0.4038
 2573SOL    HW1 9651   7.602   3.253   1.246  1.0755 -0.2594  1.0871
 2573SOL    HW2 9652   7.597   3.378   1.331  1.2079  0.3389  0.2273
 2574SOL     OW 9653   2.809   1.487   6.887 -0.3984  0.1974 -0.1082
 2574SOL    HW1 9654   2.750   1.442   6.826  1.1780 -3.1023  0.5397
 2574SOL    HW2 9655   2.884   1.427   6.896  1.1878  2.3172  2.1624
 2575SOL     OW 9656   3.712   6.245   2.708  0.0692 -0.2213 -0.2469
 2575SOL    HW1 9657   3.793   6.294   2.724 -0.2683  0.6349 -1.0536
 2575SOL    HW2 9658   3.717   6.222   2.615 -0.6648 -0.0632 -0.3279
 2576SOL     OW 9659   1.979   4.427   7.385 -0.1046 -0.2208 -0.2026
 2576SOL    HW1 9660   1.977   4.427   7.481 -1.4370  0.8943 -0.1820
 2576SOL    HW2 9661   2.008   4.339   7.361  0.2024 -0.5372  1.2151
 2577SOL     OW 9662   4.600   4.899   7.922  0.2064 -0.0946  0.4079
 2577SOL    HW1 9663   4.659   4.929   7.853 -1.3253 -1.6258 -1.7124
 2577SOL    HW2 9664   4.653   4.898   8.002  2.6169 -0.0762 -1.1179
 2578SOL     OW 9665   5.593   8.073   3.150 -0.2008  0.3311  0.2217
 2578SOL    HW1 9666   5.679   8.115   3.156 -0.6538  1.5278 -1.0709
 2578SOL    HW2 9667   5.536   8.127   3.206 -0.6484  1.1207 -0.9541
 2579SOL     OW 9668   3.770   0.287   6.427  0.2798 -0.3483  0.1182
 2579SOL    HW1 9669   3.707   0.275   6.497 -0.9155  1.9284 -0.4616
 2579SOL    HW2 9670   3.770   0.381   6.411  1.5540 -0.6410 -1.9778
 2580SOL     OW 9671   6.295   2.055   2.942 -0.1277  0.3423 -0.8114
 2580SOL    HW1 9672   6.300   2.025   2.852 -0.8763  1.6618 -1.3203
 2580SOL    HW2 9673   6.254   2.141   2.937  0.8727  0.9492  0.6891
 2581SOL     OW 9674   4.010   4.285   0.432 -0.2165 -0.2373 -0.0921
 2581SOL    HW1 9675   3.948   4.301   0.360 -0.6069  0.5914  0.4091
 2581SOL    HW2 9676   4.071   4.359   0.427 -1.3815  0.9248  1.5820
 2582SOL     OW 9677   5.502   8.501   2.294  0.7405 -0.2220  0.1991
 2582SOL    HW1 9678   5.436   8.445   2.253  0.4512  0.4324 -0.2467
 2582SOL    HW2 9679   5.504   8.580   2.239 -0.1898  0.9980  1.8387
 2583SOL     OW 9680   7.465   1.510   3.495  0.2980 -0.4038 -0.2157
 2583SOL    HW1 9681   7.471   1.603   3.471 -0.2964 -0.2199  0.3157
 2583SOL    HW2 9682   7.418   1.470   3.421  2.1143 -0.6407 -1.2984
 2584SOL     OW 9683   6.091   1.792   8.180  0.1947  0.3507 -0.2798
 2584SOL    HW1 9684   6.020   1.851   8.156 -0.6706 -0.2169  0.7661
 2584SOL    HW2 9685   6.160   1.849   8.213  0.0196  0.8717 -0.8006
 2585SOL     OW 9686   1.921   5.950   6.397  0.4189  0.0253  0.1352
 2585SOL    HW1 9687   1.854   5.883   6.388 -2.1373  2.2922  0.8595
 2585SOL    HW2 9688   1.936   5.957   6.492  0.8287  0.3089  0.0539
 2586SOL     OW 9689   2.225   5.578   6.204 -0.3005 -0.0580  0.2065
 2586SOL    HW1 9690   2.137   5.558   6.171  0.1015 -0.8095 -0.4503
 2586SOL    HW2 9691   2.223   5.549   6.296 -0.4630 -0.9631 -0.0667
 2587SOL     OW 9692   1.239   0.612   0.310  0.4314 -0.4179 -0.5831
 2587SOL    HW1 9693   1.275   0.528   0.340 -0.1981 -0.5885 -0.3024
 2587SOL    HW2 9694   1.316   0.668   0.300  0.7806 -0.7627  0.0643
 2588SOL     OW 9695   0.052   0.279   4.699  0.6592  0.4314  0.0539
 2588SOL    HW1 9696   0.033   0.185   4.697  0.1410  0.5385 -0.2523
 2588SOL    HW2 9697   0.054   0.305   4.607  1.6107  0.5668  0.1114
 2589SOL     OW 9698   8.555   6.089   6.323  0.2109  0.5117  0.0146
 2589SOL    HW1 9699   8.578   6.017   6.382  1.2119  0.5193 -0.3516
 2589SOL    HW2 9700   8.526   6.159   6.382  1.4172  0.6023  0.5439
 2590SOL     OW 9701   1.401   1.149   0.280 -0.4091  0.0166 -0.0229
 2590SOL    HW1 9702   1.333   1.217   0.277 -0.9126 -0.4185  1.0892
 2590SOL    HW2 9703   1.382   1.100   0.359  0.2392 -1.1398 -0.5628
 2591SOL     OW 9704   7.740   7.275   5.841  0.0087  0.5498  0.3466
 2591SOL    HW1 9705   7.750   7.247   5.932  0.2174 -1.5532 -0.2676
 2591SOL    HW2 9706   7.650   7.306   5.836 -0.6040 -1.0405  0.8772
 2592SOL     OW 9707   6.704   0.717   1.150 -0.2713 -0.4298  0.0069
 2592SOL    HW1 9708   6.760   0.737   1.225  1.2238  0.5539 -1.3041
 2592SOL    HW2 9709   6.753   0.653   1.100 -2.2068 -2.7258  0.8743
 2593SOL     OW 9710   3.882   3.569   5.002 -0.0695  0.0492 -0.1661
 2593SOL    HW1 9711   3.819   3.559   5.073  0.5682  0.8477  0.5277
 2593SOL    HW2 9712   3.933   3.488   5.004  0.3990  0.3576  0.7455
 2594SOL     OW 9713   7.429   0.003   8.867 -0.1018 -0.4396 -0.5441
 2594SOL    HW1 9714   7.421   0.094   8.837 -3.0769 -0.3936  0.1197
 2594SOL    HW2 9715   7.490   0.008   8.940 -0.4618  1.0866 -0.2992
 2595SOL     OW 9716   2.872   0.956   8.405 -0.1108 -0.0445 -0.4312
 2595SOL    HW1 9717   2.919   1.032   8.438  2.6421 -0.9640 -1.8910
 2595SOL    HW2 9718   2.855   0.903   8.482 -0.9001  1.3966  0.4319
 2596SOL     OW 9719   5.311   6.144   2.256 -0.0101 -0.3225 -0.1622
 2596SOL    HW1 9720   5.377   6.160   2.324 -0.3852 -0.3816  0.2131
 2596SOL    HW2 9721   5.234   6.192   2.286 -0.0458  0.0062 -0.7594
 2597SOL     OW 9722   2.878   5.728   0.850  0.2319 -0.0127  0.5997
 2597SOL    HW1 9723   2.908   5.644   0.816  1.3194  0.7059 -0.2630
 2597SOL    HW2 9724   2.855   5.710   0.941 -1.4600 -1.6736 -0.0813
 2598SOL     OW 9725   8.335   1.168   5.982 -0.1058 -0.6330 -0.0190
 2598SOL    HW1 9726   8.370   1.131   6.063  0.9482 -0.3001 -0.3029
 2598SOL    HW2 9727   8.285   1.096   5.943 -1.8997 -0.3449  1.6210
 2599SOL     OW 9728   2.296   5.667   0.300  0.1245  0.2349  0.1784
 2599SOL    HW1 9729   2.327   5.757   0.290  0.5416  0.2947  1.6829
 2599SOL    HW2 9730   2.289   5.655   0.395 -0.0920 -1.2692 -0.0053
 2600SOL     OW 9731   2.869   0.533   6.591  0.2624  0.4120  0.0701
 2600SOL    HW1 9732   2.895   0.511   6.680 -0.4983  0.3052  0.2764
 2600SOL    HW2 9733   2.773   0.535   6.594  0.2032 -0.0896 -0.8537
 2601SOL     OW 9734   5.445   1.336   7.811  0.1484 -0.0714  0.4770
 2601SOL    HW1 9735   5.469   1.245   7.790  2.0794  0.8683 -1.7994
 2601SOL    HW2 9736   5.510   1.364   7.875 -0.0465 -0.0800  0.6802
 2602SOL     OW 9737   3.828   2.249   8.339 -0.2253  0.4364 -0.1982
 2602SOL    HW1 9738   3.818   2.333   8.383 -1.9580  0.1651  0.0123
 2602SOL    HW2 9739   3.841   2.271   8.247 -0.3983  0.9358 -0.1039
 2603SOL     OW 9740   6.645   5.144   8.633 -0.0011  0.7248  0.1217
 2603SOL    HW1 9741   6.717   5.191   8.675 -0.1909  1.3859 -0.2670
 2603SOL    HW2 9742   6.686   5.069   8.591  0.2995  0.4907  0.8273
 2604SOL     OW 9743   3.334   4.297   6.944  0.6284  0.0929  0.0313
 2604SOL    HW1 9744   3.254   4.341   6.970  0.6480 -0.7002  1.5489
 2604SOL    HW2 9745   3.304   4.215   6.903  0.6423  0.6259 -1.0899
 2605SOL     OW 9746   7.343   6.118   7.223 -0.1994  0.2045  0.1427
 2605SOL    HW1 9747   7.380   6.179   7.286  1.9219 -1.4609  0.6653
 2605SOL    HW2 9748   7.249   6.133   7.226 -0.0889  0.8421  2.9939
 2606SOL     OW 9749   2.064   7.237   1.024 -0.4496 -0.2358  0.7589
 2606SOL    HW1 9750   2.106   7.215   1.107 -0.4154 -1.8803  0.3384
 2606SOL    HW2 9751   1.975   7.263   1.049 -0.3796 -0.5134  1.3293
 2607SOL     OW 9752   0.105   2.116   6.404  0.0164 -0.2392  0.5165
 2607SOL    HW1 9753   0.103   2.170   6.326 -1.5907  1.4333  1.6463
 2607SOL    HW2 9754   0.194   2.126   6.438  0.5527 -0.5305 -0.7581
 2608SOL     OW 9755   8.050   5.520   8.462  0.1684  0.4387 -0.6923
 2608SOL    HW1 9756   8.084   5.609   8.456  1.8766 -0.2198 -1.6350
 2608SOL    HW2 9757   8.080   5.488   8.547  0.1953  0.5133 -0.6735
 2609SOL     OW 9758   0.681   0.855   6.748 -0.0768 -0.0732  0.2504
 2609SOL    HW1 9759   0.678   0.950   6.740 -0.6298 -0.0783  0.3448
 2609SOL    HW2 9760   0.757   0.838   6.804  0.8393  0.2253 -0.8487
 2610SOL     OW 9761   5.567   2.501   6.647  0.0002  0.3589  0.8131
 2610SOL    HW1 9762   5.637   2.448   6.610 -0.5170  0.3088 -0.1210
 2610SOL    HW2 9763   5.533   2.448   6.720  0.3592  0.0035  0.7250
 2611SOL     OW 9764   4.311   8.125   1.123  0.0468 -0.0850 -0.3881
 2611SOL    HW1 9765   4.334   8.152   1.034  0.7741 -0.7471 -0.4158
 2611SOL    HW2 9766   4.371   8.052   1.141  0.1359  0.2667  0.7693
 2612SOL     OW 9767   2.069   5.089   5.362 -0.2906 -0.2303  0.1158
 2612SOL    HW1 9768   1.999   5.154   5.366 -0.9199 -0.9321  1.0189
 2612SOL    HW2 9769   2.129   5.114   5.433 -0.1432 -0.2046 -0.0175
 2613SOL     OW 9770   7.025   7.161   6.552  0.4949 -0.0493 -0.9476
 2613SOL    HW1 9771   6.963   7.111   6.499 -1.2002  1.8128 -0.7969
 2613SOL    HW2 9772   7.025   7.117   6.637  0.6400 -1.0126 -1.4305
 2614SOL     OW 9773   1.620   2.659   8.320  0.1547 -0.4550  0.1425
 2614SOL    HW1 9774   1.642   2.616   8.403 -0.5740  3.4587  2.6307
 2614SOL    HW2 9775   1.688   2.725   8.308 -1.5171  1.2542 -0.5148
 2615SOL     OW 9776   5.864   2.347   4.504 -0.2949  0.2130  0.0674
 2615SOL    HW1 9777   5.804   2.291   4.454  1.9971 -1.9527 -0.4779
 2615SOL    HW2 9778   5.888   2.416   4.442 -1.6538  0.7426  0.0850
 2616SOL     OW 9779   4.512   1.357   5.535 -0.1249  0.3755 -0.0990
 2616SOL    HW1 9780   4.575   1.346   5.464 -0.2575  0.2024 -0.1931
 2616SOL    HW2 9781   4.505   1.269   5.574  0.2907  0.5672  0.4226
 2617SOL     OW 9782   5.953   3.024   1.038 -0.3634 -0.0068  0.1808
 2617SOL    HW1 9783   5.971   2.930   1.051  0.8323  0.3124  1.1010
 2617SOL    HW2 9784   5.913   3.052   1.120 -0.1399  0.4106  0.1510
 2618SOL     OW 9785   3.804   5.963   2.691  0.1213 -0.6340  0.2147
 2618SOL    HW1 9786   3.815   5.973   2.597 -2.3536 -1.6666 -0.2487
 2618SOL    HW2 9787   3.774   6.049   2.721 -0.3055 -0.6449 -0.1665
 2619SOL     OW 9788   8.653   1.856   1.948  0.9345  0.0840 -0.3069
 2619SOL    HW1 9789   8.669   1.942   1.910  0.6101 -0.0616 -0.7677
 2619SOL    HW2 9790   8.623   1.802   1.876 -0.7348  0.0853  0.3403
 2620SOL     OW 9791   1.826   3.355   2.877 -0.3500  0.1829 -0.3363
 2620SOL    HW1 9792   1.826   3.319   2.788  0.1692 -0.1733 -0.2026
 2620SOL    HW2 9793   1.765   3.428   2.874 -0.0759  0.3927 -1.0767
 2621SOL     OW 9794   4.075   5.592   3.200  0.5853  0.0831 -0.3817
 2621SOL    HW1 9795   3.984   5.621   3.211  0.2224 -1.2111  0.1686
 2621SOL    HW2 9796   4.088   5.528   3.270  2.5007  1.5508  0.6992
 2622SOL     OW 9797   4.797   1.338   4.308 -0.3831  0.5282  0.4856
 2622SOL    HW1 9798   4.738   1.301   4.243 -1.0992  1.4688  0.5719
 2622SOL    HW2 9799   4.845   1.263   4.343 -0.7149 -0.1120 -0.3943
 2623SOL     OW 9800   2.493   1.059   4.438  0.1325 -0.1797 -0.1461
 2623SOL    HW1 9801   2.432   1.068   4.364 -1.8508  0.3769  1.4760
 2623SOL    HW2 9802   2.446   1.005   4.501  1.3977  0.1172  1.0951
 2624SOL     OW 9803   1.928   8.765   3.654 -0.2840 -0.2108  0.8272
 2624SOL    HW1 9804   1.917   8.830   3.584 -0.3929 -0.0399  1.0019
 2624SOL    HW2 9805   1.869   8.795   3.723 -0.3913 -0.5381  0.8792
 2625SOL     OW 9806   4.077   1.712   1.705 -0.0155  0.0391  0.1975
 2625SOL    HW1 9807   4.139   1.737   1.637 -1.0134  1.0015 -0.3871
 2625SOL    HW2 9808   4.015   1.653   1.662  0.6282 -1.1692  0.8536
 2626SOL     OW 9809   4.893   7.770   3.875  0.4483  0.1914  0.3231
 2626SOL    HW1 9810   4.890   7.802   3.965  1.7640  0.9909  0.1093
 2626SOL    HW2 9811   4.831   7.697   3.874 -0.7975  1.1741  1.4543
 2627SOL     OW 9812   3.671   4.574   2.408 -0.3478 -0.4954 -0.1859
 2627SOL    HW1 9813   3.747   4.577   2.350 -0.4036  0.3075 -0.2269
 2627SOL    HW2 9814   3.705   4.597   2.495 -0.9045  2.2367 -0.6155
 2628SOL     OW 9815   4.974   1.515   7.653 -0.0386 -0.3457  0.1280
 2628SOL    HW1 9816   4.890   1.549   7.684 -0.1340 -0.9571  0.5441
 2628SOL    HW2 9817   5.037   1.584   7.676 -0.3201 -0.1797  0.4097
 2629SOL     OW 9818   6.030   1.315   5.508 -0.7539 -0.4803  0.1451
 2629SOL    HW1 9819   5.960   1.326   5.573 -1.5389 -1.1213 -0.5858
 2629SOL    HW2 9820   5.997   1.358   5.430  0.7200  1.4365  0.4944
 2630SOL     OW 9821   1.640   4.265   7.146  0.1670  0.1087 -0.2014
 2630SOL    HW1 9822   1.585   4.308   7.211 -0.7730 -0.7064 -0.4424
 2630SOL    HW2 9823   1.712   4.326   7.131  0.2610  0.4368  1.3923
 2631SOL     OW 9824   4.210   5.089   3.000  0.2866 -0.6571 -0.3299
 2631SOL    HW1 9825   4.134   5.041   2.968 -0.7190 -0.4754  1.6019
 2631SOL    HW2 9826   4.179   5.178   3.013  1.1268 -0.3342 -0.5071
 2632SOL     OW 9827   6.916   3.000   5.051  0.3023  0.2009  0.2161
 2632SOL    HW1 9828   6.944   3.026   5.138 -1.3757  0.6328  0.6642
 2632SOL    HW2 9829   6.865   2.920   5.065 -1.4845  1.2383 -0.1018
 2633SOL     OW 9830   7.981   3.651   4.032 -0.4249 -0.1502 -0.6121
 2633SOL    HW1 9831   8.061   3.665   3.982 -0.5158 -1.1753 -1.0612
 2633SOL    HW2 9832   8.011   3.639   4.122 -0.2104  1.0321 -0.5087
 2634SOL     OW 9833   1.915   8.143   7.499  0.2537 -0.4852  0.0133
 2634SOL    HW1 9834   1.871   8.226   7.477  1.1849 -0.3182 -1.3826
 2634SOL    HW2 9835   1.859   8.103   7.565  0.2208  1.6628  1.4101
 2635SOL     OW 9836   4.831   6.648   3.464 -0.0992  0.0442  0.4430
 2635SOL    HW1 9837   4.915   6.693   3.458  0.8235 -1.5271  1.0131
 2635SOL    HW2 9838   4.770   6.716   3.493  1.7803  0.4562  4.0712
 2636SOL     OW 9839   5.549   3.265   0.166 -0.4502  0.6390 -0.7704
 2636SOL    HW1 9840   5.535   3.204   0.094  1.3996 -0.3621 -0.3578
 2636SOL    HW2 9841   5.547   3.210   0.244  1.4323  1.0290 -0.4065
 2637SOL     OW 9842   1.974   3.978   4.900  0.1490  0.1462  0.1809
 2637SOL    HW1 9843   1.953   4.009   4.988 -0.9393  0.2226 -0.0853
 2637SOL    HW2 9844   1.902   4.011   4.846  0.6847 -0.0997 -0.6884
 2638SOL     OW 9845   3.109   4.627   3.042  0.4347  0.3072 -0.4055
 2638SOL    HW1 9846   3.030   4.575   3.057  0.2522  0.5768 -0.4206
 2638SOL    HW2 9847   3.168   4.568   2.996 -0.1378  0.4034 -1.2976
 2639SOL     OW 9848   2.374   7.086   6.960  0.1456 -0.1797 -0.0752
 2639SOL    HW1 9849   2.349   7.178   6.969  2.8998  1.0224 -2.8524
 2639SOL    HW2 9850   2.414   7.063   7.044  1.3702  1.8893 -0.0283
 2640SOL     OW 9851   8.283   8.529   3.674  0.4250 -0.0456 -0.0656
 2640SOL    HW1 9852   8.377   8.512   3.673  0.5739  0.6820 -1.7975
 2640SOL    HW2 9853   8.266   8.578   3.594 -1.6484 -1.3022 -0.4740
 2641SOL     OW 9854   2.001   7.491   4.493  0.5216  0.3991 -0.0256
 2641SOL    HW1 9855   2.066   7.430   4.527 -0.5094 -0.6440  0.1124
 2641SOL    HW2 9856   2.044   7.577   4.498  2.1110 -0.3303 -0.5133
 2642SOL     OW 9857   3.249   6.687   2.593  0.1376 -0.3012  1.0249
 2642SOL    HW1 9858   3.264   6.759   2.532  1.3130 -2.3353 -1.2858
 2642SOL    HW2 9859   3.166   6.708   2.636  0.7947  2.7346  1.0207
 2643SOL     OW 9860   7.221   5.157   1.879  0.4010  0.2593 -0.1541
 2643SOL    HW1 9861   7.305   5.110   1.880 -0.0768 -0.6178 -0.6607
 2643SOL    HW2 9862   7.203   5.175   1.971 -0.3349 -2.2493  0.2550
 2644SOL     OW 9863   4.019   1.751   8.004  0.1577  0.0617 -0.0092
 2644SOL    HW1 9864   3.982   1.669   8.037 -0.8632  0.4115 -0.2360
 2644SOL    HW2 9865   3.966   1.819   8.045 -0.0471  0.5502 -1.0462
 2645SOL     OW 9866   5.010   6.567   2.637 -0.8666  0.0186 -0.0286
 2645SOL    HW1 9867   5.007   6.620   2.558 -0.3727 -1.3668 -1.0199
 2645SOL    HW2 9868   4.998   6.477   2.606  0.6330 -0.6873  1.3132
 2646SOL     OW 9869   5.071   8.480   4.371 -0.2397  0.0693 -0.0663
 2646SOL    HW1 9870   5.067   8.467   4.466  0.1940  1.3108  0.1392
 2646SOL    HW2 9871   5.055   8.393   4.334 -0.7129 -0.3724  1.1361
 2647SOL     OW 9872   4.621   1.229   1.966 -0.2069 -0.1133 -0.1045
 2647SOL    HW1 9873   4.706   1.270   1.988  0.4485 -1.8796  0.8267
 2647SOL    HW2 9874   4.628   1.209   1.873 -0.2923  1.2586 -0.4333
 2648SOL     OW 9875   7.168   2.339   3.968 -0.2528 -0.3007  0.2132
 2648SOL    HW1 9876   7.193   2.274   3.902 -1.7906 -0.9216  0.2092
 2648SOL    HW2 9877   7.075   2.356   3.952 -0.4024  0.3306  1.5572
 2649SOL     OW 9878   6.906   2.470   5.570 -0.6972  0.0089 -0.1305
 2649SOL    HW1 9879   6.840   2.488   5.637 -2.1391 -0.4991 -1.3483
 2649SOL    HW2 9880   6.886   2.381   5.541  0.7733 -0.2934 -0.2834
 2650SOL     OW 9881   4.670   0.320   4.364  0.0252  0.1207  0.7226
 2650SOL    HW1 9882   4.750   0.337   4.314  0.0688 -0.6745  0.5123
 2650SOL    HW2 9883   4.646   0.406   4.400  0.3263  0.5964 -0.1621
 2651SOL     OW 9884   4.107   0.547   4.897  0.3835  0.5902  0.3442
 2651SOL    HW1 9885   4.106   0.491   4.820  2.0581  1.5792 -0.4526
 2651SOL    HW2 9886   4.021   0.534   4.938 -0.1557 -0.7075 -1.1167
 2652SOL     OW 9887   6.079   5.961   2.485 -0.6666  0.2059 -0.3442
 2652SOL    HW1 9888   6.067   5.929   2.574 -0.0788  0.2659 -0.2385
 2652SOL    HW2 9889   5.991   5.962   2.447 -0.7017 -1.6545 -0.3967
 2653SOL     OW 9890   1.324   5.877   2.152 -0.2529 -0.5983  0.6295
 2653SOL    HW1 9891   1.389   5.945   2.171  0.4620 -0.9344 -0.5244
 2653SOL    HW2 9892   1.265   5.917   2.088  0.0853 -0.9959  0.0558
 2654SOL     OW 9893   2.630   0.878   4.020 -0.1206 -0.0355  0.0362
 2654SOL    HW1 9894   2.538   0.881   4.047  0.3794 -0.2297  1.9319
 2654SOL    HW2 9895   2.630   0.821   3.943 -1.3900 -1.3502  0.9556
 2655SOL     OW 9896   4.586   4.142   7.425  0.0157 -0.5434 -0.4655
 2655SOL    HW1 9897   4.529   4.213   7.393  1.0966  0.5228 -0.0839
 2655SOL    HW2 9898   4.674   4.170   7.403  0.5287 -1.4055  0.4104
 2656SOL     OW 9899   7.568   8.690   5.865  0.3874 -0.1230  0.1590
 2656SOL    HW1 9900   7.570   8.631   5.940 -1.4520 -1.2772 -0.6374
 2656SOL    HW2 9901   7.501   8.755   5.887 -1.1560 -1.2562 -0.9746
 2657SOL     OW 9902   6.544   8.871   4.570 -0.2152  0.1764  0.4589
 2657SOL    HW1 9903   6.479   8.942   4.569  0.0284  0.4682  2.3755
 2657SOL    HW2 9904   6.492   8.792   4.581 -0.4120  0.1104 -0.7347
 2658SOL     OW 9905   0.900   4.326   1.770 -0.0445  0.6642 -0.0607
 2658SOL    HW1 9906   0.956   4.341   1.846 -1.5281  0.1417  1.1813
 2658SOL    HW2 9907   0.930   4.242   1.734  0.6106  0.8738 -0.0067
 2659SOL     OW 9908   8.333   4.067   2.467 -0.3833  0.0433 -0.2398
 2659SOL    HW1 9909   8.390   3.991   2.467  1.0831  1.0727  0.9803
 2659SOL    HW2 9910   8.316   4.084   2.560 -0.2492  1.4885 -0.4529
 2660SOL     OW 9911   4.519   0.549   0.953  0.0328 -0.0743  0.3857
 2660SOL    HW1 9912   4.471   0.560   1.036  1.5363  3.6127  0.9594
 2660SOL    HW2 9913   4.465   0.594   0.888  0.3892 -0.1234  0.0535
 2661SOL     OW 9914   4.985   4.581   3.276  0.0620  0.4657 -0.2998
 2661SOL    HW1 9915   4.960   4.489   3.289 -1.5499  1.0030  0.6090
 2661SOL    HW2 9916   4.902   4.626   3.260  0.8485  1.7672 -0.8577
 2662SOL     OW 9917   7.371   4.605   4.999  0.1406  0.8081  0.4183
 2662SOL    HW1 9918   7.314   4.528   5.005 -1.2557  1.8511  1.0486
 2662SOL    HW2 9919   7.459   4.571   5.017 -0.3224 -0.7724 -0.1430
 2663SOL     OW 9920   2.410   1.961   2.141 -0.1182  0.1920  0.0609
 2663SOL    HW1 9921   2.463   2.005   2.208  0.5583  0.4224 -0.6068
 2663SOL    HW2 9922   2.354   1.901   2.190  0.1579  0.5661  0.8539
 2664SOL     OW 9923   2.248   7.094   7.355  0.3189 -0.3556  0.2346
 2664SOL    HW1 9924   2.322   7.057   7.307 -0.4065  0.3369 -1.5344
 2664SOL    HW2 9925   2.171   7.066   7.304 -0.3229  2.6361 -0.6362
 2665SOL     OW 9926   6.160   7.095   3.764 -0.5131  0.2905 -0.3976
 2665SOL    HW1 9927   6.154   7.099   3.669 -0.8837  3.2276 -0.3426
 2665SOL    HW2 9928   6.111   7.172   3.795  1.2389  0.5453  2.0534
 2666SOL     OW 9929   5.158   4.866   0.888  0.0268 -0.0756  0.5026
 2666SOL    HW1 9930   5.127   4.919   0.814  1.2874  0.5654  0.4073
 2666SOL    HW2 9931   5.082   4.814   0.914 -0.2718 -0.8466 -1.6982
 2667SOL     OW 9932   7.755   5.768   0.112  0.2950 -0.3369  0.0005
 2667SOL    HW1 9933   7.809   5.789   0.036 -2.0842  0.1225 -1.6936
 2667SOL    HW2 9934   7.750   5.672   0.112  1.5618 -0.4158  0.5510
 2668SOL     OW 9935   3.172   8.200   4.700  0.5122 -0.1796  0.0579
 2668SOL    HW1 9936   3.221   8.276   4.730  1.5026 -0.0471 -1.7315
 2668SOL    HW2 9937   3.086   8.234   4.677  0.2535 -0.0165  1.1999
 2669SOL     OW 9938   2.721   0.218   1.823  0.2842  0.6236 -0.2587
 2669SOL    HW1 9939   2.711   0.129   1.858 -1.7162  0.9853  0.2089
 2669SOL    HW2 9940   2.680   0.215   1.737  0.2314  1.0800 -0.2514
 2670SOL     OW 9941   0.792   0.188   8.469 -0.2679 -0.2940 -0.0028
 2670SOL    HW1 9942   0.878   0.145   8.469 -0.1156 -0.0233 -1.4880
 2670SOL    HW2 9943   0.769   0.194   8.562  0.7411 -1.5075  0.3645
 2671SOL     OW 9944   0.555   3.134   7.530  0.1351  0.0909  0.2501
 2671SOL    HW1 9945   0.522   3.117   7.442 -0.5283  0.8252  0.3392
 2671SOL    HW2 9946   0.502   3.207   7.562 -0.0671 -0.5702  1.5047
 2672SOL     OW 9947   0.304   6.082   1.894 -0.2178 -0.5907  0.0794
 2672SOL    HW1 9948   0.376   6.140   1.871 -0.7463 -0.1256 -0.4546
 2672SOL    HW2 9949   0.254   6.129   1.961 -0.1274 -0.8313  0.3171
 2673SOL     OW 9950   8.612   1.967   1.286 -0.5571 -0.0193  0.0111
 2673SOL    HW1 9951   8.591   1.925   1.369  0.2559  0.1131  0.2960
 2673SOL    HW2 9952   8.683   2.027   1.308 -0.6982  0.4053 -0.6804
 2674SOL     OW 9953   5.032   7.798   6.479 -0.2037 -0.4504  0.4102
 2674SOL    HW1 9954   4.965   7.731   6.478  1.3876 -2.1474  1.0620
 2674SOL    HW2 9955   5.113   7.752   6.454  1.0397  1.0989  1.3422
 2675SOL     OW 9956   5.114   3.884   0.287 -0.0956  0.0246  0.2382
 2675SOL    HW1 9957   5.127   3.914   0.197  0.3645 -2.1975 -0.5027
 2675SOL    HW2 9958   5.050   3.814   0.280 -0.0902 -0.1575  1.6578
 2676SOL     OW 9959   4.169   4.568   2.729  0.0351 -0.1814 -0.0004
 2676SOL    HW1 9960   4.080   4.577   2.763 -0.2383  1.5699 -1.0387
 2676SOL    HW2 9961   4.224   4.605   2.799  0.0376 -1.7772  0.8823
 2677SOL     OW 9962   8.732   3.069   1.755  0.5617  0.1880  0.3640
 2677SOL    HW1 9963   8.661   3.019   1.716  1.2139 -0.3896 -0.1179
 2677SOL    HW2 9964   8.691   3.149   1.786 -0.0509  0.5715 -1.2962
 2678SOL     OW 9965   6.976   4.279   7.822 -0.2397 -0.0817  0.5332
 2678SOL    HW1 9966   6.927   4.282   7.905 -1.4858 -0.5512 -0.1569
 2678SOL    HW2 9967   7.066   4.297   7.847 -0.9457  2.1374  1.6861
 2679SOL     OW 9968   7.732   0.011   0.675  0.7620  0.0566 -0.1970
 2679SOL    HW1 9969   7.698   0.022   0.764  1.8191  1.5593  0.0601
 2679SOL    HW2 9970   7.796  -0.060   0.683  1.1928  0.5006  0.3481
 2680SOL     OW 9971   4.448   6.057   2.825  0.2517  0.3794 -0.3257
 2680SOL    HW1 9972   4.504   6.005   2.767  1.6326  0.6826  0.6911
 2680SOL    HW2 9973   4.495   6.139   2.836 -0.4397  0.6683  0.4972
 2681SOL     OW 9974   5.865   8.395   6.199 -0.3079  0.2593 -0.2081
 2681SOL    HW1 9975   5.819   8.475   6.222 -2.6807 -0.8207 -0.8659
 2681SOL    HW2 9976   5.800   8.343   6.152  1.4878 -1.5892 -0.7715
 2682SOL     OW 9977   1.289   5.504   7.706  0.5503  0.5765  0.4961
 2682SOL    HW1 9978   1.266   5.551   7.787  0.8299 -0.3273  1.1110
 2682SOL    HW2 9979   1.350   5.437   7.734 -1.2890 -1.4203 -0.0258
 2683SOL     OW 9980   1.534   2.265   0.178 -0.6080  0.0260 -0.2367
 2683SOL    HW1 9981   1.557   2.217   0.257 -1.3447 -0.7471 -0.4689
 2683SOL    HW2 9982   1.444   2.294   0.192 -0.3067  1.0104 -0.2668
 2684SOL     OW 9983   7.073   6.144   5.514  0.0874 -0.1050 -1.1562
 2684SOL    HW1 9984   7.000   6.082   5.512  1.5054 -1.8796 -0.8097
 2684SOL    HW2 9985   7.131   6.115   5.444  0.8218  0.8045 -0.9481
 2685SOL     OW 9986   8.268   2.546   7.657 -0.0630 -0.0156 -0.8490
 2685SOL    HW1 9987   8.229   2.493   7.726 -0.8387  0.8620 -0.5870
 2685SOL    HW2 9988   8.360   2.555   7.682 -0.5172  1.0257  0.5699
 2686SOL     OW 9989   0.694   3.814   4.288  0.5420  0.3969 -0.0415
 2686SOL    HW1 9990   0.624   3.835   4.350  0.5444 -0.4339  0.2612
 2686SOL    HW2 9991   0.648   3.795   4.206  0.3415 -0.6912  0.2985
 2687SOL     OW 9992   5.892   7.394   7.582 -0.0018 -0.3403 -0.6176
 2687SOL    HW1 9993   5.856   7.435   7.660  0.7284  0.3377 -0.6183
 2687SOL    HW2 9994   5.842   7.432   7.510  1.6005  1.7436 -0.7473
 2688SOL     OW 9995   0.250   1.362   5.402  0.3731  0.2307 -0.3127
 2688SOL    HW1 9996   0.203   1.381   5.320 -0.3663  0.2782  0.1187
 2688SOL    HW2 9997   0.247   1.267   5.410 -0.8074  0.3125  0.3815
 2689SOL     OW 9998   0.727   1.340   0.471 -0.1484 -0.6840  0.1217
 2689SOL    HW1 9999   0.665   1.271   0.493 -1.1756  0.6936  1.8291
 2689SOL    HW210000   0.678   1.421   0.485  0.9613  0.4297 -1.9519
 2690SOL     OW10001   1.962   3.213   1.338  0.4238 -0.2723 -0.0161
 2690SOL    HW110002   1.911   3.251   1.267  0.0191 -0.5950  0.0959
 2690SOL    HW210003   2.045   3.261   1.337 -0.3260  1.0828  0.5632
 2691SOL     OW10004   4.125   1.740   8.864 -0.3077 -0.3522 -0.6011
 2691SOL    HW110005   4.126   1.800   8.789 -0.7917  0.3207 -0.0912
 2691SOL    HW210006   4.096   1.795   8.938 -0.9718 -1.2573 -0.1635
 2692SOL     OW10007   8.303   6.229   0.902  0.3888 -0.1504  0.1720
 2692SOL    HW110008   8.223   6.202   0.947 -0.2169  0.1173 -0.7222
 2692SOL    HW210009   8.282   6.222   0.809  1.5257 -0.4174 -0.0819
 2693SOL     OW10010   7.423   7.077   7.401 -0.1365 -0.0399 -0.2379
 2693SOL    HW110011   7.483   7.005   7.418 -0.2759 -0.5103 -1.6238
 2693SOL    HW210012   7.347   7.059   7.457 -0.0854 -0.8772 -0.4227
 2694SOL     OW10013   8.060   2.584   1.902 -0.4624 -0.0942 -0.3098
 2694SOL    HW110014   8.151   2.556   1.905  0.1374  1.7679  0.3389
 2694SOL    HW210015   8.060   2.658   1.841 -1.1422  1.1080  1.0830
 2695SOL     OW10016   2.184   2.093   2.279 -0.3155  0.3545 -0.0891
 2695SOL    HW110017   2.200   2.001   2.299  0.0669  0.3454 -0.4280
 2695SOL    HW210018   2.257   2.119   2.224 -1.5278  0.2779 -1.8065
 2696SOL     OW10019   0.989   0.778   4.197  0.1194  0.1514  0.2296
 2696SOL    HW110020   0.895   0.770   4.185  0.0452  0.8167  0.3302
 2696SOL    HW210021   1.027   0.741   4.117 -0.2133 -0.3094  0.2784
 2697SOL     OW10022   0.806   0.858   2.476 -0.3118 -0.3966  0.1244
 2697SOL    HW110023   0.826   0.870   2.383  0.9288  0.1817  0.4386
 2697SOL    HW210024   0.821   0.945   2.514  0.8365 -1.0160  1.1286
 2698SOL     OW10025   5.696   3.468   2.267 -0.2984 -0.1024 -0.0674
 2698SOL    HW110026   5.776   3.417   2.276 -0.5454 -0.3044  1.0914
 2698SOL    HW210027   5.635   3.408   2.223 -0.3596 -0.5691  0.6341
 2699SOL     OW10028   0.771   2.179   1.123 -0.7472 -0.1190  0.3468
 2699SOL    HW110029   0.781   2.166   1.217 -0.1103  0.1628  0.3214
 2699SOL    HW210030   0.752   2.091   1.089  1.7815 -0.7795  0.3948
 2700SOL     OW10031   1.203   5.480   1.870 -0.1128 -0.6400  0.2400
 2700SOL    HW110032   1.158   5.446   1.947  0.1246 -0.9993  0.2268
 2700SOL    HW210033   1.134   5.501   1.808 -0.2532 -1.3076  0.1702
 2701SOL     OW10034   5.432   4.137   8.807 -0.3203 -0.0522  0.2448
 2701SOL    HW110035   5.354   4.183   8.839  1.0249  1.6991  1.2162
 2701SOL    HW210036   5.479   4.203   8.756  0.4228 -1.1572 -0.5426
 2702SOL     OW10037   0.718   3.784   6.292  0.1550 -0.3599 -0.3029
 2702SOL    HW110038   0.657   3.853   6.265 -0.2970 -0.0104  1.4958
 2702SOL    HW210039   0.666   3.726   6.348  0.8667 -1.4454 -0.7282
 2703SOL     OW10040   3.246   2.913   4.779  0.3683  0.2751  0.0528
 2703SOL    HW110041   3.214   2.980   4.839 -1.0966  0.2719 -0.6823
 2703SOL    HW210042   3.177   2.904   4.713  1.2137 -0.8694 -0.7287
 2704SOL     OW10043   5.088   0.298   2.716  0.3628  0.0845  0.2463
 2704SOL    HW110044   5.042   0.381   2.728  2.5059  1.1717  1.7852
 2704SOL    HW210045   5.087   0.282   2.622  1.3497  2.8205 -0.3246
 2705SOL     OW10046   5.994   2.503   1.546 -0.0023  0.3061  0.7516
 2705SOL    HW110047   5.978   2.503   1.640  1.1431  0.5988  0.9668
 2705SOL    HW210048   6.068   2.563   1.534 -0.7023  0.9812 -0.4389
 2706SOL     OW10049   6.443   7.768   1.642 -0.0642 -0.0709  0.1249
 2706SOL    HW110050   6.366   7.722   1.677  0.3174 -0.2327  0.7636
 2706SOL    HW210051   6.450   7.846   1.697  0.2423 -0.0684  0.0807
 2707SOL     OW10052   4.384   5.645   3.250  0.1192 -0.4586 -0.0051
 2707SOL    HW110053   4.299   5.641   3.205 -0.1806  0.8412  0.3824
 2707SOL    HW210054   4.410   5.737   3.243  1.0257 -0.6388  0.7440
 2708SOL     OW10055   5.083   8.658   7.629  0.2853 -0.4649 -0.3895
 2708SOL    HW110056   5.150   8.720   7.598  0.9031 -0.9195  0.0061
 2708SOL    HW210057   5.040   8.703   7.701  0.0713 -0.1149 -0.7331
 2709SOL     OW10058   2.783   5.492   1.413  0.3534  1.1111  0.1884
 2709SOL    HW110059   2.856   5.434   1.395  1.1279  1.4139  2.1547
 2709SOL    HW210060   2.719   5.472   1.344  0.4763 -2.2085  0.8656
 2710SOL     OW10061   8.203   7.659   5.867 -0.2504  0.3268 -0.4268
 2710SOL    HW110062   8.217   7.752   5.852 -3.8836  1.1588  0.2722
 2710SOL    HW210063   8.126   7.655   5.925 -1.7795 -3.1060 -2.3569
 2711SOL     OW10064   4.564   8.557   8.501 -0.3014  0.4477  0.5956
 2711SOL    HW110065   4.599   8.534   8.414  1.4464  0.0607  1.3553
 2711SOL    HW210066   4.509   8.633   8.485  0.6387  0.8942 -0.7560
 2712SOL     OW10067   6.930   5.461   1.398  0.0925 -0.3570 -0.1095
 2712SOL    HW110068   6.997   5.511   1.351  0.3937 -0.8496 -0.2172
 2712SOL    HW210069   6.951   5.475   1.491 -0.9810  1.2685 -0.0636
 2713SOL     OW10070   7.642   6.388   8.412 -0.8534 -0.3759 -0.6094
 2713SOL    HW110071   7.565   6.419   8.364 -0.0382  0.3052 -1.5070
 2713SOL    HW210072   7.714   6.440   8.378  0.2350 -1.8725 -0.6962
 2714SOL     OW10073   0.776   8.764   6.743 -0.1021 -0.4547  0.7903
 2714SOL    HW110074   0.705   8.815   6.781 -0.9858 -0.9392 -0.1768
 2714SOL    HW210075   0.816   8.822   6.678  0.4393 -0.1699  1.3576
 2715SOL     OW10076   4.493   1.262   8.131 -1.0000 -0.0229 -0.2295
 2715SOL    HW110077   4.579   1.235   8.165 -1.0079 -0.0087 -0.1980
 2715SOL    HW210078   4.488   1.221   8.045 -0.7791  0.3330 -0.4095
 2716SOL     OW10079   0.649   8.612   5.649 -0.2728  0.6264 -0.0393
 2716SOL    HW110080   0.739   8.582   5.636 -0.6958 -0.4834 -0.4887
 2716SOL    HW210081   0.654   8.707   5.636  0.7607  0.5370 -0.4442
 2717SOL     OW10082   3.386   2.376   2.274 -0.1138  0.5191  0.7736
 2717SOL    HW110083   3.325   2.332   2.333 -0.5063 -0.1498 -0.1172
 2717SOL    HW210084   3.374   2.333   2.190  1.5543  0.4025  0.5512
 2718SOL     OW10085   3.124   2.441   2.895  0.2386 -0.1643  0.3668
 2718SOL    HW110086   3.119   2.469   2.804 -1.9452 -0.2727  0.3997
 2718SOL    HW210087   3.175   2.510   2.938  2.2505 -0.6454 -1.0656
 2719SOL     OW10088   2.330   8.263   7.099  0.4953 -0.2349  0.4262
 2719SOL    HW110089   2.414   8.222   7.122  1.5790  0.6683 -1.6675
 2719SOL    HW210090   2.332   8.348   7.142  0.4416 -0.3919  0.7432
 2720SOL     OW10091   6.116   8.134   7.741 -0.4556 -0.5897  0.8162
 2720SOL    HW110092   6.095   8.210   7.795 -0.9960 -1.1817  1.4481
 2720SOL    HW210093   6.209   8.118   7.757 -0.6422 -0.8497  1.7004
 2721SOL     OW10094   4.743   6.458   7.141  0.0035 -0.1385  0.0166
 2721SOL    HW110095   4.685   6.453   7.065  0.3498  0.9284 -0.3287
 2721SOL    HW210096   4.687   6.491   7.211 -0.8349 -2.9432  0.8107
 2722SOL     OW10097   0.455   0.264   6.953 -0.7123  0.6037  0.3368
 2722SOL    HW110098   0.502   0.347   6.961 -0.4040  0.5433 -0.6504
 2722SOL    HW210099   0.390   0.266   7.023  0.3520  0.9625  1.3405
 2723SOL     OW10100   8.712   6.657   0.209  0.5431  0.6419  0.1992
 2723SOL    HW110101   8.764   6.657   0.128  1.2323 -0.4538  0.6214
 2723SOL    HW210102   8.641   6.719   0.192 -0.1963 -0.6649 -1.8231
 2724SOL     OW10103   2.472   2.200   0.874 -0.4098  0.1698  0.4374
 2724SOL    HW110104   2.442   2.284   0.910 -0.1945  0.2177  0.5045
 2724SOL    HW210105   2.400   2.140   0.892 -0.4924  0.2989  0.5463
 2725SOL     OW10106   5.645   0.691   0.178  0.0129 -0.1050  0.2351
 2725SOL    HW110107   5.675   0.706   0.268  0.7807 -0.9266  0.1338
 2725SOL    HW210108   5.597   0.770   0.155  2.3403  1.4182  0.3273
 2726SOL     OW10109   6.156   7.949   5.388 -0.2099 -0.0604  0.4175
 2726SOL    HW110110   6.171   7.884   5.320 -0.9837  0.7996 -0.6056
 2726SOL    HW210111   6.234   8.005   5.386  0.9528 -1.4986  2.0123
 2727SOL     OW10112   1.827   0.221   5.874  0.4029 -0.1326  0.1501
 2727SOL    HW110113   1.878   0.194   5.950 -0.3694 -3.1821 -0.2456
 2727SOL    HW210114   1.857   0.164   5.804 -0.9062  0.6027 -1.0633
 2728SOL     OW10115   4.152   6.761   5.842  0.3838  0.3249 -0.6597
 2728SOL    HW110116   4.201   6.821   5.897  1.6792  0.1168 -1.5283
 2728SOL    HW210117   4.217   6.696   5.814 -0.8579 -1.2191 -0.1322
 2729SOL     OW10118   7.684   7.527   2.565 -0.2262 -0.5863 -0.6985
 2729SOL    HW110119   7.680   7.487   2.478 -1.2202 -0.1468 -0.8696
 2729SOL    HW210120   7.600   7.571   2.575 -0.4553 -1.2970  0.8032
 2730SOL     OW10121   4.999   2.407   5.991 -0.4444 -0.4495  0.8154
 2730SOL    HW110122   4.916   2.445   6.019 -0.3477 -0.5996  1.3133
 2730SOL    HW210123   5.059   2.424   6.064  0.0486 -0.0663  0.3332
 2731SOL     OW10124   5.231   8.085   2.215 -0.1917 -0.0836  0.2669
 2731SOL    HW110125   5.302   8.032   2.251  0.0190 -0.1407 -0.2187
 2731SOL    HW210126   5.236   8.070   2.120 -1.9625 -1.4865  0.3373
 2732SOL     OW10127   2.153   6.203   0.772 -0.1177  0.2289 -0.6469
 2732SOL    HW110128   2.241   6.240   0.779 -0.2075  0.8535 -2.3229
 2732SOL    HW210129   2.094   6.276   0.790 -0.3133 -0.2386  0.6877
 2733SOL     OW10130   8.177   3.861   6.453 -0.1391 -0.1341 -0.4647
 2733SOL    HW110131   8.088   3.883   6.429 -0.9215 -2.9087 -0.4564
 2733SOL    HW210132   8.223   3.849   6.370  0.0122  0.4026 -0.4663
 2734SOL     OW10133   8.503   6.946   0.769 -0.0237 -0.2068 -0.0586
 2734SOL    HW110134   8.417   6.940   0.811  0.6564 -0.9797  1.2774
 2734SOL    HW210135   8.522   6.856   0.741  0.7643 -0.2312  0.5205
 2735SOL     OW10136   0.519   5.234   8.304 -0.2281 -0.3401 -0.2881
 2735SOL    HW110137   0.549   5.269   8.388  2.3316 -1.4802 -0.6358
 2735SOL    HW210138   0.583   5.167   8.282  0.4066  1.2802 -4.1228
 2736SOL     OW10139   7.919   1.665   8.725 -0.5247 -0.2799 -0.2733
 2736SOL    HW110140   7.890   1.721   8.652  0.9903  0.3018 -0.4605
 2736SOL    HW210141   7.844   1.663   8.784 -0.4230  2.6314  0.1315
 2737SOL     OW10142   1.694   3.927   4.234 -0.8618  0.3129 -0.3268
 2737SOL    HW110143   1.646   3.980   4.299 -0.9851 -0.1858 -0.0083
 2737SOL    HW210144   1.665   3.962   4.149 -1.1071  0.6109 -0.1236
 2738SOL     OW10145   7.846   4.743   8.134  0.3597 -0.5454 -0.3340
 2738SOL    HW110146   7.857   4.833   8.103 -0.1295 -0.1815  0.5244
 2738SOL    HW210147   7.928   4.700   8.112  0.3070 -0.1061 -1.4627
 2739SOL     OW10148   2.444   1.187   6.453  0.3836  0.1128  0.2361
 2739SOL    HW110149   2.350   1.189   6.435  0.5839 -2.0758 -1.4364
 2739SOL    HW210150   2.477   1.269   6.416 -0.5616 -0.1694 -1.3062
 2740SOL     OW10151   7.126   1.066   5.116 -0.2377 -0.1437  0.6357
 2740SOL    HW110152   7.093   1.093   5.202  1.2493  2.1240  0.6149
 2740SOL    HW210153   7.073   1.115   5.054  0.0111 -0.1830  0.3897
 2741SOL     OW10154   6.501   2.832   6.880  0.1015  0.1451 -0.1623
 2741SOL    HW110155   6.547   2.916   6.873  3.2831 -0.9555  3.7162
 2741SOL    HW210156   6.439   2.845   6.952  0.4568 -0.7214  0.3118
 2742SOL     OW10157   6.857   3.162   7.653 -0.4921  0.0717  0.0937
 2742SOL    HW110158   6.781   3.192   7.602 -0.2118  1.5711  0.4990
 2742SOL    HW210159   6.932   3.180   7.596 -0.0812  2.6730  1.3076
 2743SOL     OW10160   3.778   5.983   3.079 -0.1562 -0.2541  0.3526
 2743SOL    HW110161   3.775   6.068   3.035 -0.9618 -0.4180  0.0771
 2743SOL    HW210162   3.731   5.924   3.021  0.5121 -0.9287  0.4782
 2744SOL     OW10163   7.186   2.723   2.622  0.2315 -0.0650 -0.0613
 2744SOL    HW110164   7.213   2.720   2.714 -0.1098  0.4319  0.0554
 2744SOL    HW210165   7.096   2.753   2.623 -0.0763 -0.9234 -0.5119
 2745SOL     OW10166   8.591   2.290   5.496 -0.7458 -0.1191  0.6600
 2745SOL    HW110167   8.501   2.288   5.464 -0.1133 -1.5929 -1.1455
 2745SOL    HW210168   8.643   2.250   5.427  1.1727 -0.3394  2.1356
 2746SOL     OW10169   1.284   8.302   0.327  0.2785  0.3690 -0.2216
 2746SOL    HW110170   1.239   8.287   0.410 -0.6399 -1.4723 -0.9994
 2746SOL    HW210171   1.279   8.396   0.313 -3.2920  0.3095 -0.2029
 2747SOL     OW10172   7.811   5.577   1.367 -0.2550  0.4927 -0.7756
 2747SOL    HW110173   7.894   5.616   1.342 -0.1943  1.5558  0.9452
 2747SOL    HW210174   7.784   5.625   1.445 -1.6628 -0.9421 -0.3197
 2748SOL     OW10175   5.466   3.324   3.635 -0.5117 -0.0055  0.1631
 2748SOL    HW110176   5.381   3.284   3.652 -0.3152 -0.2878  0.4770
 2748SOL    HW210177   5.456   3.415   3.662 -1.0372  0.2305 -0.7845
 2749SOL     OW10178   4.496   4.982   8.866  0.0330 -0.0574  0.4661
 2749SOL    HW110179   4.505   4.944   8.954 -0.5948  0.9346  0.9870
 2749SOL    HW210180   4.418   4.941   8.830  0.2099 -0.3604  0.4253
 2750SOL     OW10181   6.333   8.008   1.163  0.1059 -0.5631  0.8656
 2750SOL    HW110182   6.284   8.044   1.088  1.3564 -0.4346  0.0844
 2750SOL    HW210183   6.413   8.060   1.166 -0.0087 -0.4349  2.4382
 2751SOL     OW10184   2.136   0.635   0.726 -0.1225 -0.1113 -0.0790
 2751SOL    HW110185   2.053   0.680   0.743 -0.0916  0.4495 -1.3848
 2751SOL    HW210186   2.115   0.542   0.740 -0.8477  0.0643  0.0585
 2752SOL     OW10187   1.692   7.858   4.431 -0.0042 -0.4399 -0.4438
 2752SOL    HW110188   1.784   7.886   4.432  0.4062 -1.6414  1.4576
 2752SOL    HW210189   1.643   7.937   4.453  0.5996  0.0822 -0.9100
 2753SOL     OW10190   7.915   0.404   1.242 -0.0660  0.0891  0.3154
 2753SOL    HW110191   7.991   0.431   1.294  1.0164  1.2900 -1.7903
 2753SOL    HW210192   7.927   0.310   1.229  1.4429  0.3778 -0.5601
 2754SOL     OW10193   2.172   7.183   2.354 -1.0563 -0.7753  0.1112
 2754SOL    HW110194   2.199   7.254   2.412 -1.4089  0.7518 -1.5046
 2754SOL    HW210195   2.208   7.104   2.395 -0.4569  0.3341  1.8568
 2755SOL     OW10196   3.252   0.943   7.458 -0.4296  0.3358  0.0142
 2755SOL    HW110197   3.256   1.015   7.396  1.2185  0.4311  0.1915
 2755SOL    HW210198   3.162   0.944   7.491 -0.4509  2.2867 -0.0193
 2756SOL     OW10199   3.905   8.204   5.298  0.1188 -0.0151 -0.9853
 2756SOL    HW110200   3.837   8.144   5.267 -1.6559  1.8649 -0.8610
 2756SOL    HW210201   3.858   8.280   5.332  2.2773  1.4055 -0.9532
 2757SOL     OW10202   8.327   6.570   2.974 -0.3933 -0.0596 -0.0389
 2757SOL    HW110203   8.243   6.608   2.999 -0.3838  0.5514 -0.9045
 2757SOL    HW210204   8.339   6.594   2.883  0.1203 -1.2677 -0.3115
 2758SOL     OW10205   7.036   4.030   5.856 -0.5166  0.1275  0.6180
 2758SOL    HW110206   7.001   3.995   5.938 -0.9076 -1.1446 -0.0515
 2758SOL    HW210207   6.967   4.088   5.824 -0.6210  0.1596  0.8993
 2759SOL     OW10208   4.679   1.778   4.260 -0.6895  0.0382  0.3182
 2759SOL    HW110209   4.622   1.846   4.225 -1.6157  0.1091  1.8979
 2759SOL    HW210210   4.752   1.774   4.198 -0.1289  3.0862  0.6314
 2760SOL     OW10211   0.693   7.619   6.615 -0.2581 -0.0102 -0.0270
 2760SOL    HW110212   0.705   7.714   6.623  0.8638 -0.0040 -1.3772
 2760SOL    HW210213   0.659   7.606   6.527 -0.2510 -0.8670  0.0888
 2761SOL     OW10214   0.293   8.265   2.529 -0.0094  0.6795  0.4887
 2761SOL    HW110215   0.325   8.298   2.445 -2.4495  2.5595  0.1979
 2761SOL    HW210216   0.364   8.284   2.591  0.6495  1.9617 -0.6184
 2762SOL     OW10217   6.337   1.250   7.496  0.0780  0.5565  0.2388
 2762SOL    HW110218   6.357   1.181   7.433  0.3865  0.5536  0.3415
 2762SOL    HW210219   6.269   1.302   7.453  0.1530  0.4445 -0.0179
 2763SOL     OW10220   3.870   7.863   7.016 -0.1150 -0.4645  0.2649
 2763SOL    HW110221   3.896   7.790   7.073  1.3598 -0.3316 -0.2074
 2763SOL    HW210222   3.777   7.875   7.034  0.0445 -1.2119  1.7715
 2764SOL     OW10223   3.677   1.337   5.346  0.2792 -0.3491  0.1280
 2764SOL    HW110224   3.601   1.314   5.292 -0.1204 -0.2428  0.6287
 2764SOL    HW210225   3.716   1.413   5.302 -0.5180  0.2438  0.4093
 2765SOL     OW10226   6.266   3.258   8.455 -0.5584 -0.3363  0.4300
 2765SOL    HW110227   6.187   3.254   8.400 -1.1770  0.5714  1.2112
 2765SOL    HW210228   6.233   3.245   8.544  0.1803  0.0362  0.7615
 2766SOL     OW10229   0.140   4.035   7.152  0.4507  0.4120 -0.1898
 2766SOL    HW110230   0.114   3.975   7.222  0.8961 -1.3094 -1.4482
 2766SOL    HW210231   0.235   4.044   7.162  0.7873 -1.2174 -1.5617
 2767SOL     OW10232   8.772   4.665   3.106 -0.5809  0.1616  0.1456
 2767SOL    HW110233   8.735   4.746   3.141  0.5289  1.2218 -1.0177
 2767SOL    HW210234   8.863   4.687   3.085 -0.3353 -1.3037 -0.4920
 2768SOL     OW10235   2.779   2.290   2.172 -0.1513  0.3412  0.5262
 2768SOL    HW110236   2.765   2.260   2.082  2.8371  2.4456 -0.7886
 2768SOL    HW210237   2.703   2.346   2.190 -0.4155  0.5321 -0.9916
 2769SOL     OW10238   6.077   6.456   1.739 -0.4825 -0.2954 -0.6653
 2769SOL    HW110239   6.142   6.415   1.796  1.2481  3.1085  0.0573
 2769SOL    HW210240   6.013   6.494   1.799 -0.1733  0.9314 -1.0841
 2770SOL     OW10241   0.294   1.788   4.285  0.2291  0.7894 -0.4830
 2770SOL    HW110242   0.349   1.808   4.210  1.4508  0.5591  0.3325
 2770SOL    HW210243   0.355   1.765   4.355 -0.9666 -1.5661 -0.1279
 2771SOL     OW10244   4.814   5.298   5.328 -0.0428 -0.0693  0.6821
 2771SOL    HW110245   4.842   5.283   5.418 -0.1470  0.7250  0.8577
 2771SOL    HW210246   4.895   5.302   5.277 -0.0296 -2.1524  0.4419
 2772SOL     OW10247   3.549   5.026   6.628 -0.0729  0.2150 -0.0614
 2772SOL    HW110248   3.481   5.030   6.561 -0.6454 -1.7683  0.3296
 2772SOL    HW210249   3.610   5.095   6.605 -1.1019  0.6295 -1.6835
 2773SOL     OW10250   5.993   1.356   4.577  0.4240 -0.3535  0.1601
 2773SOL    HW110251   5.988   1.328   4.485 -1.8454 -0.3498  0.2235
 2773SOL    HW210252   5.963   1.446   4.576  0.5515 -0.3034  0.8922
 2774SOL     OW10253   4.575   5.444   6.115 -0.1563 -0.5455  0.8156
 2774SOL    HW110254   4.615   5.430   6.029 -0.0439  1.1972  0.5423
 2774SOL    HW210255   4.481   5.446   6.097 -0.1056  0.6001  0.5640
 2775SOL     OW10256   2.385   6.718   6.024 -0.0376 -0.4000  0.1019
 2775SOL    HW110257   2.339   6.802   6.035  0.8337 -0.0406  1.1936
 2775SOL    HW210258   2.381   6.677   6.110  0.0373 -1.2371 -0.2862
 2776SOL     OW10259   4.690   4.481   3.374 -0.5840 -0.2078  0.1618
 2776SOL    HW110260   4.781   4.460   3.350 -1.0419  0.3148 -2.3458
 2776SOL    HW210261   4.638   4.417   3.326 -1.6007  0.0845  0.8569
 2777SOL     OW10262   5.660   3.478   3.074  0.2083 -0.3320 -0.3806
 2777SOL    HW110263   5.663   3.542   3.003  0.1931  0.3402  0.2119
 2777SOL    HW210264   5.747   3.481   3.114 -0.5197  1.1715  1.2272
 2778SOL     OW10265   6.239   5.088   6.277  0.0414 -0.5922 -0.8059
 2778SOL    HW110266   6.309   5.141   6.315 -0.6773 -0.2098  0.0203
 2778SOL    HW210267   6.278   5.049   6.199  0.7832  0.6486 -1.0874
 2779SOL     OW10268   6.988   8.158   2.731 -0.0523 -0.0672  0.0160
 2779SOL    HW110269   7.049   8.099   2.775 -0.9381 -1.3622 -0.4270
 2779SOL    HW210270   6.965   8.224   2.797  0.2556 -0.7536  0.8176
 2780SOL     OW10271   3.057   7.832   4.043  0.3596  0.4319  0.2555
 2780SOL    HW110272   3.022   7.913   4.080 -1.9767  0.1222 -1.0550
 2780SOL    HW210273   3.152   7.845   4.040  0.2640  2.0969  2.3540
 2781SOL     OW10274   1.513   3.128   1.627  0.1486 -0.6908 -0.1356
 2781SOL    HW110275   1.523   3.199   1.564  1.4143 -0.8184 -0.0904
 2781SOL    HW210276   1.515   3.048   1.574  1.1093 -0.7933  0.0507
 2782SOL     OW10277   4.643   8.828   5.463 -0.5120  0.0591  0.0444
 2782SOL    HW110278   4.585   8.903   5.453 -0.6886  0.4092  2.8557
 2782SOL    HW210279   4.729   8.867   5.483 -0.4185 -0.4562  0.7015
 2783SOL     OW10280   6.962   1.004   1.866 -0.2346 -0.4089 -0.1315
 2783SOL    HW110281   6.911   1.075   1.904 -0.9250 -0.8445 -0.2227
 2783SOL    HW210282   6.973   1.028   1.774  1.2393  0.5335  0.2635
 2784SOL     OW10283   0.250   1.791   2.955 -0.3140 -0.4260  0.3768
 2784SOL    HW110284   0.231   1.809   2.862 -1.6433  1.1398  0.9056
 2784SOL    HW210285   0.174   1.743   2.986  0.0293 -0.7435  0.7351
 2785SOL     OW10286   5.934   0.254   6.155  0.1969 -0.4043  0.0100
 2785SOL    HW110287   5.979   0.325   6.108 -0.5326  0.0546 -0.0157
 2785SOL    HW210288   5.979   0.249   6.239  2.4564 -2.1818 -1.2081
 2786SOL     OW10289   4.915   4.419   4.295 -0.1573 -0.0290  0.0776
 2786SOL    HW110290   4.892   4.327   4.311 -0.0752 -0.3616 -1.5844
 2786SOL    HW210291   5.008   4.424   4.317  0.0724 -0.5874 -0.7132
 2787SOL     OW10292   7.032   1.975   2.266 -0.1473  0.0204 -0.0735
 2787SOL    HW110293   7.127   1.978   2.268 -0.1747  0.4912  1.2831
 2787SOL    HW210294   7.005   2.067   2.263 -0.5650 -0.0747  0.5790
 2788SOL     OW10295   3.435   4.639   0.522  0.4929  0.3842 -0.2537
 2788SOL    HW110296   3.401   4.728   0.522  1.4479  0.7720  0.5811
 2788SOL    HW210297   3.498   4.638   0.594  0.3674 -1.0165 -0.1370
 2789SOL     OW10298   1.463   2.515   0.557  0.3378 -0.4552  0.1889
 2789SOL    HW110299   1.419   2.524   0.473  0.6147 -0.7809  0.0093
 2789SOL    HW210300   1.392   2.493   0.618  0.0827  0.1398  0.1138
 2790SOL     OW10301   2.806   1.759   2.355  0.7436  1.0018 -0.3560
 2790SOL    HW110302   2.817   1.728   2.446 -1.7391 -1.8547 -0.8509
 2790SOL    HW210303   2.723   1.806   2.356 -0.2717 -0.6558 -1.3930
 2791SOL     OW10304   4.079   3.427   0.354  0.1049 -0.1361 -0.2881
 2791SOL    HW110305   4.058   3.514   0.322  1.1761  0.0577 -0.5187
 2791SOL    HW210306   4.142   3.442   0.425  0.3285 -0.7186 -0.3555
 2792SOL     OW10307   6.922   5.379   0.419  0.4450  0.2346 -0.6044
 2792SOL    HW110308   6.925   5.421   0.505 -0.7071 -1.4604  0.3058
 2792SOL    HW210309   6.868   5.437   0.366  4.0357  3.2545 -1.4227
 2793SOL     OW10310   2.149   3.944   5.843 -0.4391  0.2533  0.2688
 2793SOL    HW110311   2.173   4.035   5.826 -1.1823  0.2933 -0.6778
 2793SOL    HW210312   2.057   3.948   5.869 -0.4726 -0.2267  0.2411
 2794SOL     OW10313   3.612   8.600   5.183  0.2536  0.0574  0.4966
 2794SOL    HW110314   3.599   8.695   5.187  0.6440  0.0939  1.0820
 2794SOL    HW210315   3.524   8.564   5.168 -0.2652  0.3959  2.4763
 2795SOL     OW10316   0.311   0.014   2.292  0.3320 -0.2071 -0.1453
 2795SOL    HW110317   0.329  -0.017   2.203 -1.0277  0.5945 -0.7441
 2795SOL    HW210318   0.216   0.017   2.297  0.3786  2.0636  0.4820
 2796SOL     OW10319   7.267   8.655   3.267  0.0396 -0.4604  0.4074
 2796SOL    HW110320   7.361   8.651   3.283 -0.0829 -1.4755  0.9841
 2796SOL    HW210321   7.259   8.678   3.174  0.8671 -0.6934  0.2700
 2797SOL     OW10322   4.993   7.798   1.438  0.1466  0.1235  0.2660
 2797SOL    HW110323   4.993   7.855   1.514  1.1128  0.5047 -0.0030
 2797SOL    HW210324   5.070   7.825   1.388  0.4635 -1.2277 -0.0120
 2798SOL     OW10325   0.159   5.384   6.554  0.0931  1.0569 -0.5129
 2798SOL    HW110326   0.170   5.475   6.581 -0.6239  1.0338 -0.1273
 2798SOL    HW210327   0.187   5.333   6.630 -0.4886  0.9746 -0.3476
 2799SOL     OW10328   1.325   7.638   5.310 -0.0439  0.1159  0.1602
 2799SOL    HW110329   1.263   7.624   5.238  0.1568  4.4631 -1.1855
 2799SOL    HW210330   1.279   7.700   5.368  1.2243 -0.4388  1.8216
 2800SOL     OW10331   1.891   1.111   4.551  0.0845  0.1156 -0.3038
 2800SOL    HW110332   1.939   1.059   4.487  0.0497  0.2607 -0.4469
 2800SOL    HW210333   1.852   1.046   4.610  1.2233  0.0120  0.3776
 2801SOL     OW10334   5.972   3.311   0.654 -0.7174 -0.0938 -0.5805
 2801SOL    HW110335   5.930   3.373   0.714 -2.2851 -1.6379  0.0177
 2801SOL    HW210336   6.060   3.346   0.639 -1.2903  1.8304  0.3332
 2802SOL     OW10337   1.308   4.639   6.264 -0.3583 -0.1689  0.1977
 2802SOL    HW110338   1.361   4.682   6.332 -1.0673  0.9930  0.0513
 2802SOL    HW210339   1.293   4.708   6.199 -2.0035 -0.4797  0.2126
 2803SOL     OW10340   4.934   4.318   3.351  0.0807 -0.4922 -0.1707
 2803SOL    HW110341   4.960   4.234   3.312 -2.2326 -1.0021 -0.7986
 2803SOL    HW210342   4.960   4.311   3.443  0.6795 -1.5566 -0.4006
 2804SOL     OW10343   4.261   0.802   4.250 -0.1213  0.7658  0.2987
 2804SOL    HW110344   4.290   0.731   4.192 -1.0153  0.0649  0.6916
 2804SOL    HW210345   4.318   0.794   4.327  0.0082  0.6953  0.1966
 2805SOL     OW10346   5.543   1.061   6.630  0.7971 -0.0814  0.6499
 2805SOL    HW110347   5.528   0.970   6.604 -0.1211  0.0738  0.6213
 2805SOL    HW210348   5.461   1.088   6.672  1.5153  0.3143  1.8714
 2806SOL     OW10349   8.577   0.062   5.900 -0.4730  0.6491 -0.4314
 2806SOL    HW110350   8.569   0.112   5.818 -2.6424 -1.9579 -1.9425
 2806SOL    HW210351   8.490   0.064   5.938  0.3090  1.0781  1.4524
 2807SOL     OW10352   5.560   1.522   1.000  0.2036  0.0921 -0.1692
 2807SOL    HW110353   5.629   1.460   0.978  0.8172  0.4584  0.6651
 2807SOL    HW210354   5.572   1.595   0.939  1.3322  0.6989  0.7318
 2808SOL     OW10355   3.573   2.195   0.478  0.7153 -0.5191  0.2259
 2808SOL    HW110356   3.535   2.201   0.390  0.9426 -0.7753  0.1086
 2808SOL    HW210357   3.503   2.162   0.533 -0.4208  2.4678  0.7772
 2809SOL     OW10358   8.817   4.113   4.186  0.2554  0.0702 -0.2896
 2809SOL    HW110359   8.725   4.101   4.163  0.0620  0.6599  0.1543
 2809SOL    HW210360   8.820   4.199   4.228  1.2589  0.7508 -1.6698
 2810SOL     OW10361   2.694   4.180   8.810  0.2001 -0.2480 -0.0867
 2810SOL    HW110362   2.620   4.134   8.848 -0.1396  0.3282 -0.0411
 2810SOL    HW210363   2.657   4.229   8.737  0.4229  0.5092  0.2993
 2811SOL     OW10364   3.401   1.793   0.866  0.5566  0.5025 -0.6677
 2811SOL    HW110365   3.456   1.846   0.807 -0.5471  0.8459 -1.4173
 2811SOL    HW210366   3.312   1.811   0.837  0.0637 -0.2934  0.3317
 2812SOL     OW10367   0.312   7.982   4.536 -0.4677 -0.0704 -0.2568
 2812SOL    HW110368   0.311   8.076   4.556 -0.5266  0.0427 -0.7678
 2812SOL    HW210369   0.220   7.961   4.516 -0.2374  0.1045 -1.6216
 2813SOL     OW10370   3.025   5.014   4.084  1.2683  0.0385 -0.1076
 2813SOL    HW110371   3.053   5.035   3.995  1.7745  2.2185  0.5039
 2813SOL    HW210372   3.105   5.024   4.137  0.7009  0.0024  0.7727
 2814SOL     OW10373   2.615   5.995   8.581  0.2540  0.5847  0.3566
 2814SOL    HW110374   2.615   6.089   8.563  0.6386  0.2990 -1.3005
 2814SOL    HW210375   2.677   5.958   8.518  1.0880 -0.6516  1.8116
 2815SOL     OW10376   3.775   2.800   5.154 -0.7016  0.6222 -0.8824
 2815SOL    HW110377   3.816   2.882   5.128  2.1885 -0.4794 -0.2707
 2815SOL    HW210378   3.784   2.743   5.077 -0.2340  0.0801 -0.4350
 2816SOL     OW10379   4.329   8.267   8.827 -0.0066 -0.2599 -0.2524
 2816SOL    HW110380   4.352   8.357   8.847  1.4956 -0.9375  1.3676
 2816SOL    HW210381   4.321   8.264   8.732 -0.4829  1.6369 -0.3126
 2817SOL     OW10382   1.451   4.942   3.403 -0.0335  0.1873 -0.0689
 2817SOL    HW110383   1.497   4.866   3.438 -0.1394 -0.4307 -1.2154
 2817SOL    HW210384   1.446   5.004   3.476  2.1704  0.0855  0.2158
 2818SOL     OW10385   4.871   2.944   3.951 -0.2132  0.8416 -0.6579
 2818SOL    HW110386   4.827   3.010   4.005  0.2287 -1.0582  2.2418
 2818SOL    HW210387   4.800   2.891   3.915 -0.4586  0.9774 -0.3808
 2819SOL     OW10388   5.663   1.971   0.512 -0.2198  0.0062 -0.2418
 2819SOL    HW110389   5.745   1.922   0.511  1.1267  2.1387  0.3397
 2819SOL    HW210390   5.675   2.036   0.580 -2.5777  0.1401  0.1067
 2820SOL     OW10391   4.410   0.249   2.528  0.4299 -0.4849 -0.2328
 2820SOL    HW110392   4.440   0.317   2.468  0.0160  0.7046  0.8514
 2820SOL    HW210393   4.321   0.230   2.501  0.1826  0.1755  0.0981
 2821SOL     OW10394   8.791   7.491   0.266  0.3566  0.1217  0.1767
 2821SOL    HW110395   8.808   7.492   0.172 -2.0550  0.0344 -0.3435
 2821SOL    HW210396   8.738   7.413   0.280 -0.1859  0.6744  1.4297
 2822SOL     OW10397   0.582   5.176   3.469 -0.1826  0.5130  0.2586
 2822SOL    HW110398   0.591   5.170   3.374  0.2772  1.3394  0.2342
 2822SOL    HW210399   0.600   5.268   3.489  0.5439  0.1859  1.2218
 2823SOL     OW10400   7.686   5.797   3.781 -0.0103  0.5373  0.0823
 2823SOL    HW110401   7.776   5.773   3.760  0.6844  1.1469  2.0846
 2823SOL    HW210402   7.662   5.738   3.852 -1.5849 -0.2836 -1.0860
 2824SOL     OW10403   1.445   8.046   7.830  0.5690 -0.2686 -0.3277
 2824SOL    HW110404   1.471   8.000   7.750  0.3038  2.1659 -1.9332
 2824SOL    HW210405   1.349   8.039   7.832  0.5048  0.4034 -0.7318
 2825SOL     OW10406   7.958   2.808   0.290 -0.7429  0.4445 -0.4279
 2825SOL    HW110407   8.014   2.857   0.231  2.6851 -1.3682  1.0597
 2825SOL    HW210408   7.891   2.872   0.318  1.3026  3.1635 -1.3191
 2826SOL     OW10409   8.438   4.953   3.929  0.3790  0.1033  0.7515
 2826SOL    HW110410   8.386   4.986   3.856  0.5498 -0.7818  0.2158
 2826SOL    HW210411   8.429   5.019   3.997  0.1080  0.8765 -0.0217
 2827SOL     OW10412   1.837   2.016   0.031 -0.3501 -0.2099  0.8560
 2827SOL    HW110413   1.746   2.032   0.008 -1.0676 -2.6422  1.6706
 2827SOL    HW210414   1.855   2.078   0.102 -1.8313 -0.6007  1.6183
 2828SOL     OW10415   7.522   5.426   6.076  0.1414 -0.1588 -0.3648
 2828SOL    HW110416   7.606   5.380   6.076 -0.4336 -1.2504  0.4644
 2828SOL    HW210417   7.462   5.366   6.032 -0.4229  0.1890 -0.0756
 2829SOL     OW10418   2.729   7.865   7.960  0.0129  0.3039 -0.2022
 2829SOL    HW110419   2.723   7.894   7.869  0.0437  0.7772 -0.0547
 2829SOL    HW210420   2.685   7.780   7.961 -0.8796  0.7607 -0.4533
 2830SOL     OW10421   3.650   5.706   0.258  0.1517 -0.2993 -0.7560
 2830SOL    HW110422   3.583   5.702   0.189 -1.9877  0.5569  1.1566
 2830SOL    HW210423   3.641   5.794   0.294  1.5620 -0.5753  0.3347
 2831SOL     OW10424   1.973   2.189   8.735 -0.3362  0.2934 -0.2924
 2831SOL    HW110425   1.940   2.123   8.796  0.0899  1.0669  0.8166
 2831SOL    HW210426   2.057   2.216   8.773  0.3822  0.1479 -1.7215
 2832SOL     OW10427   4.904   6.362   3.880 -0.2878 -0.4618  0.0251
 2832SOL    HW110428   4.954   6.365   3.799  2.0199 -2.2653  1.2840
 2832SOL    HW210429   4.891   6.454   3.904  2.3042  0.1080 -0.4808
 2833SOL     OW10430   7.434   2.162   1.406 -0.4680 -0.1301  0.1803
 2833SOL    HW110431   7.389   2.246   1.397 -1.9133 -0.9729 -0.7093
 2833SOL    HW210432   7.387   2.102   1.348  0.0050 -1.7741  1.4127
 2834SOL     OW10433   0.496   1.242   8.087 -0.7438 -0.3152  0.7844
 2834SOL    HW110434   0.502   1.172   8.152  0.4643  0.1448  1.1889
 2834SOL    HW210435   0.403   1.243   8.061 -1.1490 -0.8056  2.1538
 2835SOL     OW10436   0.793   2.998   1.375  0.3636 -0.1812 -0.2472
 2835SOL    HW110437   0.879   2.958   1.363  0.4305 -0.1098 -0.0166
 2835SOL    HW210438   0.731   2.926   1.368  0.6037 -0.7294  2.2620
 2836SOL     OW10439   5.982   4.699   0.566 -0.9509 -0.2205  0.2294
 2836SOL    HW110440   6.067   4.742   0.572 -1.5680  1.1017  0.0473
 2836SOL    HW210441   5.998   4.619   0.517  0.3857 -0.5779  1.2143
 2837SOL     OW10442   6.736   1.542   6.464  0.1508  0.3112  0.6585
 2837SOL    HW110443   6.759   1.621   6.416 -1.0359 -0.1329 -0.6946
 2837SOL    HW210444   6.799   1.539   6.536 -1.1362  3.6868  2.1370
 2838SOL     OW10445   5.259   7.110   7.385  0.2257  0.1882 -0.1155
 2838SOL    HW110446   5.197   7.178   7.411  1.6883  1.1280  1.1572
 2838SOL    HW210447   5.322   7.106   7.458  2.3325  0.1490 -1.8231
 2839SOL     OW10448   3.993   2.761   8.137  0.1035 -0.5889 -0.3583
 2839SOL    HW110449   4.065   2.824   8.146 -2.5471  2.8158 -0.5685
 2839SOL    HW210450   3.992   2.739   8.044  2.2787 -2.6835  0.0414
 2840SOL     OW10451   0.256   2.332   3.662 -0.1715 -0.3079  0.1103
 2840SOL    HW110452   0.322   2.390   3.699  1.9107 -2.4122 -0.0634
 2840SOL    HW210453   0.229   2.276   3.735 -0.7813 -0.3425 -0.1335
 2841SOL     OW10454   4.492   1.757   7.180 -0.1877 -0.1554  0.0914
 2841SOL    HW110455   4.537   1.673   7.194  0.3207 -0.0579 -0.8224
 2841SOL    HW210456   4.420   1.757   7.242 -0.4255 -1.4479 -0.1543
 2842SOL     OW10457   4.977   6.872   6.878 -0.4693 -0.1259 -0.0997
 2842SOL    HW110458   4.922   6.931   6.826 -0.8083  0.0442  0.4402
 2842SOL    HW210459   4.932   6.788   6.876  1.1179 -1.0527 -2.7302
 2843SOL     OW10460   1.907   0.452   6.746 -0.2453 -0.1299  0.1719
 2843SOL    HW110461   1.869   0.466   6.833 -1.4747  1.3305 -0.5378
 2843SOL    HW210462   1.836   0.411   6.696 -0.7698  2.0444 -1.0035
 2844SOL     OW10463   0.860   7.792   7.682 -0.8175  0.5853 -0.1420
 2844SOL    HW110464   0.836   7.884   7.692 -0.3164  0.6131  0.9709
 2844SOL    HW210465   0.902   7.769   7.765  1.2355  0.0250 -1.2564
 2845SOL     OW10466   7.207   0.203   0.169  0.0644  0.1965  0.3393
 2845SOL    HW110467   7.272   0.265   0.137 -0.0240 -0.4928 -1.2461
 2845SOL    HW210468   7.244   0.168   0.250  0.9506  0.9260  0.2605
 2846SOL     OW10469   8.134   4.425   6.999 -0.3406  0.0638 -0.2772
 2846SOL    HW110470   8.078   4.481   7.054 -0.4834 -0.1364 -0.2199
 2846SOL    HW210471   8.167   4.484   6.931  1.0293  0.6812  0.8694
 2847SOL     OW10472   6.119   8.283   2.002  0.4533 -0.2567  0.1141
 2847SOL    HW110473   6.129   8.230   1.922 -1.3521  0.0594 -0.3804
 2847SOL    HW210474   6.067   8.358   1.974 -2.1981 -1.2468  1.9674
 2848SOL     OW10475   2.093   3.499   1.715  0.3122  0.1509 -0.1341
 2848SOL    HW110476   2.028   3.560   1.678 -0.0938 -0.2869 -0.1468
 2848SOL    HW210477   2.165   3.556   1.743  0.0669  0.6117 -0.4179
 2849SOL     OW10478   4.475   0.474   5.606  0.1483 -0.1921  0.2004
 2849SOL    HW110479   4.384   0.481   5.580  0.6004  1.4694 -1.1960
 2849SOL    HW210480   4.523   0.522   5.538  2.2790 -2.6384 -0.1989
 2850SOL     OW10481   8.848   5.098   0.056  0.3282 -0.0981  0.1070
 2850SOL    HW110482   8.812   5.039  -0.010 -0.4761 -0.1728  0.6028
 2850SOL    HW210483   8.825   5.058   0.139  0.1172  0.7082  0.4421
 2851SOL     OW10484   2.693   1.440   1.727  0.8303  0.0929  0.1691
 2851SOL    HW110485   2.607   1.410   1.756  0.9080 -0.5861 -0.3009
 2851SOL    HW210486   2.737   1.467   1.808  0.4003 -0.1191  0.4767
 2852SOL     OW10487   4.249   6.848   6.803 -0.2941  0.2436 -0.0872
 2852SOL    HW110488   4.296   6.929   6.820 -0.9590  0.8050 -0.8217
 2852SOL    HW210489   4.171   6.875   6.753 -1.3430 -0.6586  0.9863
 2853SOL     OW10490   6.567   2.540   7.891  0.1249  0.3317 -0.0713
 2853SOL    HW110491   6.560   2.544   7.987 -0.2806 -2.8589  0.1608
 2853SOL    HW210492   6.488   2.493   7.864  1.3370 -0.8877 -1.6824
 2854SOL     OW10493   2.099   8.520   2.021  0.2916 -0.4142 -0.1167
 2854SOL    HW110494   2.039   8.524   1.947  0.1148 -0.8398 -0.0041
 2854SOL    HW210495   2.043   8.524   2.098  0.5450  1.0194  0.0106
 2855SOL     OW10496   7.783   1.230   6.977 -0.3700 -0.0765  0.4649
 2855SOL    HW110497   7.843   1.261   7.044 -2.1381 -0.0091  2.0991
 2855SOL    HW210498   7.783   1.299   6.911  0.2638  0.5793  1.1313
 2856SOL     OW10499   4.866   4.711   8.391  0.0845 -0.4174 -0.4648
 2856SOL    HW110500   4.858   4.806   8.403 -1.5190 -0.1451 -2.9375
 2856SOL    HW210501   4.891   4.701   8.299  0.7526 -2.4141 -0.1115
 2857SOL     OW10502   0.225   7.512   4.920 -0.4890 -0.4468  0.2017
 2857SOL    HW110503   0.203   7.526   4.828  0.4531  0.3606  0.0877
 2857SOL    HW210504   0.294   7.575   4.938  0.0586 -1.3054  1.1930
 2858SOL     OW10505   8.462   7.682   2.375 -0.4952  0.4309  0.0987
 2858SOL    HW110506   8.423   7.734   2.445 -0.5715 -0.8138  1.0055
 2858SOL    HW210507   8.442   7.592   2.398 -0.4468 -0.0174 -1.4887
 2859SOL     OW10508   1.706   6.910   2.686  0.1807 -0.0044 -0.0139
 2859SOL    HW110509   1.611   6.910   2.677 -0.3686  0.1511  3.9844
 2859SOL    HW210510   1.736   6.982   2.632 -1.9429 -0.0740 -1.3861
 2860SOL     OW10511   5.289   2.112   1.422 -0.3077  0.8594  0.1125
 2860SOL    HW110512   5.340   2.150   1.351 -0.8594  1.2460 -0.0855
 2860SOL    HW210513   5.348   2.112   1.497  0.1403  0.8384 -0.2380
 2861SOL     OW10514   4.005   0.894   1.652  0.1158 -0.4578 -0.1308
 2861SOL    HW110515   4.046   0.968   1.608 -1.2940  0.3028 -0.2320
 2861SOL    HW210516   4.077   0.850   1.696  0.9181  1.3606  0.4911
 2862SOL     OW10517   6.862   5.700   3.662 -0.1417  0.7923 -0.2039
 2862SOL    HW110518   6.812   5.704   3.743  0.3339  2.7954  0.0392
 2862SOL    HW210519   6.938   5.646   3.683 -1.2952 -0.8758 -0.1032
 2863SOL     OW10520   0.493   3.105   4.313  0.2147 -0.0176  0.4891
 2863SOL    HW110521   0.461   3.130   4.400  0.8137 -0.3551  0.8173
 2863SOL    HW210522   0.518   3.013   4.323 -0.4776 -0.2918 -0.2705
 2864SOL     OW10523   3.255   1.263   1.769  0.3015  0.6509 -0.8688
 2864SOL    HW110524   3.296   1.289   1.851  1.0827  0.8681 -1.3218
 2864SOL    HW210525   3.324   1.218   1.720 -0.0415  0.8744 -1.5707
 2865SOL     OW10526   8.540   8.189   1.769 -0.2331  0.0255 -0.0064
 2865SOL    HW110527   8.592   8.256   1.816 -1.6199  2.0229 -1.1713
 2865SOL    HW210528   8.474   8.162   1.832  0.2637 -0.1845  0.4361
 2866SOL     OW10529   4.877   2.582   7.841 -0.3292  0.3252 -0.3320
 2866SOL    HW110530   4.939   2.509   7.842 -1.7461 -0.9431  0.9713
 2866SOL    HW210531   4.921   2.651   7.890 -0.2904 -0.9209  1.5202
 2867SOL     OW10532   0.647   3.614   3.270  0.5154  0.4628  0.3821
 2867SOL    HW110533   0.697   3.608   3.352 -1.4993 -0.4325  1.6289
 2867SOL    HW210534   0.603   3.530   3.264  0.4540  0.6076 -1.5573
 2868SOL     OW10535   1.339   2.621   2.983 -0.0187  0.2415 -0.1765
 2868SOL    HW110536   1.389   2.557   3.034 -0.3218 -0.9029 -1.2553
 2868SOL    HW210537   1.266   2.646   3.040 -1.7658 -2.8474 -0.8164
 2869SOL     OW10538   0.741   6.174   3.810  0.0873  0.2229  0.6871
 2869SOL    HW110539   0.765   6.116   3.737 -1.3266 -1.4825  1.5003
 2869SOL    HW210540   0.781   6.258   3.788  0.9012 -0.6265 -1.3329
 2870SOL     OW10541   4.769   8.349   5.846  0.4390 -0.2779 -0.9406
 2870SOL    HW110542   4.705   8.278   5.836 -0.1435 -0.1159  1.0845
 2870SOL    HW210543   4.844   8.308   5.888  0.3466  0.1515 -0.3344
 2871SOL     OW10544   2.045   5.338   4.571 -0.1592  0.4333 -0.0552
 2871SOL    HW110545   1.965   5.285   4.570 -0.9455  1.3110  3.1502
 2871SOL    HW210546   2.116   5.275   4.576 -0.7608 -0.3374 -0.8903
 2872SOL     OW10547   8.638   0.697   5.111  0.0718  0.2945  0.3030
 2872SOL    HW110548   8.581   0.697   5.034  0.6310 -2.0336 -0.2067
 2872SOL    HW210549   8.722   0.664   5.078  0.7206  0.5218  1.6631
 2873SOL     OW10550   8.189   8.071   7.403  0.1322  0.5934  0.2341
 2873SOL    HW110551   8.277   8.103   7.422  0.3240 -0.5583  1.5425
 2873SOL    HW210552   8.138   8.149   7.383  1.3901  1.3065 -0.2902
 2874SOL     OW10553   8.348   3.379   1.844  0.0400  0.4189 -0.6944
 2874SOL    HW110554   8.329   3.468   1.873 -0.2659 -0.2221  1.2220
 2874SOL    HW210555   8.261   3.338   1.835  0.2007 -0.3626  0.8713
 2875SOL     OW10556   2.590   8.518   2.289 -0.4696  0.2414 -0.6377
 2875SOL    HW110557   2.671   8.491   2.244 -0.7977  0.2075 -1.2133
 2875SOL    HW210558   2.520   8.498   2.227 -0.7669  2.0399 -0.9601
 2876SOL     OW10559   4.063   1.170   1.501 -0.1161 -0.4364  0.0875
 2876SOL    HW110560   3.975   1.157   1.465 -0.3066 -2.0694  1.0367
 2876SOL    HW210561   4.113   1.210   1.430 -1.9394  1.8130 -0.0547
 2877SOL     OW10562   4.862   7.990   4.308 -0.1577  0.1098 -0.1747
 2877SOL    HW110563   4.905   8.074   4.295  2.3520 -1.0440 -0.1039
 2877SOL    HW210564   4.880   7.968   4.399 -2.3966  0.2837  0.3550
 2878SOL     OW10565   0.133   1.189   2.310 -1.0720 -0.3361  0.6640
 2878SOL    HW110566   0.048   1.145   2.304 -1.0360 -0.5425  1.5120
 2878SOL    HW210567   0.139   1.242   2.230 -2.0783 -0.1750  0.6852
 2879SOL     OW10568   7.461   3.765   7.240 -0.3192 -0.0670 -0.5979
 2879SOL    HW110569   7.526   3.835   7.243 -1.7578  1.3293 -0.3418
 2879SOL    HW210570   7.502   3.691   7.284  0.6724  1.1396  0.5563
 2880SOL     OW10571   7.340   5.937   6.806 -0.0967  0.0169 -0.0168
 2880SOL    HW110572   7.264   5.922   6.862 -0.5433 -0.7552 -0.8013
 2880SOL    HW210573   7.322   5.885   6.727  0.1356  1.6818 -1.2296
 2881SOL     OW10574   7.684   3.401   8.564 -0.2568  0.9553 -0.3724
 2881SOL    HW110575   7.595   3.373   8.542 -0.4568  1.3655 -0.0829
 2881SOL    HW210576   7.675   3.491   8.592  0.1055  0.6906  0.6322
 2882SOL     OW10577   8.213   0.888   0.786 -0.1881 -0.5671 -0.0985
 2882SOL    HW110578   8.243   0.837   0.862 -0.0180 -0.2904  0.0211
 2882SOL    HW210579   8.249   0.842   0.711  0.3736 -0.3518  0.0334
 2883SOL     OW10580   4.032   2.229   2.710 -0.1152 -1.3644 -0.7216
 2883SOL    HW110581   3.972   2.207   2.638  0.2154 -2.5326 -0.6616
 2883SOL    HW210582   4.086   2.151   2.720  1.8832 -0.1078 -1.2316
 2884SOL     OW10583   4.278   0.208   4.648 -0.6788 -1.0709 -0.3008
 2884SOL    HW110584   4.276   0.177   4.557  0.1811 -0.2306 -0.6172
 2884SOL    HW210585   4.197   0.175   4.686 -1.6948 -0.3269 -1.7429
 2885SOL     OW10586   6.074   3.374   7.401  0.1097 -0.5198 -0.0049
 2885SOL    HW110587   6.036   3.330   7.478 -0.2142  1.8571  1.3050
 2885SOL    HW210588   6.001   3.425   7.365  1.2079  1.7000  0.7121
 2886SOL     OW10589   1.978   6.511   2.608  0.2008  0.1613 -0.2436
 2886SOL    HW110590   1.963   6.441   2.671 -3.4916  0.3712 -0.6547
 2886SOL    HW210591   2.058   6.486   2.562  1.2141 -1.6485  2.2664
 2887SOL     OW10592   0.960   7.250   1.331  0.2655  0.5451 -0.4313
 2887SOL    HW110593   0.918   7.168   1.357  1.0360 -0.6052 -2.5795
 2887SOL    HW210594   1.035   7.259   1.390  0.1584 -0.2966 -0.1570
 2888SOL     OW10595   3.273   5.802   2.202 -0.4420  0.3447 -0.3456
 2888SOL    HW110596   3.277   5.716   2.161  0.6184 -0.4115  1.2702
 2888SOL    HW210597   3.224   5.787   2.283 -1.0456  1.4652 -0.4842
 2889SOL     OW10598   8.381   4.237   0.309 -0.1741 -0.5519  0.4552
 2889SOL    HW110599   8.324   4.297   0.261 -1.6284 -1.4543  0.9736
 2889SOL    HW210600   8.400   4.167   0.247  0.4550 -0.2069  0.2547
 2890SOL     OW10601   1.152   5.239   5.992 -0.0654  0.5435 -0.0948
 2890SOL    HW110602   1.123   5.173   6.055 -0.3787 -0.1851 -0.9940
 2890SOL    HW210603   1.086   5.308   5.998 -0.7411 -0.0585 -0.4603
 2891SOL     OW10604   0.570   7.329   2.135 -0.3698  0.1780  0.4507
 2891SOL    HW110605   0.476   7.345   2.141 -0.5683 -0.9736  0.5081
 2891SOL    HW210606   0.603   7.401   2.080 -1.3401  0.3512  0.0810
 2892SOL     OW10607   8.683   8.016   6.038 -0.2505 -0.0722  0.1338
 2892SOL    HW110608   8.613   7.987   6.096 -0.9548  0.8105 -0.2599
 2892SOL    HW210609   8.760   7.968   6.068 -1.3524 -2.3537 -0.4900
 2893SOL     OW10610   5.143   1.432   1.144  0.0572 -0.3239 -0.0527
 2893SOL    HW110611   5.059   1.440   1.099  0.1112  0.5400 -0.0272
 2893SOL    HW210612   5.206   1.470   1.084  0.3341 -0.3846  0.1967
 2894SOL     OW10613   4.746   5.350   8.678  0.0841  0.1155  0.1191
 2894SOL    HW110614   4.747   5.255   8.668 -0.2211  0.2540 -1.4353
 2894SOL    HW210615   4.747   5.364   8.773  0.3925 -1.4238  0.3647
 2895SOL     OW10616   0.232   0.197   5.298 -0.8987 -0.3069  1.0225
 2895SOL    HW110617   0.196   0.132   5.359 -1.0559 -0.9639  0.2538
 2895SOL    HW210618   0.271   0.264   5.354 -1.2604 -0.7687  1.8421
 2896SOL     OW10619   5.912   7.601   2.724  0.5907 -0.0229  0.1828
 2896SOL    HW110620   5.954   7.661   2.785  0.8906  0.5719 -0.6028
 2896SOL    HW210621   5.827   7.640   2.706  1.1769  0.7259 -1.1140
 2897SOL     OW10622   2.447   5.850   3.836  0.0155 -0.0920 -0.2246
 2897SOL    HW110623   2.386   5.883   3.770 -1.1746 -1.1827  0.2740
 2897SOL    HW210624   2.456   5.757   3.816 -1.2887 -0.7202  1.7670
 2898SOL     OW10625   8.270   8.832   8.392  0.1525 -0.0889 -0.4483
 2898SOL    HW110626   8.328   8.812   8.465 -1.1346 -0.0162  0.6095
 2898SOL    HW210627   8.192   8.870   8.432 -1.2646 -1.5168 -1.6916
 2899SOL     OW10628   3.113   7.975   3.727  0.0781  0.4628 -0.1460
 2899SOL    HW110629   3.076   7.975   3.816  1.7984  0.9232  0.6147
 2899SOL    HW210630   3.194   8.025   3.735  1.0080 -0.7305 -1.6700
 2900SOL     OW10631   6.909   3.589   1.491 -0.1553  0.0201  0.3251
 2900SOL    HW110632   6.979   3.604   1.428  0.7719  1.0051  1.5275
 2900SOL    HW210633   6.845   3.658   1.472  0.9271  1.4109  1.5043
 2901SOL     OW10634   5.041   2.223   7.647  0.1783 -0.3657  0.4060
 2901SOL    HW110635   5.003   2.137   7.663 -1.8583  0.3463 -0.2570
 2901SOL    HW210636   5.030   2.270   7.730  0.0098 -0.3233  0.3619
 2902SOL     OW10637   6.013   0.632   3.862  0.4044  0.7200  0.3029
 2902SOL    HW110638   5.962   0.561   3.823 -1.3625  1.4249  1.1982
 2902SOL    HW210639   6.000   0.706   3.803  0.7202  0.8140  0.3477
 2903SOL     OW10640   5.633   0.459   2.356  0.0219 -0.3983  0.0406
 2903SOL    HW110641   5.555   0.503   2.391 -0.0760 -0.8698  0.4254
 2903SOL    HW210642   5.706   0.509   2.391 -0.1035  0.9567 -1.5127
 2904SOL     OW10643   4.477   0.874   7.692  0.2903 -0.1064  0.2283
 2904SOL    HW110644   4.491   0.787   7.730 -1.0560 -0.4750 -0.0629
 2904SOL    HW210645   4.540   0.878   7.620  1.6562 -0.0811  1.3884
 2905SOL     OW10646   0.367   7.802   1.808 -0.0257 -0.6223  0.0466
 2905SOL    HW110647   0.343   7.861   1.880  0.1560 -0.0854 -0.3258
 2905SOL    HW210648   0.359   7.714   1.845 -1.2357 -0.4071  0.3299
 2906SOL     OW10649   4.133   8.385   5.571 -0.9792  0.2029 -0.2151
 2906SOL    HW110650   4.075   8.443   5.521  0.5359  1.7620 -0.2437
 2906SOL    HW210651   4.114   8.407   5.662 -0.0691  1.1258 -0.2337
 2907SOL     OW10652   7.888   6.588   1.766  0.0758  0.2181 -0.0182
 2907SOL    HW110653   7.823   6.658   1.773  1.2917  1.5554 -1.2134
 2907SOL    HW210654   7.943   6.598   1.843 -1.4149 -1.2949  1.3093
 2908SOL     OW10655   6.315   0.562   0.681  0.3314 -0.5497  0.5281
 2908SOL    HW110656   6.303   0.514   0.763 -2.8733 -2.0218 -0.5952
 2908SOL    HW210657   6.297   0.497   0.613  0.1922  1.2395 -1.2451
 2909SOL     OW10658   0.769   5.408   0.701 -0.3914  0.1885 -0.6096
 2909SOL    HW110659   0.773   5.392   0.795 -0.8035  1.9726 -0.2504
 2909SOL    HW210660   0.857   5.388   0.669 -0.4804 -1.2578 -0.0129
 2910SOL     OW10661   6.885   6.900   1.800  0.2961  0.8478 -0.5439
 2910SOL    HW110662   6.796   6.918   1.830  0.2786  1.8515 -1.1572
 2910SOL    HW210663   6.898   6.959   1.725  0.8765 -0.5006 -1.5349
 2911SOL     OW10664   7.629   8.355   6.420 -0.0607  0.3220  0.3794
 2911SOL    HW110665   7.534   8.347   6.414 -0.1529  0.9550  0.8783
 2911SOL    HW210666   7.643   8.435   6.471  0.7360 -0.0440  0.7484
 2912SOL     OW10667   5.567   5.945   2.378 -0.2935  0.0168 -0.3036
 2912SOL    HW110668   5.525   6.023   2.415  1.1415  1.5991 -1.8348
 2912SOL    HW210669   5.499   5.907   2.321 -1.2805 -0.3634  1.0747
 2913SOL     OW10670   1.283   0.721   1.539  0.3368 -0.1208 -0.2581
 2913SOL    HW110671   1.295   0.626   1.543  2.7390  0.1607  0.4389
 2913SOL    HW210672   1.207   0.732   1.482 -0.2454 -2.4598 -0.0588
 2914SOL     OW10673   3.732   8.537   7.277 -0.0498  0.1574 -0.5515
 2914SOL    HW110674   3.654   8.591   7.264 -0.6723 -0.9052 -1.3045
 2914SOL    HW210675   3.746   8.493   7.194  1.9245  1.0275 -0.7503
 2915SOL     OW10676   6.031   1.628   0.721  0.4177  0.5588  0.7172
 2915SOL    HW110677   6.028   1.535   0.698 -1.5031  0.5808  0.7507
 2915SOL    HW210678   6.125   1.648   0.726  0.8917 -1.5800  1.5967
 2916SOL     OW10679   3.485   4.948   4.304 -0.4626  0.1313 -0.1401
 2916SOL    HW110680   3.462   4.857   4.289  0.6328  0.1407 -2.3072
 2916SOL    HW210681   3.531   4.975   4.224  0.3137  2.2286  0.9181
 2917SOL     OW10682   7.115   1.896   6.305  0.2843 -0.0381  0.2679
 2917SOL    HW110683   7.051   1.903   6.375  0.0943  0.8866  0.0169
 2917SOL    HW210684   7.155   1.983   6.300  0.5033 -0.1729 -0.5660
 2918SOL     OW10685   0.776   3.366   4.309  0.6060 -0.0663  0.1566
 2918SOL    HW110686   0.712   3.415   4.360 -0.1606 -2.0441  1.2403
 2918SOL    HW210687   0.728   3.289   4.278  0.0604  2.2824 -6.3682
 2919SOL     OW10688   4.949   3.484   3.100  0.3262  0.2218 -0.6979
 2919SOL    HW110689   4.880   3.427   3.065  0.8279  0.4534 -2.1297
 2919SOL    HW210690   5.025   3.468   3.044  1.9265 -1.0351  1.6778
 2920SOL     OW10691   0.894   6.684   0.535  0.1675  0.2821  0.2024
 2920SOL    HW110692   0.902   6.590   0.519 -0.7836  0.3620 -0.7669
 2920SOL    HW210693   0.983   6.711   0.561  0.2852 -1.0074  1.2862
 2921SOL     OW10694   0.886   5.005   5.671 -0.4193  0.2874 -0.6479
 2921SOL    HW110695   0.859   5.053   5.749 -0.9259  0.3056 -0.8316
 2921SOL    HW210696   0.955   4.946   5.702 -0.5275  0.3874 -0.2106
 2922SOL     OW10697   2.329   3.586   5.855  0.1402 -0.2592 -0.2747
 2922SOL    HW110698   2.243   3.598   5.895 -0.0491 -0.1261 -0.7181
 2922SOL    HW210699   2.372   3.671   5.866 -0.1116 -0.0607 -0.8295
 2923SOL     OW10700   5.720   1.356   6.194  0.5477 -0.0604 -0.0677
 2923SOL    HW110701   5.647   1.370   6.133  0.0848  1.8769  0.8807
 2923SOL    HW210702   5.686   1.293   6.258 -0.1811  0.5641  0.1664
 2924SOL     OW10703   7.193   5.032   8.228 -0.8290  0.1245 -0.1095
 2924SOL    HW110704   7.176   5.124   8.210 -1.4165  0.4721  1.9288
 2924SOL    HW210705   7.166   4.987   8.148  0.2085  1.7547 -1.4404
 2925SOL     OW10706   5.748   0.400   0.751  0.2304  0.0075 -0.0571
 2925SOL    HW110707   5.781   0.473   0.803  2.0924  0.4366 -1.7073
 2925SOL    HW210708   5.820   0.337   0.750 -0.6328 -1.0011 -0.2409
 2926SOL     OW10709   3.991   5.801   2.240  0.2805 -0.0898  0.5898
 2926SOL    HW110710   3.969   5.758   2.157 -0.9400 -0.5855  1.1363
 2926SOL    HW210711   4.042   5.877   2.215 -2.0603  1.1331 -0.8694
 2927SOL     OW10712   2.135   0.147   3.538  0.1068 -0.4982 -0.5940
 2927SOL    HW110713   2.112   0.104   3.620 -1.0621 -2.0868 -1.6925
 2927SOL    HW210714   2.221   0.186   3.554  0.2067 -1.3606  1.1510
 2928SOL     OW10715   8.639   1.175   0.989  0.8943 -0.0419  0.7682
 2928SOL    HW110716   8.676   1.157   0.902  1.4155 -0.1733  1.0128
 2928SOL    HW210717   8.565   1.233   0.972  1.7597  0.9792  0.3347
 2929SOL     OW10718   8.527   2.153   8.150  0.3137  0.1855 -0.0075
 2929SOL    HW110719   8.467   2.078   8.150  0.5594 -0.0152 -0.1599
 2929SOL    HW210720   8.546   2.168   8.243 -1.8761  1.8131  0.2769
 2930SOL     OW10721   3.532   3.446   7.950  0.2918  0.0031  0.0533
 2930SOL    HW110722   3.606   3.491   7.909  0.8722  0.7266  1.8062
 2930SOL    HW210723   3.571   3.387   8.014 -0.6301  0.2858  0.9059
 2931SOL     OW10724   0.126   5.480   7.821  0.0047 -0.8119 -0.1332
 2931SOL    HW110725   0.091   5.563   7.855 -1.0175 -1.1511 -0.3482
 2931SOL    HW210726   0.200   5.461   7.879  0.8880  0.7490 -0.6911
 2932SOL     OW10727   0.951   0.099   6.561 -0.0848  0.0446 -0.2608
 2932SOL    HW110728   1.026   0.055   6.601  0.2501  0.2243 -0.6781
 2932SOL    HW210729   0.963   0.191   6.584  1.3668  0.5366 -2.6151
 2933SOL     OW10730   6.224   0.410   5.104  0.2708  0.0030  0.2970
 2933SOL    HW110731   6.304   0.442   5.146 -0.6715  1.4892  1.0651
 2933SOL    HW210732   6.224   0.316   5.121  1.3740  0.1258  1.1158
 2934SOL     OW10733   0.407   6.918   2.059  0.0480 -0.1756 -0.0427
 2934SOL    HW110734   0.387   6.825   2.069  0.3528 -0.2242  0.1220
 2934SOL    HW210735   0.323   6.958   2.035  0.0617 -0.6073 -0.8798
 2935SOL     OW10736   6.934   6.916   2.519  0.0850  0.2244  0.5572
 2935SOL    HW110737   6.869   6.884   2.456  1.0319 -0.7830  0.0688
 2935SOL    HW210738   7.010   6.938   2.467  0.1066  1.5656  1.1142
 2936SOL     OW10739   8.472   4.684   0.519 -0.4179 -0.2955 -0.4866
 2936SOL    HW110740   8.505   4.771   0.496  1.5668 -0.7904  0.3366
 2936SOL    HW210741   8.495   4.628   0.445 -0.9811 -0.3045 -0.6625
 2937SOL     OW10742   1.244   0.821   3.212  0.2085  0.1621 -0.1579
 2937SOL    HW110743   1.157   0.855   3.233  0.3802 -0.1165  1.0907
 2937SOL    HW210744   1.239   0.796   3.120 -1.2160 -0.4082  0.0499
 2938SOL     OW10745   3.389   7.236   4.123  0.2429 -0.5742 -0.4649
 2938SOL    HW110746   3.313   7.275   4.168 -1.0364  0.9495 -3.6353
 2938SOL    HW210747   3.447   7.310   4.107  0.7822 -1.1304 -1.0776
 2939SOL     OW10748   7.971   2.738   3.933 -0.2145  0.3569 -0.4558
 2939SOL    HW110749   8.020   2.820   3.941 -0.3248  0.4030 -0.2553
 2939SOL    HW210750   7.951   2.732   3.839  1.7403 -0.5752 -0.8512
 2940SOL     OW10751   8.519   7.262   3.094 -0.1253 -0.7327 -0.0657
 2940SOL    HW110752   8.503   7.340   3.041  1.9885 -1.3529 -1.7449
 2940SOL    HW210753   8.480   7.191   3.044  0.6764 -1.1448 -0.1123
 2941SOL     OW10754   1.327   2.638   0.351  0.4092 -0.4310 -0.0708
 2941SOL    HW110755   1.368   2.710   0.304  0.3143 -0.3576 -0.0418
 2941SOL    HW210756   1.271   2.595   0.286 -0.1226 -0.0131  0.1081
 2942SOL     OW10757   7.437   6.568   3.450 -0.1038  0.8441  0.9108
 2942SOL    HW110758   7.502   6.534   3.390  0.8531  1.8659  1.3264
 2942SOL    HW210759   7.364   6.507   3.445  0.2028  0.5952 -0.8245
 2943SOL     OW10760   6.762   3.772   5.565 -0.1562  0.1682 -0.1206
 2943SOL    HW110761   6.773   3.822   5.645  1.3168  1.1740 -0.9190
 2943SOL    HW210762   6.798   3.827   5.496  0.0463 -1.3207 -1.2713
 2944SOL     OW10763   8.111   7.400   5.497  0.9123  0.0048  0.0341
 2944SOL    HW110764   8.061   7.460   5.552 -0.3526 -0.8812 -0.1124
 2944SOL    HW210765   8.093   7.314   5.533  0.0665 -0.5973 -1.7281
 2945SOL     OW10766   4.434   0.976   6.120 -0.2343  0.2050  0.1147
 2945SOL    HW110767   4.462   0.890   6.090 -1.6017  0.1747 -1.2151
 2945SOL    HW210768   4.378   0.958   6.196  0.3317  0.0153  0.4934
 2946SOL     OW10769   1.698   2.654   1.748  0.2018  0.1601  0.2068
 2946SOL    HW110770   1.763   2.671   1.681  0.0578 -0.1636 -0.0175
 2946SOL    HW210771   1.635   2.726   1.740  0.8546  0.8086  0.8299
 2947SOL     OW10772   5.981   2.428   0.091 -0.4756 -0.1856 -0.5381
 2947SOL    HW110773   5.909   2.372   0.121  0.7427 -1.3217  0.4223
 2947SOL    HW210774   5.992   2.492   0.161 -0.6308  0.0602 -0.7389
 2948SOL     OW10775   7.366   5.510   6.701  0.2191  0.0988  0.3082
 2948SOL    HW110776   7.340   5.456   6.775  1.2427 -2.2488 -0.9509
 2948SOL    HW210777   7.426   5.455   6.651 -0.1832  1.7115 -2.1102
 2949SOL     OW10778   2.238   6.595   0.091  0.1989  0.4857  0.3371
 2949SOL    HW110779   2.218   6.536   0.018  0.4483 -0.5146  1.0444
 2949SOL    HW210780   2.193   6.677   0.070  0.3641  0.2492 -0.9812
 2950SOL     OW10781   7.611   6.529   6.618 -0.2728  0.3386 -0.3523
 2950SOL    HW110782   7.661   6.521   6.536 -0.2160 -2.8312 -0.1284
 2950SOL    HW210783   7.642   6.456   6.672 -1.5102  1.3537  1.8448
 2951SOL     OW10784   5.551   7.068   2.372 -0.4132  0.1779  0.5359
 2951SOL    HW110785   5.525   7.032   2.287  0.1988 -3.5367  1.7781
 2951SOL    HW210786   5.485   7.136   2.389 -0.8512  0.7066 -2.6179
 2952SOL     OW10787   6.087   4.590   3.405  0.4014  0.5578  0.2550
 2952SOL    HW110788   6.129   4.656   3.351  0.8494  0.5184  0.5455
 2952SOL    HW210789   6.101   4.621   3.495 -0.6915  0.8372  0.3344
 2953SOL     OW10790   5.154   8.545   8.314 -0.2964 -0.2524  0.0106
 2953SOL    HW110791   5.216   8.563   8.384 -0.5149 -0.1664  0.1814
 2953SOL    HW210792   5.084   8.610   8.326 -1.4553 -1.6137  1.0607
 2954SOL     OW10793   1.172   2.391   0.988 -0.2663  0.3184  0.1490
 2954SOL    HW110794   1.078   2.371   0.986 -0.2092 -0.0979  1.1463
 2954SOL    HW210795   1.186   2.430   1.074  0.6677 -0.5795  0.4169
 2955SOL     OW10796   7.846   1.297   7.612 -0.4615  0.3818 -0.3882
 2955SOL    HW110797   7.906   1.365   7.643 -0.9318  0.5753  0.1102
 2955SOL    HW210798   7.899   1.218   7.611  0.2987  0.8714 -1.6658
 2956SOL     OW10799   5.280   8.566   5.442  0.3703 -0.1726 -0.6964
 2956SOL    HW110800   5.273   8.623   5.366 -1.3505  0.9461  0.2107
 2956SOL    HW210801   5.242   8.483   5.414 -2.5489  0.9551 -0.4964
 2957SOL     OW10802   1.988   5.239   6.432  0.3226  0.0220 -0.0215
 2957SOL    HW110803   2.070   5.245   6.383  0.0402 -0.0346 -0.5119
 2957SOL    HW210804   1.926   5.199   6.370  0.5545 -2.2518  1.1398
 2958SOL     OW10805   1.127   0.260   8.401  0.2146 -0.3857  0.2028
 2958SOL    HW110806   1.085   0.181   8.435 -2.7387  1.5802  1.5391
 2958SOL    HW210807   1.162   0.304   8.479 -0.3882  0.8124 -0.1855
 2959SOL     OW10808   8.418   0.795   6.303 -0.4211  0.1271 -0.1008
 2959SOL    HW110809   8.408   0.719   6.359  0.0994 -0.0233 -0.2005
 2959SOL    HW210810   8.507   0.826   6.321 -2.0431  3.5962  3.5212
 2960SOL     OW10811   2.216   2.270   1.724  0.7916 -0.7959  0.1846
 2960SOL    HW110812   2.270   2.197   1.756 -0.4522 -1.5990  0.5225
 2960SOL    HW210813   2.216   2.333   1.796  3.0746  0.2828 -0.6461
 2961SOL     OW10814   5.320   4.441   5.899  0.0379  0.3372  0.3284
 2961SOL    HW110815   5.402   4.482   5.926  0.6479 -0.7695  0.1708
 2961SOL    HW210816   5.318   4.452   5.804 -0.6388  1.5090  0.4559
 2962SOL     OW10817   2.954   1.520   7.411  0.1694 -0.0979 -0.1636
 2962SOL    HW110818   3.018   1.590   7.397  0.9656 -0.9202 -0.6416
 2962SOL    HW210819   2.915   1.505   7.325 -2.0036  1.6144  0.4053
 2963SOL     OW10820   2.105   5.596   4.599  0.4920  0.5445 -0.7694
 2963SOL    HW110821   2.055   5.515   4.604  0.5093  0.6004  0.5677
 2963SOL    HW210822   2.109   5.615   4.505 -2.6405  0.9259 -0.9572
 2964SOL     OW10823   5.594   8.366   0.548 -0.2571  0.2619  0.0705
 2964SOL    HW110824   5.582   8.271   0.542  0.8377  0.1950 -1.9412
 2964SOL    HW210825   5.505   8.400   0.561 -0.5859 -1.0446  1.5426
 2965SOL     OW10826   3.196   4.431   4.673  0.3553 -0.4968  0.2687
 2965SOL    HW110827   3.162   4.425   4.762  1.0707  1.4595  0.7332
 2965SOL    HW210828   3.274   4.375   4.672  0.5514 -0.2431  0.9842
 2966SOL     OW10829   1.853   4.925   6.446  0.0373  0.9164  0.0985
 2966SOL    HW110830   1.759   4.913   6.433  0.1985  0.4655 -0.7789
 2966SOL    HW210831   1.873   4.873   6.523  0.2994 -2.9659 -2.2840
 2967SOL     OW10832   6.639   1.065   1.504  0.2978  0.0019 -0.2645
 2967SOL    HW110833   6.546   1.050   1.486  0.5168 -0.8146 -0.7383
 2967SOL    HW210834   6.640   1.142   1.561 -0.6712 -0.0019 -0.2295
 2968SOL     OW10835   1.291   1.898   8.866  0.2645  0.4311  0.5956
 2968SOL    HW110836   1.350   1.828   8.892 -0.4440 -0.5496 -0.3541
 2968SOL    HW210837   1.312   1.915   8.774 -0.5704  0.4219  0.3917
 2969SOL     OW10838   8.497   0.754   7.496  0.3446 -0.1694 -0.0590
 2969SOL    HW110839   8.447   0.748   7.577 -0.4115 -0.3091 -0.5326
 2969SOL    HW210840   8.524   0.665   7.476 -0.3979 -0.2969 -0.5322
 2970SOL     OW10841   4.324   7.159   1.543 -0.2109 -0.0023  0.2711
 2970SOL    HW110842   4.301   7.072   1.574  1.9550 -0.4589  0.7191
 2970SOL    HW210843   4.355   7.146   1.454  1.7131  0.0159  0.9003
 2971SOL     OW10844   0.064   4.290   0.274  0.5530  0.2993 -0.0989
 2971SOL    HW110845   0.156   4.315   0.261  0.6771  0.9767  1.7395
 2971SOL    HW210846   0.064   4.242   0.357 -0.7448  0.1289 -0.1770
 2972SOL     OW10847   7.527   1.146   5.582 -0.1039  0.0620 -0.1734
 2972SOL    HW110848   7.472   1.159   5.504  2.0697  1.2405 -1.6302
 2972SOL    HW210849   7.609   1.192   5.561  0.5824  0.4249  2.8328
 2973SOL     OW10850   3.936   4.483   5.272 -0.4667  0.3832  0.1152
 2973SOL    HW110851   3.964   4.574   5.266  0.5581  0.0973  0.3905
 2973SOL    HW210852   3.929   4.454   5.181 -0.7770  0.7218  0.0267
 2974SOL     OW10853   5.543   3.015   5.053 -0.0249 -0.3396 -0.2302
 2974SOL    HW110854   5.622   3.048   5.009  0.0476 -0.6198 -0.3102
 2974SOL    HW210855   5.559   3.033   5.146  0.7858 -1.7255 -0.0807
 2975SOL     OW10856   5.743   0.974   6.028  0.0539 -0.5273 -0.6341
 2975SOL    HW110857   5.764   0.914   5.957  1.1317  0.4183 -1.1277
 2975SOL    HW210858   5.824   1.020   6.046 -0.5320  0.1555  0.3507
 2976SOL     OW10859   2.070   0.697   4.980  0.4237 -0.1186 -0.1337
 2976SOL    HW110860   2.133   0.630   5.008  0.1619 -1.0484 -1.6540
 2976SOL    HW210861   2.010   0.704   5.054  1.9714  0.4171  1.1450
 2977SOL     OW10862   5.954   0.553   6.481 -0.5136  0.2739 -0.9043
 2977SOL    HW110863   5.957   0.532   6.387  2.0749 -0.6309 -0.7151
 2977SOL    HW210864   6.046   0.567   6.505 -1.0375 -0.2101  1.6547
 2978SOL     OW10865   0.969   4.696   2.203 -0.0743 -0.1450 -0.1748
 2978SOL    HW110866   0.963   4.785   2.236  0.9854  0.6535 -1.9859
 2978SOL    HW210867   0.927   4.642   2.270  1.7438  1.3435  2.3195
 2979SOL     OW10868   1.828   4.005   1.143  0.2346 -0.4503  0.3278
 2979SOL    HW110869   1.780   3.975   1.221 -0.5049 -0.4977 -0.1324
 2979SOL    HW210870   1.773   3.978   1.070 -1.1006  2.9416 -0.0982
 2980SOL     OW10871   8.779   1.526   8.075  0.1553 -0.1850  0.4164
 2980SOL    HW110872   8.778   1.431   8.092 -3.0055 -0.5915 -1.3123
 2980SOL    HW210873   8.739   1.535   7.989 -0.0882  2.7892  0.7540
 2981SOL     OW10874   7.063   8.541   2.418 -0.0233  0.6109  0.0396
 2981SOL    HW110875   6.979   8.498   2.404  0.9616 -1.0003 -1.2769
 2981SOL    HW210876   7.070   8.604   2.347  0.4275 -0.1900 -0.6443
 2982SOL     OW10877   6.044   4.360   5.064  0.1810  0.3481  0.8135
 2982SOL    HW110878   5.988   4.372   5.141 -2.1500 -0.9850 -0.5553
 2982SOL    HW210879   6.096   4.282   5.085 -0.2053  0.1859  1.1956
 2983SOL     OW10880   6.671   6.675   4.667 -0.0960  0.2069  0.1319
 2983SOL    HW110881   6.592   6.714   4.703 -1.0008 -0.5872 -0.9366
 2983SOL    HW210882   6.647   6.650   4.578  2.0621  2.2093 -1.1322
 2984SOL     OW10883   5.916   1.245   6.991 -0.0540  0.0677  0.0923
 2984SOL    HW110884   5.995   1.260   7.044  0.1432 -0.6804  0.0191
 2984SOL    HW210885   5.946   1.258   6.901 -0.6769  2.6342  0.1715
 2985SOL     OW10886   7.367   4.271   6.165 -0.5155  0.1688  0.3887
 2985SOL    HW110887   7.418   4.235   6.093  1.1076 -2.2172  2.5320
 2985SOL    HW210888   7.279   4.236   6.152 -0.4544  0.4558 -0.8622
 2986SOL     OW10889   4.171   0.033   0.604  0.2239 -0.5465  0.5978
 2986SOL    HW110890   4.132   0.119   0.620 -0.2905 -0.7390  0.3835
 2986SOL    HW210891   4.228   0.018   0.680  2.0637  0.9609 -0.3925
 2987SOL     OW10892   1.322   7.732   2.604 -0.0062  0.2263 -0.7955
 2987SOL    HW110893   1.404   7.718   2.556  1.0231 -1.1376  1.2192
 2987SOL    HW210894   1.349   7.772   2.686 -1.5201  0.8546 -0.5750
 2988SOL     OW10895   4.349   1.787   2.099 -0.2239 -0.3967 -0.6625
 2988SOL    HW110896   4.270   1.784   2.044  0.5138 -3.2539 -1.7418
 2988SOL    HW210897   4.319   1.755   2.184 -0.7661  1.3125 -0.1643
 2989SOL     OW10898   0.257   6.148   6.911 -0.1152 -0.3111 -0.2488
 2989SOL    HW110899   0.317   6.134   6.985  0.7712 -1.2890 -1.1192
 2989SOL    HW210900   0.211   6.228   6.934  3.5335  2.2161 -0.7768
 2990SOL     OW10901   2.380   5.948   2.884  0.3281  0.1115 -0.2522
 2990SOL    HW110902   2.320   5.873   2.887  1.6968 -1.0481 -0.8408
 2990SOL    HW210903   2.410   5.952   2.793  1.7255  0.1828  0.1902
 2991SOL     OW10904   8.096   7.430   4.420  0.1665 -0.3338  0.3869
 2991SOL    HW110905   8.131   7.378   4.492  1.7625  0.3517  0.1431
 2991SOL    HW210906   8.097   7.371   4.344  0.6087 -0.3789  0.4294
 2992SOL     OW10907   1.924   5.255   3.355 -0.3495 -0.1962  0.0873
 2992SOL    HW110908   1.842   5.264   3.306 -0.2058 -0.1744 -0.1510
 2992SOL    HW210909   1.970   5.183   3.312  0.1631  0.3845 -0.3681
 2993SOL     OW10910   7.044   2.965   8.440  0.0763  0.0272 -0.1578
 2993SOL    HW110911   6.973   2.975   8.376  0.7415  1.0572 -0.7596
 2993SOL    HW210912   7.008   3.000   8.521 -0.2042  0.2617 -0.3800
 2994SOL     OW10913   8.078   1.811   5.880 -0.1749  0.5171 -0.5969
 2994SOL    HW110914   8.097   1.765   5.962 -0.5200 -0.6304 -1.1354
 2994SOL    HW210915   8.148   1.875   5.871  0.5430 -0.1591 -0.0003
 2995SOL     OW10916   2.320   2.044   6.783  0.3898  0.2913 -0.0427
 2995SOL    HW110917   2.375   2.109   6.739  0.0024  0.1097 -0.8128
 2995SOL    HW210918   2.266   2.095   6.843  0.5628  0.6053 -0.1528
 2996SOL     OW10919   7.499   3.249   4.339  0.2046  0.2874 -0.1865
 2996SOL    HW110920   7.423   3.199   4.309  2.1630 -3.5076  0.5231
 2996SOL    HW210921   7.493   3.246   4.435  1.6448 -0.9430 -0.0898
 2997SOL     OW10922   7.695   7.468   0.277 -0.6031  0.0099 -0.1086
 2997SOL    HW110923   7.649   7.430   0.351 -1.0509  0.1324 -0.3240
 2997SOL    HW210924   7.636   7.456   0.203 -0.1453 -0.1367 -0.4506
 2998SOL     OW10925   3.380   4.302   2.371  0.0578  0.2920  0.6051
 2998SOL    HW110926   3.290   4.274   2.351 -0.0715  0.2852  1.1918
 2998SOL    HW210927   3.389   4.386   2.327 -0.2456  0.3027  0.5579
 2999SOL     OW10928   4.838   3.888   3.646 -0.3727  0.1274 -0.1240
 2999SOL    HW110929   4.899   3.857   3.580 -0.0445  0.6662 -0.0757
 2999SOL    HW210930   4.792   3.809   3.676  1.0365 -0.4426  0.6023
 3000SOL     OW10931   1.124   1.272   1.271  0.3360  0.1737  0.1391
 3000SOL    HW110932   1.169   1.340   1.320  1.6222 -0.1398 -0.5691
 3000SOL    HW210933   1.033   1.302   1.267  0.2161  0.2755  2.5471
 3001SOL     OW10934   0.840   0.843   7.628 -0.3505 -0.1676  0.5706
 3001SOL    HW110935   0.905   0.872   7.692  2.2135  0.1906 -1.9749
 3001SOL    HW210936   0.803   0.763   7.666 -0.0299  0.7726  3.0685
 3002SOL     OW10937   6.612   2.536   8.158 -0.6116  0.1426  0.2337
 3002SOL    HW110938   6.693   2.488   8.177  0.5080  1.5830 -0.6877
 3002SOL    HW210939   6.577   2.560   8.244 -0.7600 -1.5515  0.6820
 3003SOL     OW10940   1.998   7.282   8.072 -0.3393  0.0781  0.3690
 3003SOL    HW110941   2.013   7.224   7.997 -1.8755 -1.0977  0.9049
 3003SOL    HW210942   2.010   7.225   8.148  1.8952  1.4181  1.1014
 3004SOL     OW10943   6.484   1.452   6.497 -0.1898 -0.0909  0.6701
 3004SOL    HW110944   6.479   1.361   6.525 -0.7952  0.5166  2.7055
 3004SOL    HW210945   6.575   1.463   6.468 -0.1291 -1.3418  0.3344
 3005SOL     OW10946   8.507   7.759   7.930  0.9280  0.2767  0.3453
 3005SOL    HW110947   8.465   7.675   7.910  1.4206 -0.1732  1.1273
 3005SOL    HW210948   8.597   7.749   7.898  1.0284  0.4436  0.5747
 3006SOL     OW10949   7.289   0.245   6.104  0.2079 -0.2665 -0.2911
 3006SOL    HW110950   7.206   0.265   6.062  1.7285 -0.6045 -3.8330
 3006SOL    HW210951   7.333   0.330   6.112 -0.5641 -0.0269  1.9836
 3007SOL     OW10952   6.918   1.203   0.395 -0.4373 -0.4062  0.8606
 3007SOL    HW110953   6.948   1.232   0.481 -0.2318  3.2907 -0.2896
 3007SOL    HW210954   6.993   1.219   0.337 -1.8861  1.2811 -0.6686
 3008SOL     OW10955   3.584   2.974   8.643  0.3789 -0.0392  0.1975
 3008SOL    HW110956   3.667   2.987   8.689 -0.1892 -0.9476  1.5506
 3008SOL    HW210957   3.526   2.934   8.708 -1.2177  0.8167 -0.6315
 3009SOL     OW10958   4.392   0.107   3.452  0.3497  0.3610 -0.1143
 3009SOL    HW110959   4.333   0.090   3.379  0.4934  0.7144 -0.3136
 3009SOL    HW210960   4.477   0.074   3.422 -0.0760 -1.7472  0.8242
 3010SOL     OW10961   4.730   1.975   5.900  0.0536 -0.3069 -0.3619
 3010SOL    HW110962   4.687   2.043   5.849 -0.5896 -1.5724 -1.5603
 3010SOL    HW210963   4.659   1.934   5.949  0.6887  1.1231  1.9757
 3011SOL     OW10964   0.168   7.954   5.573  0.1882 -0.0310  0.3796
 3011SOL    HW110965   0.204   7.871   5.541 -0.8585 -0.2866 -0.2161
 3011SOL    HW210966   0.243   8.011   5.584  1.0146 -1.2502  1.4104
 3012SOL     OW10967   6.835   5.352   4.586  0.2544 -0.1757 -0.1472
 3012SOL    HW110968   6.803   5.417   4.648  2.1344 -0.1431  0.8635
 3012SOL    HW210969   6.800   5.380   4.501 -0.3341  1.1876  0.5188
 3013SOL     OW10970   7.606   8.823   4.464  0.0604  0.2444 -0.2560
 3013SOL    HW110971   7.536   8.766   4.495  2.0879 -2.1783  0.1949
 3013SOL    HW210972   7.562   8.888   4.410 -2.4488 -1.5871 -0.5821
 3014SOL     OW10973   8.371   0.277   4.801  0.4148 -0.3896 -0.0407
 3014SOL    HW110974   8.418   0.212   4.749  2.2595  1.6101 -1.0556
 3014SOL    HW210975   8.440   0.323   4.850 -0.4296  2.3622 -1.2260
 3015SOL     OW10976   8.230   1.013   8.237 -0.0756  0.1106 -0.5086
 3015SOL    HW110977   8.156   0.988   8.182 -0.6577 -0.3223  0.4474
 3015SOL    HW210978   8.284   1.069   8.181 -1.3244  0.7659 -1.0900
 3016SOL     OW10979   2.861   4.381   6.049 -0.4600 -0.1283  0.2371
 3016SOL    HW110980   2.849   4.342   5.963  1.4853  0.2186 -0.2264
 3016SOL    HW210981   2.910   4.315   6.099  1.2402  0.9046  0.0178
 3017SOL     OW10982   0.594   2.850   4.399  0.1012 -0.1453 -0.0390
 3017SOL    HW110983   0.568   2.831   4.489 -0.3803 -1.6088 -0.4582
 3017SOL    HW210984   0.546   2.786   4.346  1.3046 -0.1103 -1.2303
 3018SOL     OW10985   3.589   2.878   2.547 -0.1271  0.1820 -0.0873
 3018SOL    HW110986   3.652   2.926   2.494 -0.4231 -1.2963 -1.8924
 3018SOL    HW210987   3.572   2.934   2.622  0.1069  2.5320 -1.6990
 3019SOL     OW10988   0.776   1.896   4.734 -0.1908 -0.6219  0.1956
 3019SOL    HW110989   0.855   1.859   4.694  0.2079  0.7740 -0.3333
 3019SOL    HW210990   0.756   1.835   4.806  0.0885 -2.1925 -1.0078
 3020SOL     OW10991   8.596   8.350   2.665  0.4744  0.4492  0.3710
 3020SOL    HW110992   8.524   8.403   2.632  2.0974  2.1318 -0.6448
 3020SOL    HW210993   8.555   8.265   2.686 -2.1527  1.9412  1.8404
 3021SOL     OW10994   4.624   7.920   3.516 -0.1083 -0.0098  0.5755
 3021SOL    HW110995   4.554   7.969   3.473 -0.6844 -0.4989  0.9407
 3021SOL    HW210996   4.601   7.922   3.609  0.9949  0.8274  0.8562
 3022SOL     OW10997   6.567   4.278   2.411  0.8221 -0.0864  0.5506
 3022SOL    HW110998   6.551   4.224   2.334 -0.9851  1.1071  0.0368
 3022SOL    HW210999   6.662   4.292   2.411  1.4233 -3.2816  0.8061
 3023SOL     OW11000   2.511   2.621   0.833 -0.5235 -0.2594 -0.0743
 3023SOL    HW111001   2.466   2.573   0.764 -2.1291  0.9199  0.1018
 3023SOL    HW211002   2.462   2.703   0.842  1.4087  0.9156  0.4557
 3024SOL     OW11003   1.958   8.811   4.667 -0.5116  0.7039 -0.7227
 3024SOL    HW111004   2.011   8.808   4.587 -0.4272 -0.0182 -0.6410
 3024SOL    HW211005   1.976   8.898   4.704 -0.0112  0.7759 -1.1241
 3025SOL     OW11006   1.350   7.811   4.513  0.1332  0.6434  0.4539
 3025SOL    HW111007   1.378   7.788   4.602 -1.9172 -1.6082  0.6233
 3025SOL    HW211008   1.422   7.782   4.457 -0.0089 -1.1871  1.1535
 3026SOL     OW11009   0.020   1.910   8.489  0.5218 -0.0730 -0.4487
 3026SOL    HW111010  -0.063   1.952   8.467 -0.0381 -0.7728  0.2804
 3026SOL    HW211011   0.013   1.822   8.450 -0.2674 -1.1492  1.8926
 3027SOL     OW11012   3.554   1.045   3.844 -0.6760 -0.1070  0.3288
 3027SOL    HW111013   3.612   0.969   3.841 -0.3449  0.0637  1.6618
 3027SOL    HW211014   3.542   1.070   3.752 -0.9844 -1.9055 -0.1564
 3028SOL     OW11015   4.759   2.999   0.176  0.0493  0.3843 -0.0461
 3028SOL    HW111016   4.818   3.022   0.104 -0.1312 -1.5044 -0.8642
 3028SOL    HW211017   4.816   2.995   0.253  0.3152  2.0472 -0.1125
 3029SOL     OW11018   1.842   3.916   4.640  0.0500  0.4794 -0.0966
 3029SOL    HW111019   1.765   3.873   4.603 -0.3170  0.9859  0.0580
 3029SOL    HW211020   1.912   3.852   4.633 -0.9709 -0.9865  2.1971
 3030SOL     OW11021   3.116   6.415   5.829 -0.1628  0.3019 -0.4542
 3030SOL    HW111022   3.083   6.503   5.848  0.3490  0.4502 -0.2253
 3030SOL    HW211023   3.089   6.362   5.904  1.9148  0.9019  0.8168
 3031SOL     OW11024   2.490   7.624   6.866  0.4330  0.3197 -0.3762
 3031SOL    HW111025   2.496   7.588   6.777 -0.3174 -1.2216  0.1576
 3031SOL    HW211026   2.569   7.593   6.909  0.2405  0.0827 -0.1883
 3032SOL     OW11027   7.788   7.330   2.023  0.1327  0.5248  0.4108
 3032SOL    HW111028   7.774   7.425   2.023 -4.1699  0.0929  0.8716
 3032SOL    HW211029   7.777   7.303   1.932  0.4658  0.3444  0.4196
 3033SOL     OW11030   8.723   1.513   1.609  0.1431 -0.4062 -0.3385
 3033SOL    HW111031   8.722   1.533   1.515  0.4658 -1.2765 -0.5371
 3033SOL    HW211032   8.814   1.525   1.635  0.3339 -1.5057 -0.4513
 3034SOL     OW11033   5.511   8.741   7.294  0.5117 -0.1925 -0.2170
 3034SOL    HW111034   5.512   8.715   7.202  1.0469 -2.9348  0.4505
 3034SOL    HW211035   5.431   8.702   7.329  0.4248  0.6242  0.5189
 3035SOL     OW11036   3.964   2.014   2.415 -0.2656  0.0466  0.0133
 3035SOL    HW111037   3.903   2.043   2.482  2.1281  1.0624  1.9075
 3035SOL    HW211038   4.012   1.941   2.454  0.6382  0.1356 -0.8737
 3036SOL     OW11039   4.420   8.773   8.422 -0.6278  0.5740  0.1143
 3036SOL    HW111040   4.437   8.823   8.502  2.0948  0.3362 -0.2311
 3036SOL    HW211041   4.425   8.838   8.352 -3.7676  0.9297  0.0766
 3037SOL     OW11042   5.230   5.122   3.327  0.6980 -0.1945  0.3804
 3037SOL    HW111043   5.163   5.177   3.286  0.8171 -0.1033  0.3078
 3037SOL    HW211044   5.195   5.103   3.414  0.7214  0.1178  0.4598
 3038SOL     OW11045   3.945   3.320   0.153  0.6612 -0.8704 -0.0987
 3038SOL    HW111046   4.015   3.342   0.215 -0.1076 -0.4285  0.6243
 3038SOL    HW211047   3.864   3.332   0.202 -0.0208  0.4924 -1.4868
 3039SOL     OW11048   5.843   4.104   5.775 -0.2294 -0.1366 -0.4845
 3039SOL    HW111049   5.772   4.043   5.795 -0.6149  0.6364  0.5898
 3039SOL    HW211050   5.848   4.161   5.852  1.0065  0.3499 -0.9008
 3040SOL     OW11051   7.808   0.399   0.585  0.0063 -0.8170 -0.1065
 3040SOL    HW111052   7.819   0.399   0.680  0.2731 -0.2950 -0.1343
 3040SOL    HW211053   7.895   0.377   0.551  0.4616  1.0294 -0.2686
 3041SOL     OW11054   3.490   2.817   2.085  0.2542  0.4880 -0.1335
 3041SOL    HW111055   3.551   2.777   2.146  1.4145 -0.6829 -1.9512
 3041SOL    HW211056   3.545   2.862   2.021 -0.8814  1.2442 -0.6148
 3042SOL     OW11057   2.929   5.663   8.628  0.2191  0.2361 -0.4052
 3042SOL    HW111058   2.852   5.690   8.579  1.3458  0.5664 -2.0927
 3042SOL    HW211059   2.948   5.736   8.687  0.4793  1.0952 -1.5282
 3043SOL     OW11060   4.845   3.692   7.808 -0.0456  0.4659 -0.0990
 3043SOL    HW111061   4.858   3.639   7.887 -2.4547  0.9367  0.7057
 3043SOL    HW211062   4.906   3.765   7.817 -0.1091  0.3832  1.2257
 3044SOL     OW11063   6.378   0.242   7.579 -0.2939 -0.0432 -0.0079
 3044SOL    HW111064   6.284   0.260   7.568 -0.7039 -1.8827  0.1798
 3044SOL    HW211065   6.417   0.329   7.590 -1.8648  0.8303 -0.7996
 3045SOL     OW11066   4.875   1.427   1.331 -0.4711  0.0031  0.2756
 3045SOL    HW111067   4.969   1.412   1.346 -0.6220 -0.4115  0.8488
 3045SOL    HW211068   4.872   1.493   1.262  0.2430 -0.2404  0.0035
 3046SOL     OW11069   8.669   7.981   1.676  0.0111 -0.2835 -0.0189
 3046SOL    HW111070   8.619   7.903   1.699 -0.8602  0.6284  1.3426
 3046SOL    HW211071   8.619   8.054   1.714  1.2569  0.8560 -0.4689
 3047SOL     OW11072   1.958   3.816   6.475 -0.6608 -0.7487 -0.5335
 3047SOL    HW111073   2.014   3.746   6.442  0.4146 -1.0066  1.6582
 3047SOL    HW211074   1.875   3.805   6.429  0.7467 -0.9418 -3.1877
 3048SOL     OW11075   5.442   5.703   6.706 -0.3531 -0.0777  0.1961
 3048SOL    HW111076   5.433   5.791   6.669  0.4924  0.7632  1.8417
 3048SOL    HW211077   5.384   5.704   6.783 -0.8687 -1.2151 -0.1617
 3049SOL     OW11078   1.507   4.973   2.110 -0.2863  0.4695  0.1786
 3049SOL    HW111079   1.599   4.950   2.100 -0.8444 -1.6830 -0.3665
 3049SOL    HW211080   1.459   4.901   2.070 -2.2439  0.8793  1.6340
 3050SOL     OW11081   4.286   2.897   7.501  0.3791 -0.4754  0.2362
 3050SOL    HW111082   4.333   2.950   7.436  2.0655 -0.0182  1.7223
 3050SOL    HW211083   4.276   2.812   7.460 -0.6785  0.4310 -1.4890
 3051SOL     OW11084   2.222   3.553   5.291 -0.2213 -0.9233  0.0182
 3051SOL    HW111085   2.126   3.553   5.290 -0.2873 -3.1478  1.2837
 3051SOL    HW211086   2.246   3.495   5.363  2.1075 -0.4893 -0.3204
 3052SOL     OW11087   0.344   3.618   4.257  0.8330  0.3061 -0.1481
 3052SOL    HW111088   0.344   3.713   4.248  0.3268  0.5668  2.1016
 3052SOL    HW211089   0.254   3.595   4.277  1.3794 -0.3038  1.9196
 3053SOL     OW11090   1.204   8.667   6.462  0.1131  0.2103  0.3293
 3053SOL    HW111091   1.234   8.582   6.494 -0.6148 -0.0470  0.3598
 3053SOL    HW211092   1.216   8.726   6.537  0.2053  0.0340  0.4555
 3054SOL     OW11093   5.092   8.871   3.568  0.4562  0.2084  0.4974
 3054SOL    HW111094   5.028   8.830   3.626  0.0913 -0.1783 -0.1804
 3054SOL    HW211095   5.046   8.884   3.486  0.7344  1.4689  0.5133
 3055SOL     OW11096   3.593   7.979   4.338 -0.2443 -0.6646  0.2413
 3055SOL    HW111097   3.553   8.043   4.397  0.9977  0.2977  0.0919
 3055SOL    HW211098   3.577   8.014   4.250  0.4914 -0.5208  0.1613
 3056SOL     OW11099   3.916   6.793   1.955  0.0072 -0.2805  0.0921
 3056SOL    HW111100   3.873   6.878   1.960 -1.4867 -0.7634 -2.5953
 3056SOL    HW211101   3.981   6.794   2.025  1.0554  3.6143 -0.7464
 3057SOL     OW11102   5.469   2.703   7.151 -0.3736  0.1868  0.5897
 3057SOL    HW111103   5.533   2.716   7.221 -1.1397 -0.6293  1.4561
 3057SOL    HW211104   5.487   2.775   7.090  1.5091 -0.1443  0.6789
 3058SOL     OW11105   1.531   4.852   5.461  0.4014  0.0795 -0.0394
 3058SOL    HW111106   1.592   4.829   5.531  0.8838  0.9362 -0.1558
 3058SOL    HW211107   1.571   4.815   5.382 -0.2901 -1.1394  0.1593
 3059SOL     OW11108   2.798   4.907   8.471  0.4898  0.1370 -0.1087
 3059SOL    HW111109   2.796   4.996   8.507 -0.6866 -0.7113  2.0783
 3059SOL    HW211110   2.822   4.920   8.379 -1.0454  2.8481 -0.2427
 3060SOL     OW11111   4.767   3.814   5.211 -0.5129 -0.2169  0.3431
 3060SOL    HW111112   4.778   3.847   5.300 -1.1486  0.3776  0.2064
 3060SOL    HW211113   4.673   3.803   5.201 -0.4251 -0.5665 -0.1604
 3061SOL     OW11114   0.795   1.061   8.175  0.3237 -0.7282  0.0237
 3061SOL    HW111115   0.730   1.054   8.244 -0.7898  0.5734 -0.8260
 3061SOL    HW211116   0.879   1.059   8.220 -0.3682  0.2915  1.4443
 3062SOL     OW11117   4.025   7.768   3.248 -0.2307 -0.1652  0.5445
 3062SOL    HW111118   4.085   7.704   3.286  0.4294  0.3585  0.3857
 3062SOL    HW211119   4.078   7.846   3.233 -0.6537 -0.0956 -0.7351
 3063SOL     OW11120   3.575   3.644   3.054  0.3867  0.0087 -0.1054
 3063SOL    HW111121   3.622   3.726   3.070  0.7140  0.2501 -1.9756
 3063SOL    HW211122   3.492   3.672   3.014  0.5762 -0.5547 -0.9197
 3064SOL     OW11123   3.465   2.245   8.500 -0.0333  0.0473  0.3470
 3064SOL    HW111124   3.532   2.312   8.488  0.5860 -0.6142 -0.0060
 3064SOL    HW211125   3.514   2.167   8.526 -0.3458 -1.1053 -2.1751
 3065SOL     OW11126   0.104   3.096   3.723 -0.0177 -0.2025  0.7423
 3065SOL    HW111127   0.020   3.099   3.767 -0.4032  1.8756 -0.0094
 3065SOL    HW211128   0.124   3.003   3.715 -1.0867 -0.6852  3.0387
 3066SOL     OW11129   1.914   5.937   0.959  0.0193 -0.3010  0.1689
 3066SOL    HW111130   1.827   5.943   0.999  0.2866 -0.3835  0.7807
 3066SOL    HW211131   1.945   6.027   0.955 -0.8369 -0.0656 -1.7637
 3067SOL     OW11132   3.029   6.308   0.863  0.2954 -0.2548  0.3749
 3067SOL    HW111133   2.998   6.394   0.891  1.5016  1.1035 -2.0702
 3067SOL    HW211134   3.118   6.323   0.832  0.9215 -2.6235  0.7850
 3068SOL     OW11135   6.652   1.572   0.397  0.5683 -0.2925  0.2349
 3068SOL    HW111136   6.703   1.628   0.455 -0.8454  1.1213  0.1901
 3068SOL    HW211137   6.674   1.603   0.309  1.0254 -0.9391  0.1144
 3069SOL     OW11138   1.292   3.571   1.089 -0.0836 -0.6006  0.0946
 3069SOL    HW111139   1.202   3.553   1.114  0.2055 -1.1889  0.7547
 3069SOL    HW211140   1.324   3.488   1.053 -0.1348 -0.0888 -1.1709
 3070SOL     OW11141   3.331   8.029   4.819  0.2144 -0.0123 -0.1609
 3070SOL    HW111142   3.266   8.097   4.807 -0.1441 -0.3509 -0.1433
 3070SOL    HW211143   3.415   8.072   4.799  0.2029  0.9555  1.6531
 3071SOL     OW11144   5.334   2.372   3.020  0.1477 -0.0231 -0.4164
 3071SOL    HW111145   5.344   2.466   3.008 -1.0552  0.0773 -0.7480
 3071SOL    HW211146   5.410   2.346   3.073 -0.6713  1.5120  1.6490
 3072SOL     OW11147   3.967   1.777   3.440  1.1635  0.2135  0.3233
 3072SOL    HW111148   4.037   1.797   3.377  1.1977  1.7286  0.7927
 3072SOL    HW211149   3.983   1.837   3.513  1.5848 -2.0082  2.1884
 3073SOL     OW11150   2.691   6.744   3.842  0.1438 -0.3727 -0.2383
 3073SOL    HW111151   2.753   6.800   3.890  1.3014 -0.9042 -1.0680
 3073SOL    HW211152   2.634   6.805   3.797 -1.4751  0.1779  2.3266
 3074SOL     OW11153   8.352   2.859   4.994  0.3717 -0.0580  0.3069
 3074SOL    HW111154   8.349   2.954   4.987  0.0052 -0.0275  0.8313
 3074SOL    HW211155   8.277   2.837   5.050 -0.5989 -0.7932 -1.2119
 3075SOL     OW11156   2.162   1.364   4.150  0.5087 -0.2076  0.0183
 3075SOL    HW111157   2.144   1.272   4.168 -0.4823 -0.1974 -0.8085
 3075SOL    HW211158   2.172   1.368   4.055  0.6389  0.5159  0.0564
 3076SOL     OW11159   3.582   8.484   8.796  0.3212 -0.8470 -0.0184
 3076SOL    HW111160   3.654   8.513   8.739  0.8069  0.2146  1.0953
 3076SOL    HW211161   3.612   8.401   8.831  0.1914 -1.3181 -0.9930
 3077SOL     OW11162   7.922   0.825   4.733  0.9165 -0.4321 -0.2152
 3077SOL    HW111163   7.942   0.749   4.789  0.1976 -0.7945 -0.4321
 3077SOL    HW211164   7.876   0.886   4.792 -0.8573 -1.2916 -0.6404
 3078SOL     OW11165   4.046   8.617   5.436 -0.4549 -0.2985  0.0357
 3078SOL    HW111166   4.006   8.689   5.387 -0.4645  0.2374  0.8098
 3078SOL    HW211167   4.104   8.574   5.373  1.5940  1.9794  0.2217
 3079SOL     OW11168   4.058   7.904   5.091  0.6918  0.6819 -0.5977
 3079SOL    HW111169   3.975   7.927   5.049 -0.0196 -0.7203 -0.0226
 3079SOL    HW211170   4.036   7.892   5.183  1.3599 -0.4549 -0.5629
 3080SOL     OW11171   7.383   0.846   0.062 -0.1380  0.3432 -0.2740
 3080SOL    HW111172   7.441   0.816  -0.008  0.3270  1.8000 -0.5443
 3080SOL    HW211173   7.379   0.941   0.050 -1.7730  0.3755  0.3682
 3081SOL     OW11174   5.083   2.184   2.073 -0.2033 -0.5430 -0.5548
 3081SOL    HW111175   5.080   2.273   2.037  1.1139  0.0380  0.6926
 3081SOL    HW211176   5.050   2.194   2.162 -0.4277 -1.4038 -0.5312
 3082SOL     OW11177   5.988   6.818   1.493 -0.4723 -0.1299  0.1268
 3082SOL    HW111178   5.994   6.883   1.423 -0.8708  0.1776  0.3762
 3082SOL    HW211179   5.904   6.775   1.479 -0.0748 -0.8145 -0.2213
 3083SOL     OW11180   2.699   3.578   8.342 -0.1266  0.3724  0.7100
 3083SOL    HW111181   2.605   3.564   8.330 -0.2452  0.8747  1.0129
 3083SOL    HW211182   2.723   3.638   8.272 -0.4211  1.7284  1.7172
 3084SOL     OW11183   5.197   1.701   0.153 -0.0785 -0.5730  0.3018
 3084SOL    HW111184   5.222   1.671   0.240 -0.4911  0.7121  0.8725
 3084SOL    HW211185   5.126   1.763   0.168  0.6054  0.5409 -0.8622
 3085SOL     OW11186   4.662   0.868   6.502 -0.1698  0.0430 -0.0935
 3085SOL    HW111187   4.705   0.952   6.487  2.3592 -1.4417 -2.1446
 3085SOL    HW211188   4.644   0.866   6.596  3.2928  1.3741  0.7557
 3086SOL     OW11189   4.108   5.728   2.939  0.3431 -0.4834 -0.4480
 3086SOL    HW111190   4.073   5.729   3.028  0.7388  0.0379 -0.2946
 3086SOL    HW211191   4.157   5.646   2.934  0.6623 -0.3207 -0.0483
 3087SOL     OW11192   0.173   1.193   6.371 -0.1332 -0.0586  0.6102
 3087SOL    HW111193   0.222   1.222   6.294 -0.2062  0.3011  0.6983
 3087SOL    HW211194   0.124   1.271   6.399  0.3467 -0.0291  1.3781
 3088SOL     OW11195   3.368   5.370   6.560  0.2321 -1.0684  0.2975
 3088SOL    HW111196   3.329   5.337   6.479 -0.2889  1.1770 -0.4254
 3088SOL    HW211197   3.444   5.420   6.532  0.2394 -0.5456  1.2298
 3089SOL     OW11198   8.351   4.568   2.945 -0.1861 -0.2361 -0.1120
 3089SOL    HW111199   8.430   4.546   2.995 -0.8173 -0.0076  1.0133
 3089SOL    HW211200   8.384   4.617   2.869  0.7825 -0.4946  0.1250
 3090SOL     OW11201   5.027   7.078   1.274  0.4685  0.0363 -0.1104
 3090SOL    HW111202   4.951   7.024   1.295 -0.5810  0.1285 -3.1438
 3090SOL    HW211203   5.100   7.016   1.266  0.4239 -0.2368  1.3161
 3091SOL     OW11204   1.443   0.793   7.526  0.4092  0.2428  0.7040
 3091SOL    HW111205   1.395   0.803   7.608  0.9328 -1.7218  1.3044
 3091SOL    HW211206   1.389   0.839   7.461 -0.6836  0.7144  1.8937
 3092SOL     OW11207   6.486   8.501   7.239  0.1497  0.1287  0.4412
 3092SOL    HW111208   6.391   8.509   7.251  0.3345  0.5230  1.8210
 3092SOL    HW211209   6.523   8.570   7.295  1.2822 -0.6437  0.6815
 3093SOL     OW11210   7.500   6.974   2.613  0.0921 -0.0653 -0.0588
 3093SOL    HW111211   7.552   7.044   2.575  0.4227 -0.1923  0.1600
 3093SOL    HW211212   7.442   6.946   2.542  0.7460 -0.3410 -0.4858
 3094SOL     OW11213   7.145   2.872   7.905  0.0849  0.6450  0.0396
 3094SOL    HW111214   7.190   2.928   7.968 -0.0857 -1.1479  1.8299
 3094SOL    HW211215   7.053   2.898   7.909 -0.3295 -0.9042  2.2641
 3095SOL     OW11216   5.980   5.632   2.752 -0.6221  0.3911 -0.1916
 3095SOL    HW111217   6.044   5.612   2.683  0.7412 -0.3639  1.2351
 3095SOL    HW211218   5.914   5.563   2.745  0.6758 -0.9789  0.6201
 3096SOL     OW11219   8.310   2.889   8.054 -0.6119 -0.2714  0.0160
 3096SOL    HW111220   8.306   2.922   8.144  0.6540 -0.2732  0.0860
 3096SOL    HW211221   8.339   2.964   8.002 -1.1775 -0.3183 -0.3702
 3097SOL     OW11222   1.212   3.801   2.351 -0.0165 -0.1293 -0.5512
 3097SOL    HW111223   1.305   3.794   2.373  0.1050  0.2635 -0.9214
 3097SOL    HW211224   1.167   3.766   2.427  0.4429 -0.5679 -0.4738
 3098SOL     OW11225   1.617   1.100   8.570 -0.8290  0.1555  0.2019
 3098SOL    HW111226   1.542   1.098   8.630 -0.7771 -0.0603  0.2593
 3098SOL    HW211227   1.668   1.176   8.598 -2.8010  2.4386 -1.9872
 3099SOL     OW11228   1.952   1.148   4.212  0.0848  0.5258 -0.2781
 3099SOL    HW111229   1.969   1.157   4.118  1.5009  0.2713 -0.0551
 3099SOL    HW211230   1.947   1.238   4.244  0.8533  0.6115 -0.3854
 3100SOL     OW11231   2.349   2.635   1.124  0.0419  0.4083 -0.7625
 3100SOL    HW111232   2.359   2.712   1.068 -1.8116  0.3764 -1.2179
 3100SOL    HW211233   2.289   2.663   1.193  1.7798  0.2468  0.8846
 3101SOL     OW11234   7.607   7.954   6.423 -0.1231 -0.2574 -0.3602
 3101SOL    HW111235   7.532   7.895   6.430  0.5901 -1.0230  1.5422
 3101SOL    HW211236   7.594   8.018   6.493  1.1260 -0.5869  0.2058
 3102SOL     OW11237   6.566   8.466   7.882  0.2603 -0.6744  0.4147
 3102SOL    HW111238   6.516   8.459   7.801 -0.7719 -1.4605  1.1021
 3102SOL    HW211239   6.612   8.550   7.874 -1.4093  0.2349 -0.0973
 3103SOL     OW11240   4.797   3.147   3.679  0.0634  0.4185  0.0481
 3103SOL    HW111241   4.817   3.082   3.746  3.0200  1.9339  0.7818
 3103SOL    HW211242   4.862   3.134   3.611 -0.5416  1.3475 -0.7483
 3104SOL     OW11243   0.117   8.285   6.687  0.3551 -0.0445 -0.1789
 3104SOL    HW111244   0.125   8.378   6.709 -2.5771  0.2192  0.1326
 3104SOL    HW211245   0.097   8.284   6.594 -0.3632 -0.3021 -0.0251
 3105SOL     OW11246   6.154   2.734   0.359  0.4640 -0.0901  0.7833
 3105SOL    HW111247   6.162   2.829   0.368  0.2491  0.5353 -3.4085
 3105SOL    HW211248   6.074   2.722   0.308  1.9853 -2.2039 -1.3434
 3106SOL     OW11249   1.810   6.466   2.373 -0.0893  0.1204 -0.0214
 3106SOL    HW111250   1.885   6.474   2.433  0.7106 -2.2588 -0.6303
 3106SOL    HW211251   1.838   6.513   2.294 -0.0705  0.9463  0.4589
 3107SOL     OW11252   3.318   3.027   0.463  0.7894  0.2110  0.0199
 3107SOL    HW111253   3.350   3.047   0.375  0.0441  1.0031 -0.0850
 3107SOL    HW211254   3.231   3.065   0.466 -0.4686 -2.4063  0.0740
 3108SOL     OW11255   7.166   3.574   3.162 -0.1544 -0.1692  0.1565
 3108SOL    HW111256   7.221   3.597   3.087  1.3851  0.9620  1.5373
 3108SOL    HW211257   7.079   3.603   3.138  0.4583  0.8843 -0.9042
 3109SOL     OW11258   2.397   2.240   4.695  0.0892  0.5885  0.7787
 3109SOL    HW111259   2.347   2.296   4.635 -0.1431  2.1060  2.2867
 3109SOL    HW211260   2.488   2.266   4.681 -0.0251  1.4711  1.5366
 3110SOL     OW11261   8.489   4.336   3.994  0.6762 -0.3522  0.3088
 3110SOL    HW111262   8.525   4.248   4.004 -1.0425 -1.2022 -0.6252
 3110SOL    HW211263   8.396   4.327   4.015  0.6605  1.4733  1.2286
 3111SOL     OW11264   3.034   1.044   2.944  0.3711  0.2847 -0.2992
 3111SOL    HW111265   3.032   1.043   2.849  1.2325 -1.8421 -0.3573
 3111SOL    HW211266   3.121   1.075   2.967  0.4798 -0.0554 -0.2413
 3112SOL     OW11267   6.986   1.538   7.871 -0.3715  0.0632 -0.5372
 3112SOL    HW111268   6.976   1.510   7.962 -0.6061 -0.3790 -0.6963
 3112SOL    HW211269   6.948   1.467   7.820  1.4783 -0.5995 -1.0853
 3113SOL     OW11270   6.341   8.376   6.748 -0.7055 -0.5652 -0.0814
 3113SOL    HW111271   6.392   8.419   6.680 -1.0964 -0.9267 -0.6079
 3113SOL    HW211272   6.350   8.433   6.825  0.6612 -0.7158 -0.0954
 3114SOL     OW11273   4.614   6.345   3.366  0.2197  0.7641 -0.0239
 3114SOL    HW111274   4.544   6.408   3.353  1.3110  1.7649 -1.4286
 3114SOL    HW211275   4.689   6.398   3.393 -0.0149 -0.5009  3.6603
 3115SOL     OW11276   0.106   6.631   1.319  0.5750  0.6919 -0.0470
 3115SOL    HW111277   0.144   6.627   1.232 -2.0667 -0.2585 -1.2744
 3115SOL    HW211278   0.041   6.560   1.321  1.0883  0.1350  3.0017
 3116SOL     OW11279   1.470   1.570   2.925 -0.1369  0.4191  0.6438
 3116SOL    HW111280   1.482   1.486   2.970 -1.1051 -0.3623 -0.4900
 3116SOL    HW211281   1.414   1.621   2.984  0.0847  0.0929  1.1378
 3117SOL     OW11282   1.155   8.473   3.092  0.2941 -0.2648 -0.5346
 3117SOL    HW111283   1.192   8.560   3.076  0.0960  0.0063  0.4010
 3117SOL    HW211284   1.080   8.490   3.149  1.1233 -1.1761  0.8729
 3118SOL     OW11285   6.820   1.283   5.105  0.4013 -0.2961 -0.1695
 3118SOL    HW111286   6.865   1.245   5.029 -0.6336  0.0124 -0.9597
 3118SOL    HW211287   6.824   1.378   5.091 -0.2503 -0.2551 -0.1177
 3119SOL     OW11288   5.428   7.768   2.604  0.4715  0.5494  0.2627
 3119SOL    HW111289   5.459   7.680   2.582 -0.2961  0.4420 -0.4327
 3119SOL    HW211290   5.505   7.823   2.595  0.4997  0.2914 -1.4618
 3120SOL     OW11291   5.065   2.118   7.096 -0.5456 -0.4405  0.0388
 3120SOL    HW111292   5.089   2.066   7.019 -2.1844 -0.0223 -0.8179
 3120SOL    HW211293   4.980   2.083   7.123 -1.4268  1.3517 -0.2154
 3121SOL     OW11294   1.207   1.822   2.770  0.4488 -0.1760  0.4241
 3121SOL    HW111295   1.142   1.788   2.831 -0.4978  0.1578 -0.3631
 3121SOL    HW211296   1.191   1.917   2.767  0.7645 -0.1298 -0.0098
 3122SOL     OW11297   8.574   2.271   3.685  0.3132 -0.1470 -0.0009
 3122SOL    HW111298   8.579   2.332   3.759 -0.8067  1.3987 -1.1294
 3122SOL    HW211299   8.486   2.235   3.690  0.3052 -0.1909 -0.4587
 3123SOL     OW11300   3.135   3.163   1.116 -0.0860  0.3870  0.0261
 3123SOL    HW111301   3.130   3.112   1.036 -0.1981  0.8230 -0.2502
 3123SOL    HW211302   3.060   3.133   1.168 -2.1922  2.5462 -1.5182
 3124SOL     OW11303   7.939   3.973   6.363  0.2667 -0.6284 -0.1010
 3124SOL    HW111304   7.916   3.907   6.297  1.0024 -1.5170  0.5181
 3124SOL    HW211305   7.873   4.042   6.350  0.2572 -0.8754 -1.6103
 3125SOL     OW11306   0.158   2.733   8.506  0.1490 -0.2607 -0.0371
 3125SOL    HW111307   0.134   2.665   8.568  1.1685 -0.5504  0.0657
 3125SOL    HW211308   0.077   2.780   8.488 -0.1851 -0.1983  1.4863
 3126SOL     OW11309   6.643   2.167   7.966  0.1877  0.2207 -0.6653
 3126SOL    HW111310   6.719   2.110   7.966  1.9732  2.4832 -0.5871
 3126SOL    HW211311   6.616   2.171   8.058  0.5864  0.1794 -0.5458
 3127SOL     OW11312   3.836   0.751   2.143  0.2371  0.4469  0.3921
 3127SOL    HW111313   3.858   0.668   2.184  2.0633  0.6877 -0.0049
 3127SOL    HW211314   3.776   0.794   2.205  1.5905  0.0948  2.0092
 3128SOL     OW11315   6.810   4.412   0.746 -0.0819  0.2603  0.0673
 3128SOL    HW111316   6.880   4.413   0.681  0.2259 -0.7731  0.3627
 3128SOL    HW211317   6.733   4.384   0.697 -0.4183  1.8162 -0.3534
 3129SOL     OW11318   6.539   8.283   4.353  0.1684  0.2116  0.6287
 3129SOL    HW111319   6.599   8.273   4.426  0.2063  0.3956  0.6214
 3129SOL    HW211320   6.490   8.363   4.372 -0.7475 -0.4456  1.1200
 3130SOL     OW11321   0.552   7.793   1.609 -0.3072 -0.5275 -0.2136
 3130SOL    HW111322   0.475   7.792   1.666  0.1881 -1.4997  0.4655
 3130SOL    HW211323   0.565   7.885   1.587  1.1810  0.3645  3.5864
 3131SOL     OW11324   1.967   1.847   8.015  0.1470 -0.2167 -0.1323
 3131SOL    HW111325   1.988   1.761   7.980  2.1640  0.0383  0.3436
 3131SOL    HW211326   1.887   1.833   8.066 -1.9051 -0.9370 -3.2640
 3132SOL     OW11327   4.469   3.537   4.661 -0.1593  0.0845 -0.4130
 3132SOL    HW111328   4.531   3.572   4.725 -0.0205 -0.4309 -0.2650
 3132SOL    HW211329   4.383   3.567   4.692  0.0041  0.7278 -0.5719
 3133SOL     OW11330   7.134   1.050   8.276  0.1520 -0.8804  0.8288
 3133SOL    HW111331   7.141   1.060   8.181 -0.3296 -0.0036  0.8746
 3133SOL    HW211332   7.158   0.959   8.293  0.8385 -0.8817 -0.0688
 3134SOL     OW11333   2.183   6.510   3.587  0.5750  0.1849  0.7549
 3134SOL    HW111334   2.171   6.601   3.558 -0.0103 -0.8993 -2.8463
 3134SOL    HW211335   2.266   6.484   3.548  0.1770 -1.1612  0.7848
 3135SOL     OW11336   0.002   3.660   5.571 -0.5141  0.4658  0.7865
 3135SOL    HW111337  -0.065   3.623   5.513 -0.8176 -0.1990  1.5517
 3135SOL    HW211338  -0.046   3.712   5.635 -0.2612  0.3839  1.0484
 3136SOL     OW11339   3.306   4.925   1.215  0.0148  0.0580 -0.1369
 3136SOL    HW111340   3.279   5.015   1.235 -1.4168 -0.4719  0.3772
 3136SOL    HW211341   3.387   4.913   1.265 -0.0153  0.9140  0.1338
 3137SOL     OW11342   7.108   0.401   6.990 -0.0259 -0.4621  0.3643
 3137SOL    HW111343   7.114   0.430   7.082 -0.1900  0.7704  0.0133
 3137SOL    HW211344   7.191   0.356   6.974  0.7877  0.8848  0.6175
 3138SOL     OW11345   8.732   7.322   4.388 -0.2182 -0.1871  0.3540
 3138SOL    HW111346   8.720   7.258   4.318 -0.3063 -1.6196  1.6335
 3138SOL    HW211347   8.827   7.331   4.396 -0.1666 -1.2830  1.1335
 3139SOL     OW11348   4.776   7.775   0.124  0.0209 -0.2836 -0.0373
 3139SOL    HW111349   4.844   7.710   0.108 -0.1636 -0.2141 -1.2683
 3139SOL    HW211350   4.789   7.840   0.055 -2.9134 -1.6637 -2.1287
 3140SOL     OW11351   4.132   0.718   2.951  0.3847  0.0111  0.0062
 3140SOL    HW111352   4.210   0.774   2.939  0.1087  0.2764 -0.6101
 3140SOL    HW211353   4.137   0.690   3.042  2.0726 -1.2934 -0.4442
 3141SOL     OW11354   4.754   5.433   4.920 -0.3334  0.1668  0.4033
 3141SOL    HW111355   4.758   5.506   4.858 -3.4947 -0.1976 -0.4084
 3141SOL    HW211356   4.678   5.452   4.975 -1.1619 -2.3768  0.2825
 3142SOL     OW11357   2.303   2.440   6.844  0.2983  0.5048 -0.1251
 3142SOL    HW111358   2.339   2.458   6.931 -2.0719 -0.1204  1.0703
 3142SOL    HW211359   2.375   2.402   6.795  1.4055 -0.1660  1.9305
 3143SOL     OW11360   0.000   0.434   2.243 -0.1453  0.1467  0.7518
 3143SOL    HW111361  -0.046   0.372   2.186  0.2087  0.2858  0.3129
 3143SOL    HW211362  -0.064   0.502   2.261 -0.5176 -0.3072  1.1809
 3144SOL     OW11363   8.551   7.713   4.079 -0.2565 -0.4915 -0.5394
 3144SOL    HW111364   8.556   7.772   4.154  1.3463 -0.9232 -0.2683
 3144SOL    HW211365   8.539   7.626   4.117  2.7401 -1.0270 -0.5600
 3145SOL     OW11366   2.141   8.617   8.275  0.1684 -0.2671  0.0876
 3145SOL    HW111367   2.209   8.679   8.248  0.6305 -0.0650  1.6118
 3145SOL    HW211368   2.149   8.544   8.213  1.9804 -0.3766  0.3912
 3146SOL     OW11369   0.074   6.291   8.378  0.2059 -0.2978  0.5229
 3146SOL    HW111370   0.140   6.224   8.397  0.6511 -0.0496 -0.1160
 3146SOL    HW211371  -0.002   6.265   8.430  1.2083  0.1050  2.2819
 3147SOL     OW11372   1.534   2.475   6.880  0.2771  0.2191 -0.0358
 3147SOL    HW111373   1.496   2.480   6.792  1.5639  1.8244 -0.5545
 3147SOL    HW211374   1.601   2.543   6.881  1.8297 -1.2196  1.4560
 3148SOL     OW11375   2.812   2.944   4.427 -0.2603  0.8519 -0.2925
 3148SOL    HW111376   2.754   2.868   4.435 -0.5560  1.1545  0.5143
 3148SOL    HW211377   2.796   2.977   4.339  0.3247 -0.3768 -0.8890
 3149SOL     OW11378   6.108   0.661   0.999  0.1686 -0.6210 -0.2797
 3149SOL    HW111379   6.090   0.740   1.050  0.3189 -2.5458  3.0559
 3149SOL    HW211380   6.199   0.670   0.972 -0.2035  0.8928 -1.1504
 3150SOL     OW11381   0.999   3.304   7.584 -0.4234 -0.6166 -0.2757
 3150SOL    HW111382   0.927   3.367   7.583  1.1895  1.3502  0.5748
 3150SOL    HW211383   1.042   3.315   7.500  0.0832 -0.2881  0.0194
 3151SOL     OW11384   6.576   1.870   0.469 -0.6007 -0.3794 -0.3009
 3151SOL    HW111385   6.609   1.944   0.417 -1.9235  1.0238  0.7469
 3151SOL    HW211386   6.646   1.805   0.466 -0.1040  0.1541 -2.7472
 3152SOL     OW11387   7.725   2.306   5.486 -0.5388  0.1430  0.1648
 3152SOL    HW111388   7.791   2.360   5.443 -1.7604  0.2145 -1.7423
 3152SOL    HW211389   7.644   2.325   5.438 -1.9607  0.0367  2.3867
 3153SOL     OW11390   1.484   1.490   0.653  0.0324  0.9805  0.6438
 3153SOL    HW111391   1.521   1.411   0.614 -0.1669  1.2620 -0.1236
 3153SOL    HW211392   1.402   1.504   0.605 -1.4595 -0.0054  2.7062
 3154SOL     OW11393   0.645   8.854   5.551 -0.2487 -0.2300  0.0309
 3154SOL    HW111394   0.598   8.938   5.552  0.0923 -0.0031 -1.0327
 3154SOL    HW211395   0.731   8.876   5.515  0.9380 -0.5311  2.4857
 3155SOL     OW11396   0.308   2.170   6.556  0.0417 -0.3736  0.0112
 3155SOL    HW111397   0.356   2.232   6.611  1.6157 -1.0000 -0.5821
 3155SOL    HW211398   0.351   2.177   6.470 -1.0189 -0.9039 -0.5817
 3156SOL     OW11399   6.252   1.340   1.711  0.2593  0.6786  0.0818
 3156SOL    HW111400   6.237   1.431   1.684 -1.7326  1.1850  2.4498
 3156SOL    HW211401   6.172   1.294   1.687  1.2324 -0.4744 -1.0468
 3157SOL     OW11402   0.374   4.082   7.284  0.2454 -0.0474 -0.0411
 3157SOL    HW111403   0.396   3.989   7.278  0.4072 -0.0016 -0.1856
 3157SOL    HW211404   0.442   4.119   7.341  0.8412  0.1828 -0.8674
 3158SOL     OW11405   3.148   7.166   2.152  0.2896 -0.1409 -0.4352
 3158SOL    HW111406   3.224   7.124   2.191  0.4015 -0.5830 -1.1038
 3158SOL    HW211407   3.115   7.224   2.220  0.1500 -1.2897  0.5126
 3159SOL     OW11408   5.417   1.578   7.489 -0.1340 -0.0244  1.0169
 3159SOL    HW111409   5.467   1.539   7.417  0.0237  2.0927 -0.1086
 3159SOL    HW211410   5.478   1.642   7.527 -1.1070  0.7673  1.2745
 3160SOL     OW11411   4.301   3.913   7.540 -0.0823 -0.1899 -0.0564
 3160SOL    HW111412   4.287   3.899   7.446  1.4975 -0.7856 -0.2446
 3160SOL    HW211413   4.259   3.997   7.558 -2.2636 -1.0537 -0.8118
 3161SOL     OW11414   7.599   1.714   8.488 -0.2027 -0.2994  0.3755
 3161SOL    HW111415   7.582   1.803   8.516  0.2601 -0.3436  0.7990
 3161SOL    HW211416   7.595   1.662   8.568 -1.4305 -0.8139  0.0121
 3162SOL     OW11417   8.291   4.427   1.592  0.4102  0.6915  0.3242
 3162SOL    HW111418   8.379   4.450   1.563 -0.2799  1.4125 -1.2842
 3162SOL    HW211419   8.242   4.509   1.589 -1.0429 -0.1855 -1.5433
 3163SOL     OW11420   7.751   2.637   1.436 -0.0105 -0.7323 -0.2710
 3163SOL    HW111421   7.717   2.594   1.514  0.6654  1.1898  1.1858
 3163SOL    HW211422   7.675   2.682   1.398 -0.0585 -0.4041  0.1995
 3164SOL     OW11423   7.543   1.104   5.179 -0.3352 -0.0426  0.0407
 3164SOL    HW111424   7.479   1.057   5.124  0.8156  1.0315 -2.3833
 3164SOL    HW211425   7.621   1.048   5.178  0.3446  0.8643 -1.1471
 3165SOL     OW11426   0.006   5.206   7.222  0.2801  0.4293  0.0804
 3165SOL    HW111427   0.058   5.220   7.301  0.0878 -0.3895  0.3592
 3165SOL    HW211428  -0.008   5.294   7.187 -0.8685  0.9548  1.7369
 3166SOL     OW11429   4.870   4.066   1.076  0.7422  0.3891  0.0615
 3166SOL    HW111430   4.964   4.063   1.059  0.8820  1.6115  0.5504
 3166SOL    HW211431   4.857   4.146   1.126 -0.5015 -0.0058  0.4074
 3167SOL     OW11432   6.018   0.061   6.885  0.0251 -0.4044 -0.5919
 3167SOL    HW111433   6.009   0.156   6.876 -1.3144 -0.4926 -0.4072
 3167SOL    HW211434   5.947   0.036   6.945  0.5617 -1.4811 -0.3793
 3168SOL     OW11435   1.005   8.003   6.520  0.5708  0.3877  0.6282
 3168SOL    HW111436   0.989   8.098   6.515  0.7157  0.3539 -0.9955
 3168SOL    HW211437   1.089   7.991   6.475 -0.4415 -0.7106 -1.0852
 3169SOL     OW11438   1.898   0.163   7.304 -0.2758  0.3632  0.0658
 3169SOL    HW111439   1.861   0.092   7.252 -3.3239  0.6412  1.5979
 3169SOL    HW211440   1.964   0.121   7.359 -1.9879 -1.3929  0.9232
 3170SOL     OW11441   5.209   8.604   8.788  0.3662  1.0313  0.0657
 3170SOL    HW111442   5.130   8.567   8.748 -0.0573  0.5937  1.2314
 3170SOL    HW211443   5.224   8.686   8.741 -0.6246  0.9844 -0.3678
 3171SOL     OW11444   8.039   4.756   2.603  0.8180 -0.4019 -0.3491
 3171SOL    HW111445   8.040   4.678   2.659  0.3393 -1.0877 -1.2786
 3171SOL    HW211446   8.108   4.811   2.639  1.8066 -1.6568 -0.2224
 3172SOL     OW11447   2.631   0.481   1.891  0.2531 -0.2944 -0.1180
 3172SOL    HW111448   2.714   0.527   1.896  0.2118 -0.2650  0.4490
 3172SOL    HW211449   2.654   0.394   1.859  0.5024 -0.2749  0.0026
 3173SOL     OW11450   6.446   3.748   2.358 -0.4063 -0.2879 -0.4894
 3173SOL    HW111451   6.525   3.748   2.304 -0.2316 -0.7129 -0.2411
 3173SOL    HW211452   6.424   3.655   2.368 -0.2718 -0.2352  0.4060
 3174SOL     OW11453   6.900   3.786   1.175 -0.0769  0.2444  0.5399
 3174SOL    HW111454   6.836   3.852   1.150  0.7020  1.2385  1.0831
 3174SOL    HW211455   6.861   3.742   1.251 -0.4304  0.3505  0.4214
 3175SOL     OW11456   0.407   1.745   1.105 -0.0924  0.2326 -0.4050
 3175SOL    HW111457   0.357   1.814   1.148 -0.4859  0.0804 -0.6139
 3175SOL    HW211458   0.486   1.789   1.072  0.7098  0.1693  1.2998
 3176SOL     OW11459   6.443   0.251   2.397 -0.3151 -0.4922 -0.5171
 3176SOL    HW111460   6.432   0.159   2.371 -1.5567 -0.4573 -0.1649
 3176SOL    HW211461   6.523   0.251   2.450  1.0084 -0.9493 -2.3860
 3177SOL     OW11462   5.392   2.950   1.823 -0.1906 -0.2043 -0.1027
 3177SOL    HW111463   5.386   3.039   1.789  1.3624  0.2878  0.8209
 3177SOL    HW211464   5.303   2.930   1.852 -0.6200  0.9334 -0.5798
 3178SOL     OW11465   2.764   7.869   6.689 -0.5841 -0.0462 -0.0635
 3178SOL    HW111466   2.832   7.916   6.639  0.9976 -0.8411  1.2717
 3178SOL    HW211467   2.683   7.892   6.644  0.4722  1.4647 -1.3374
 3179SOL     OW11468   7.534   4.517   6.947 -0.4338 -0.0959 -0.0157
 3179SOL    HW111469   7.484   4.459   6.889  1.4282 -2.2822  0.4250
 3179SOL    HW211470   7.599   4.460   6.988  1.1872  2.2330  0.8750
 3180SOL     OW11471   7.446   4.719   6.555  0.0805  0.2212 -0.5168
 3180SOL    HW111472   7.506   4.773   6.607  1.1627 -0.6978 -0.7695
 3180SOL    HW211473   7.369   4.708   6.611  1.0837 -0.4666  0.7770
 3181SOL     OW11474   4.221   5.630   0.445  0.0551 -0.5914  0.0971
 3181SOL    HW111475   4.257   5.542   0.454 -2.6497 -1.7891  0.1458
 3181SOL    HW211476   4.267   5.667   0.370  2.0548 -1.5734  0.7711
 3182SOL     OW11477   8.655   1.609   1.342  0.0179  0.0175  0.1525
 3182SOL    HW111478   8.586   1.659   1.300  0.7227  1.0801  0.2199
 3182SOL    HW211479   8.690   1.553   1.273  1.0139  1.5860 -0.6843
 3183SOL     OW11480   5.011   0.988   3.129 -0.2757  0.3619  0.1505
 3183SOL    HW111481   5.066   0.933   3.184 -0.6011 -1.7412 -1.5119
 3183SOL    HW211482   5.046   1.077   3.141  0.3934 -0.1732  2.7625
 3184SOL     OW11483   6.869   3.945   7.933  0.0289 -0.0165  0.8213
 3184SOL    HW111484   6.890   3.853   7.951 -0.9025 -0.6361 -0.9142
 3184SOL    HW211485   6.921   3.967   7.856  1.5253  1.5048  2.1793
 3185SOL     OW11486   4.666   0.592   3.933 -0.2994 -0.1622  0.4377
 3185SOL    HW111487   4.736   0.544   3.978 -0.1833 -1.3467 -0.9402
 3185SOL    HW211488   4.709   0.672   3.902  0.6989 -1.2666 -1.1257
 3186SOL     OW11489   3.734   8.117   2.728  0.6693 -0.2350 -0.1582
 3186SOL    HW111490   3.688   8.200   2.740 -0.7181 -0.8825 -0.8290
 3186SOL    HW211491   3.726   8.073   2.813  1.2087  0.2023  0.1269
 3187SOL     OW11492   3.761   6.157   8.822  0.7165  0.2880  0.3918
 3187SOL    HW111493   3.728   6.214   8.753 -0.1011 -2.3824 -1.5608
 3187SOL    HW211494   3.690   6.097   8.841  1.8435 -0.7219  1.6822
 3188SOL     OW11495   4.992   3.024   0.328 -0.0528 -0.0726  0.2855
 3188SOL    HW111496   5.022   3.101   0.280  3.3489 -1.1944  0.3493
 3188SOL    HW211497   5.000   3.048   0.420 -0.0776 -0.1064  0.2967
 3189SOL     OW11498   4.397   7.459   7.409 -0.6189 -0.6787 -0.0304
 3189SOL    HW111499   4.442   7.451   7.493  0.2624  0.0187 -0.4171
 3189SOL    HW211500   4.308   7.485   7.431 -0.3259 -0.2550  0.6758
 3190SOL     OW11501   0.851   5.445   8.200 -0.1574  0.1157 -0.5585
 3190SOL    HW111502   0.837   5.378   8.268  0.2573 -0.4719 -1.0401
 3190SOL    HW211503   0.774   5.438   8.144  1.4555 -2.4829 -2.6787
 3191SOL     OW11504   1.139   6.206   4.848 -0.7710 -0.1592  0.2425
 3191SOL    HW111505   1.077   6.196   4.921 -0.7047  2.1619  0.6847
 3191SOL    HW211506   1.177   6.293   4.861  1.9499 -1.1347 -0.5331
 3192SOL     OW11507   1.416   0.241   5.730 -0.0094  0.0990 -0.4867
 3192SOL    HW111508   1.327   0.270   5.711 -0.2960 -0.2564  0.2838
 3192SOL    HW211509   1.405   0.155   5.769  0.8970 -1.7590 -3.9556
 3193SOL     OW11510   6.596   8.266   0.863  0.5212  0.2105  0.5039
 3193SOL    HW111511   6.569   8.356   0.883 -2.0159 -0.4037  0.2355
 3193SOL    HW211512   6.633   8.270   0.775  1.1408  1.0931  0.7923
 3194SOL     OW11513   3.671   5.677   5.546 -0.4228  0.0789 -0.5820
 3194SOL    HW111514   3.688   5.711   5.634 -0.9326 -0.3270 -0.3226
 3194SOL    HW211515   3.741   5.613   5.532 -0.8405 -0.4954 -0.1144
 3195SOL     OW11516   3.133   3.804   1.792 -0.5233 -0.4836  0.2319
 3195SOL    HW111517   3.159   3.723   1.749  1.1249  0.8803 -1.5447
 3195SOL    HW211518   3.128   3.868   1.721 -0.1030  1.3497  1.7659
 3196SOL     OW11519   5.381   2.717   0.274  0.4625 -0.0939 -0.1488
 3196SOL    HW111520   5.395   2.651   0.342 -0.3716  0.6206  0.7290
 3196SOL    HW211521   5.288   2.739   0.281  0.6155  0.7916 -0.7976
 3197SOL     OW11522   7.456   1.429   7.352  0.1412  0.0789 -0.0132
 3197SOL    HW111523   7.392   1.439   7.423 -0.5021  0.1784 -0.5910
 3197SOL    HW211524   7.454   1.512   7.306  1.5829  0.5155  0.6640
 3198SOL     OW11525   1.888   6.991   8.335 -0.1534  0.2509 -0.1960
 3198SOL    HW111526   1.969   6.994   8.285 -0.8370 -2.5644 -1.6738
 3198SOL    HW211527   1.819   6.983   8.269 -1.5520  1.1559  1.0663
 3199SOL     OW11528   6.912   3.632   5.914 -0.9392 -0.0791  0.6207
 3199SOL    HW111529   6.888   3.570   5.845  0.7501 -0.1089  0.0120
 3199SOL    HW211530   6.970   3.583   5.972 -1.7744  0.1548  1.6851
 3200SOL     OW11531   5.497   6.544   0.557 -0.3989  0.2645  0.3164
 3200SOL    HW111532   5.566   6.599   0.519  0.0475 -0.0661  0.6311
 3200SOL    HW211533   5.439   6.606   0.600 -1.1610  0.6918 -1.2487
 3201SOL     OW11534   0.838   6.274   5.753  0.2119  0.7652 -0.3767
 3201SOL    HW111535   0.900   6.346   5.745  1.8931 -0.3293  2.0100
 3201SOL    HW211536   0.773   6.305   5.816  0.0890  0.7030 -0.4704
 3202SOL     OW11537   2.980   3.988   1.339  0.5808 -0.2072  0.5427
 3202SOL    HW111538   2.986   3.909   1.286  0.3676 -1.2813  2.0685
 3202SOL    HW211539   2.945   4.054   1.279  1.5672 -1.0237 -0.9839
 3203SOL     OW11540   2.989   7.126   6.175 -0.0988 -0.5018  0.0483
 3203SOL    HW111541   3.049   7.059   6.208  0.3177 -0.7261 -1.0959
 3203SOL    HW211542   3.035   7.164   6.100 -0.0956  1.4525  0.9691
 3204SOL     OW11543   1.528   5.617   7.901 -0.1069 -0.6575 -0.4072
 3204SOL    HW111544   1.573   5.536   7.922  0.4392  0.3329  2.7085
 3204SOL    HW211545   1.445   5.612   7.947 -0.7022 -0.0191 -1.3562
 3205SOL     OW11546   6.573   1.409   4.122 -0.1489 -0.3586 -0.0606
 3205SOL    HW111547   6.489   1.364   4.120 -0.0874 -0.4891  0.2334
 3205SOL    HW211548   6.551   1.502   4.120 -0.3703 -0.3504  1.7714
 3206SOL     OW11549   1.438   4.031   7.987  0.2625 -0.0623  0.8751
 3206SOL    HW111550   1.354   4.036   8.033  0.0890  0.9575  0.4507
 3206SOL    HW211551   1.502   4.015   8.057 -0.4759 -3.1108  1.0054
 3207SOL     OW11552   6.459   0.961   2.420 -0.2022  0.1351 -0.1548
 3207SOL    HW111553   6.481   0.896   2.354 -0.3331  0.9047 -0.9852
 3207SOL    HW211554   6.381   0.927   2.462  0.7934 -1.1438  0.7313
 3208SOL     OW11555   5.116   7.083   6.577  0.6462 -0.1122  0.0941
 3208SOL    HW111556   5.133   6.994   6.546  1.0933  0.6996 -2.2061
 3208SOL    HW211557   5.194   7.106   6.629  0.8651 -0.7956  0.0698
 3209SOL     OW11558   6.443   4.659   5.012  0.7060 -0.5893  0.6160
 3209SOL    HW111559   6.439   4.702   4.926  1.3993 -1.0542  0.3466
 3209SOL    HW211560   6.375   4.591   5.008  1.1940 -1.0579  0.1823
 3210SOL     OW11561   1.463   0.587   3.621  0.0471 -0.3108 -0.1525
 3210SOL    HW111562   1.448   0.624   3.534 -1.4242  0.9966  0.6067
 3210SOL    HW211563   1.376   0.569   3.655  0.5368  0.2476  1.4863
 3211SOL     OW11564   3.871   0.777   4.267 -0.1570 -0.0592  0.3579
 3211SOL    HW111565   3.856   0.841   4.337 -1.5940 -0.1294  0.1438
 3211SOL    HW211566   3.899   0.697   4.313 -1.3229 -0.1783  0.8942
 3212SOL     OW11567   1.247   6.418   7.927  0.3712  0.2850 -0.1649
 3212SOL    HW111568   1.165   6.398   7.972 -0.1837  1.3461 -0.6626
 3212SOL    HW211569   1.220   6.462   7.847  1.4489  1.8725  0.2940
 3213SOL     OW11570   7.514   1.004   4.820 -0.3481 -0.5945  0.2118
 3213SOL    HW111571   7.458   1.008   4.898 -0.7029 -2.4562  0.1004
 3213SOL    HW211572   7.516   0.911   4.797  1.3884 -0.3405 -0.8312
 3214SOL     OW11573   1.907   7.810   4.103 -0.1700 -0.6496 -0.2366
 3214SOL    HW111574   1.877   7.815   4.012  0.7941 -0.8578 -0.5722
 3214SOL    HW211575   1.967   7.736   4.104  0.8920  0.2022  0.2687
 3215SOL     OW11576   5.303   4.205   7.089 -0.3883 -0.3006 -0.4992
 3215SOL    HW111577   5.275   4.197   7.181  1.9986 -0.9533  0.2598
 3215SOL    HW211578   5.226   4.238   7.043 -1.7887 -0.3251  1.6661
 3216SOL     OW11579   0.541   4.370   4.294  0.1496 -0.2057 -0.1215
 3216SOL    HW111580   0.541   4.413   4.208 -0.0067 -0.6781 -0.3570
 3216SOL    HW211581   0.571   4.439   4.354  1.5215 -0.2255 -0.7250
 3217SOL     OW11582   8.320   4.753   1.124 -0.4661 -0.2849  0.4970
 3217SOL    HW111583   8.290   4.744   1.034 -1.7257 -1.2284  0.9814
 3217SOL    HW211584   8.410   4.721   1.123 -0.4642 -0.2628 -0.4363
 3218SOL     OW11585   7.041   5.014   5.642 -0.0110 -0.6527  0.1991
 3218SOL    HW111586   7.044   4.935   5.696 -0.2867  0.0433  1.2841
 3218SOL    HW211587   6.974   5.069   5.684  0.8607  0.5568  0.0740
 3219SOL     OW11588   8.580   1.691   1.748 -0.4151 -0.1596 -1.1204
 3219SOL    HW111589   8.636   1.628   1.703  0.4485  2.0289 -3.3877
 3219SOL    HW211590   8.496   1.646   1.757  0.2517 -1.7609 -2.3243
 3220SOL     OW11591   2.757   7.679   5.542  0.0847 -0.7797 -0.3526
 3220SOL    HW111592   2.796   7.591   5.540  0.7310 -0.5107  0.2916
 3220SOL    HW211593   2.828   7.737   5.569 -0.5268 -0.1601 -0.0354
 3221SOL     OW11594   1.121   0.617   2.393 -0.2654 -0.1578 -0.2467
 3221SOL    HW111595   1.064   0.541   2.404  1.5467 -1.4849  0.4880
 3221SOL    HW211596   1.127   0.629   2.298  0.5460 -1.8699 -0.4430
 3222SOL     OW11597   2.608   8.870   7.795  0.0694 -0.0609 -0.1777
 3222SOL    HW111598   2.585   8.807   7.726 -0.0531  1.1654 -1.3015
 3222SOL    HW211599   2.525   8.886   7.840  0.1468 -0.8670  0.2561
 3223SOL     OW11600   5.982   2.152   5.309 -0.3906  0.2420 -0.2549
 3223SOL    HW111601   6.047   2.196   5.364  1.5711 -1.0906 -1.3789
 3223SOL    HW211602   5.927   2.222   5.275  0.2096  1.3747  1.0273
 3224SOL     OW11603   1.651   2.083   4.966 -0.0127  0.5859  0.1438
 3224SOL    HW111604   1.735   2.092   5.012 -0.4106  0.8683  0.8216
 3224SOL    HW211605   1.630   1.990   4.974  0.2429  0.5121 -0.0381
 3225SOL     OW11606   2.250   4.821   8.359  0.0043 -0.5968 -0.4569
 3225SOL    HW111607   2.260   4.842   8.452  1.2531 -1.8689 -0.2620
 3225SOL    HW211608   2.322   4.866   8.316  1.5720 -2.7538 -0.2783
 3226SOL     OW11609   0.376   5.414   6.939  0.0342 -0.4256 -0.1154
 3226SOL    HW111610   0.454   5.449   6.895 -0.4228 -0.1173 -0.6963
 3226SOL    HW211611   0.331   5.364   6.871  0.0492 -1.1360  0.3896
 3227SOL     OW11612   8.790   2.266   4.408  0.4370  0.1080  0.1669
 3227SOL    HW111613   8.877   2.267   4.368 -0.4468 -0.6131 -1.9270
 3227SOL    HW211614   8.773   2.173   4.424 -0.1048  0.2023  0.1524
 3228SOL     OW11615   5.484   1.584   2.241 -0.2872 -0.4873 -0.0670
 3228SOL    HW111616   5.496   1.523   2.313  0.4266 -1.0679 -0.6701
 3228SOL    HW211617   5.527   1.543   2.166  0.3242  0.8037 -0.4590
 3229SOL     OW11618   8.108   4.974   7.844 -0.0949  0.0517  0.2278
 3229SOL    HW111619   8.117   5.020   7.761  1.9344  0.2336  0.5058
 3229SOL    HW211620   8.193   4.982   7.886 -0.2420 -2.3291  1.1424
 3230SOL     OW11621   2.247   5.162   4.614 -0.0148  0.0383 -0.3378
 3230SOL    HW111622   2.319   5.143   4.554  0.1563 -1.6769  0.3567
 3230SOL    HW211623   2.203   5.078   4.626 -1.7901  0.9326 -0.2732
 3231SOL     OW11624   8.409   3.317   0.231  0.6992 -0.3737  0.1037
 3231SOL    HW111625   8.384   3.396   0.279 -0.7369 -1.0626  0.5517
 3231SOL    HW211626   8.340   3.253   0.253  1.1812 -1.3709 -1.1812
 3232SOL     OW11627   1.094   0.910   2.541 -0.7690  0.0035  0.1286
 3232SOL    HW111628   1.063   0.823   2.516 -2.0762  0.2914  0.6584
 3232SOL    HW211629   1.014   0.959   2.562 -0.0022  1.0856  0.6230
 3233SOL     OW11630   0.643   6.515   7.181  0.3759 -0.5897 -0.0409
 3233SOL    HW111631   0.708   6.531   7.249 -0.5710 -0.1121  0.7708
 3233SOL    HW211632   0.558   6.527   7.224 -0.2984 -2.1958 -0.8209
 3234SOL     OW11633   5.676   1.296   5.907  0.1572 -0.1623 -0.2828
 3234SOL    HW111634   5.706   1.317   5.818 -0.7557 -1.1659 -0.8527
 3234SOL    HW211635   5.581   1.308   5.903  0.2277  0.9707  0.9211
 3235SOL     OW11636   0.422   5.843   7.591  0.0978  0.4600 -0.1695
 3235SOL    HW111637   0.482   5.891   7.648 -0.8654  1.7665 -0.2284
 3235SOL    HW211638   0.461   5.851   7.504  0.0256  1.0104 -0.1548
 3236SOL     OW11639   4.251   4.173   3.249  0.4628  0.5529  0.3104
 3236SOL    HW111640   4.172   4.119   3.243  1.4858 -1.0027  0.1660
 3236SOL    HW211641   4.268   4.181   3.343  1.5153 -1.2926  0.3186
 3237SOL     OW11642   0.088   7.623   2.367  0.4267 -0.4493  0.1370
 3237SOL    HW111643   0.001   7.584   2.368 -0.4224  1.2878 -0.2965
 3237SOL    HW211644   0.082   7.698   2.427  1.4036  0.0982 -0.4026
 3238SOL     OW11645   7.109   6.551   1.047 -0.1159 -0.1607 -0.8494
 3238SOL    HW111646   7.049   6.559   1.121  0.1631  0.0576 -0.6432
 3238SOL    HW211647   7.147   6.639   1.038  2.0444 -0.8531  0.6176
 3239SOL     OW11648   6.141   0.367   4.462 -0.3884  0.2809 -0.3662
 3239SOL    HW111649   6.138   0.365   4.366 -0.2015  0.7827 -0.3888
 3239SOL    HW211650   6.049   0.359   4.489 -0.3103 -1.4907 -0.5299
 3240SOL     OW11651   1.443   1.051   0.745  0.1623 -0.2476 -0.0346
 3240SOL    HW111652   1.365   0.997   0.755 -0.0167 -0.0425 -0.3230
 3240SOL    HW211653   1.513   0.999   0.785  0.1567 -1.0772 -1.0712
 3241SOL     OW11654   8.708   8.767   5.361 -0.5361 -0.1269  0.3293
 3241SOL    HW111655   8.710   8.861   5.378  0.1842 -0.2411  0.8768
 3241SOL    HW211656   8.616   8.743   5.371 -0.5885  0.3621  1.0447
 3242SOL     OW11657   4.178   8.565   7.400  0.0302  0.3088 -0.7575
 3242SOL    HW111658   4.169   8.647   7.353  1.6214  0.6429 -0.5239
 3242SOL    HW211659   4.220   8.506   7.338 -1.5054 -0.5078 -1.0792
 3243SOL     OW11660   3.417   1.052   8.370  0.3376 -0.4262  0.2643
 3243SOL    HW111661   3.464   1.081   8.449 -0.1156 -0.8530  0.6957
 3243SOL    HW211662   3.486   1.040   8.305  0.4297  3.2421 -0.4932
 3244SOL     OW11663   6.628   7.223   6.983 -0.0280 -1.0048  0.5443
 3244SOL    HW111664   6.600   7.197   6.896 -0.1279  1.7183 -0.3361
 3244SOL    HW211665   6.547   7.242   7.030  0.0787 -0.2073  0.4238
 3245SOL     OW11666   2.709   8.528   1.932  0.2480  0.2239 -0.1358
 3245SOL    HW111667   2.751   8.522   1.846 -0.8680  0.8081 -0.7622
 3245SOL    HW211668   2.654   8.450   1.937 -1.5287  1.3278 -1.0493
 3246SOL     OW11669   7.561   6.638   4.339  0.1955  0.6926 -0.2851
 3246SOL    HW111670   7.492   6.650   4.274  0.5194  2.5366 -0.3298
 3246SOL    HW211671   7.639   6.617   4.287 -0.0482 -0.2204 -0.3068
 3247SOL     OW11672   2.514   1.830   0.964 -0.2572  0.1307 -0.3733
 3247SOL    HW111673   2.428   1.868   0.946 -0.3317  0.4866  0.6555
 3247SOL    HW211674   2.495   1.747   1.007 -0.0830  0.0990 -0.3565
 3248SOL     OW11675   4.905   0.201   0.984  0.5567  0.9041  0.3739
 3248SOL    HW111676   4.870   0.185   1.071  0.6502 -0.8448  0.1289
 3248SOL    HW211677   4.962   0.277   0.995  0.9364  0.4401  1.9556
 3249SOL     OW11678   2.821   2.245   6.941  0.1610 -0.0451  0.3783
 3249SOL    HW111679   2.807   2.339   6.931  0.1627 -0.1960 -1.2118
 3249SOL    HW211680   2.892   2.238   7.005 -0.5954  0.9806  1.3753
 3250SOL     OW11681   7.585   6.355   0.661 -0.0401  0.0851 -0.8145
 3250SOL    HW111682   7.511   6.297   0.679  0.7755 -1.1221 -1.2367
 3250SOL    HW211683   7.582   6.369   0.567 -0.5928  1.2435 -0.6330
 3251SOL     OW11684   3.997   1.091   0.719 -0.5298  0.6831  0.1090
 3251SOL    HW111685   3.997   1.039   0.639 -0.0204  1.0578 -0.1384
 3251SOL    HW211686   3.969   1.179   0.691 -0.3662  0.8114  0.3463
 3252SOL     OW11687   3.764   1.819   6.752 -0.1148  0.1004 -0.3846
 3252SOL    HW111688   3.726   1.837   6.838 -1.0820 -0.8903 -0.5768
 3252SOL    HW211689   3.758   1.903   6.706  1.3496  0.9160  0.8186
 3253SOL     OW11690   4.333   6.501   1.036 -0.0366  0.1786  0.2696
 3253SOL    HW111691   4.257   6.509   0.979 -0.0756 -0.7012  0.1854
 3253SOL    HW211692   4.387   6.578   1.015 -1.1445  1.1138  0.7273
 3254SOL     OW11693   2.925   1.043   1.965 -0.3065  0.6628 -0.3942
 3254SOL    HW111694   2.965   1.009   1.885  2.2708 -1.2304  1.5225
 3254SOL    HW211695   2.985   1.111   1.996 -1.2972  1.4185 -0.0766
 3255SOL     OW11696   1.228   1.870   0.521  0.0779  0.5128  0.4788
 3255SOL    HW111697   1.224   1.774   0.518 -2.8611  0.4928  1.5027
 3255SOL    HW211698   1.151   1.898   0.471  1.2046  2.4116 -0.3081
 3256SOL     OW11699   5.045   3.241   4.825  0.0725  0.1312 -0.5140
 3256SOL    HW111700   5.140   3.229   4.836  0.0460  1.6021  1.9781
 3256SOL    HW211701   5.027   3.204   4.738  3.3167  1.9322 -2.1717
 3257SOL     OW11702   2.065   4.814   5.392  0.0403  0.0928  0.5333
 3257SOL    HW111703   2.070   4.908   5.373 -0.2398  0.1123  0.5582
 3257SOL    HW211704   2.154   4.782   5.374 -0.6523 -0.3007 -2.9366
 3258SOL     OW11705   1.876   5.902   1.730 -0.0913 -0.0534  0.3110
 3258SOL    HW111706   1.907   5.984   1.769  1.0008 -0.4305  0.2756
 3258SOL    HW211707   1.875   5.920   1.636  0.1640 -0.0899  0.3018
 3259SOL     OW11708   8.693   8.773   5.017 -0.0657  0.2763 -0.1254
 3259SOL    HW111709   8.695   8.789   4.923  0.6020 -1.2597 -0.3978
 3259SOL    HW211710   8.752   8.839   5.054  1.5111 -0.5841 -1.0364
 3260SOL     OW11711   8.612   4.093   0.061  0.1794  0.4832 -0.3768
 3260SOL    HW111712   8.538   4.033   0.068 -2.3394  3.5009  1.9362
 3260SOL    HW211713   8.682   4.050   0.110 -1.8527 -0.2491  2.0978
 3261SOL     OW11714   5.963   6.223   1.615  0.2001  0.0026 -0.1590
 3261SOL    HW111715   5.941   6.187   1.702  0.7296  2.3644  1.0365
 3261SOL    HW211716   6.027   6.292   1.633 -0.2582  1.1012 -2.3525
 3262SOL     OW11717   2.499   2.458   2.711  0.3204 -0.3101 -0.5021
 3262SOL    HW111718   2.551   2.379   2.702  0.5501 -0.3876  1.1548
 3262SOL    HW211719   2.408   2.427   2.712  0.2524 -0.2705 -2.3899
 3263SOL     OW11720   4.821   7.470   5.911 -0.0862 -0.3761 -0.6320
 3263SOL    HW111721   4.781   7.557   5.913 -0.1979 -0.3816 -1.9000
 3263SOL    HW211722   4.884   7.473   5.839  0.3124 -1.1743 -0.3334
 3264SOL     OW11723   0.966   3.672   4.805  0.2374  0.5038 -0.2206
 3264SOL    HW111724   0.910   3.594   4.794 -0.7296  0.9598  1.1689
 3264SOL    HW211725   1.036   3.660   4.741 -0.9256 -0.5728 -1.3714
 3265SOL     OW11726   6.550   1.736   8.352  0.4927  0.4665 -0.4738
 3265SOL    HW111727   6.455   1.729   8.363  0.5705  0.2257  0.1173
 3265SOL    HW211728   6.575   1.813   8.404  0.3664  1.8231 -2.3415
 3266SOL     OW11729   3.954   4.650   2.906  0.0538  0.4781  0.4325
 3266SOL    HW111730   3.875   4.610   2.943 -0.3403  0.9755  0.1360
 3266SOL    HW211731   3.994   4.697   2.979 -0.9777  1.8557  0.1473
 3267SOL     OW11732   1.683   8.523   3.651 -0.2660  0.5074 -0.0884
 3267SOL    HW111733   1.723   8.610   3.654  0.4618  0.2084 -0.7155
 3267SOL    HW211734   1.691   8.496   3.559 -1.1698  0.0871 -0.0538
 3268SOL     OW11735   1.107   2.826   8.388 -0.1958  0.2318 -0.3531
 3268SOL    HW111736   1.103   2.847   8.295 -0.1336  1.5699 -0.0794
 3268SOL    HW211737   1.091   2.732   8.392  0.5317  0.0133 -1.7677
 3269SOL     OW11738   6.539   2.674   8.377  0.3250 -0.3158 -0.0419
 3269SOL    HW111739   6.599   2.656   8.449  0.9428 -0.5665 -0.6155
 3269SOL    HW211740   6.464   2.716   8.419  1.7930  2.0355  0.4648
 3270SOL     OW11741   1.317   5.524   8.248  0.0263 -0.2300 -0.6271
 3270SOL    HW111742   1.317   5.607   8.201  1.4057  1.0594  1.4933
 3270SOL    HW211743   1.234   5.523   8.296 -1.2972 -1.4624 -2.7755
 3271SOL     OW11744   3.761   5.974   7.299  0.4780 -0.0509  0.6447
 3271SOL    HW111745   3.848   5.963   7.339  1.3208 -1.1327 -1.3649
 3271SOL    HW211746   3.735   6.063   7.322  2.5777  0.6614  0.4704
 3272SOL     OW11747   2.177   3.278   6.177 -0.2061 -0.2676  0.3168
 3272SOL    HW111748   2.088   3.310   6.195  0.0310  1.2050 -0.8721
 3272SOL    HW211749   2.228   3.358   6.164  0.5368 -1.0795 -2.4158
 3273SOL     OW11750   6.496   1.434   2.242  0.0543 -0.0666  0.2012
 3273SOL    HW111751   6.422   1.373   2.246  0.4788 -0.5252  2.4629
 3273SOL    HW211752   6.570   1.380   2.214 -0.2854  0.2495 -1.4019
 3274SOL     OW11753   6.943   6.250   4.686  0.4813  0.5210  0.0635
 3274SOL    HW111754   6.864   6.261   4.634  2.7603 -0.1867 -3.9551
 3274SOL    HW211755   6.972   6.339   4.706  0.5289  0.8948 -1.5842
 3275SOL     OW11756   4.027   6.180   7.808 -0.1373  0.0839  0.3954
 3275SOL    HW111757   3.990   6.095   7.832 -0.1614 -0.4816 -1.4817
 3275SOL    HW211758   3.982   6.204   7.726  0.1800  1.7070  0.6543
 3276SOL     OW11759   0.743   3.168   5.034 -0.1124 -0.4840 -0.0681
 3276SOL    HW111760   0.659   3.147   5.075 -0.7842  1.4291 -0.3664
 3276SOL    HW211761   0.790   3.085   5.033 -2.4568 -1.9218 -0.9914
 3277SOL     OW11762   3.257   4.095   6.801  0.1700  0.1207 -0.3334
 3277SOL    HW111763   3.311   4.026   6.839 -0.6339 -0.9912 -1.1260
 3277SOL    HW211764   3.316   4.146   6.747  0.5655 -0.6373 -0.6242
 3278SOL     OW11765   0.596   1.047   1.950 -0.2502 -0.0229  0.4142
 3278SOL    HW111766   0.646   0.976   1.908  2.3464  0.4698  2.4079
 3278SOL    HW211767   0.543   1.084   1.879  0.7307 -1.9026 -1.4124
 3279SOL     OW11768   2.445   8.132   7.464 -0.2000 -0.4616 -0.1009
 3279SOL    HW111769   2.361   8.099   7.497 -0.1482 -0.1905  0.3009
 3279SOL    HW211770   2.499   8.053   7.454  0.0976 -0.4662  1.3533
 3280SOL     OW11771   4.094   5.833   5.491  0.2564  0.2768  0.0455
 3280SOL    HW111772   4.162   5.792   5.439  1.3528  1.8655  0.1533
 3280SOL    HW211773   4.133   5.845   5.577 -1.1164 -1.2087  0.9407
 3281SOL     OW11774   2.310   8.544   7.868 -0.1939 -0.6991 -0.1899
 3281SOL    HW111775   2.348   8.614   7.922  2.7767 -1.3408 -1.2586
 3281SOL    HW211776   2.275   8.482   7.931  1.4379 -0.5021  0.9708
 3282SOL     OW11777   6.161   2.140   1.115  0.1159  0.4201 -0.5725
 3282SOL    HW111778   6.221   2.214   1.122 -0.9261  1.1469  2.0519
 3282SOL    HW211779   6.092   2.159   1.179 -1.3393 -1.8095 -1.3435
 3283SOL     OW11780   8.050   1.506   8.515  0.3064 -0.6430  0.1961
 3283SOL    HW111781   7.979   1.442   8.522  1.9567 -2.6853 -0.5778
 3283SOL    HW211782   8.034   1.569   8.585 -3.1368 -0.0498 -0.9414
 3284SOL     OW11783   6.897   0.067   0.718 -0.3886 -0.2206  0.0465
 3284SOL    HW111784   6.856  -0.006   0.672 -0.3144  0.2582 -0.7910
 3284SOL    HW211785   6.825   0.127   0.737 -0.3021 -0.0534 -0.1466
 3285SOL     OW11786   3.679   8.232   5.671 -0.2060  0.2658  0.4786
 3285SOL    HW111787   3.767   8.232   5.708  0.1023  0.2352 -0.2419
 3285SOL    HW211788   3.646   8.320   5.688  0.5048  0.7378 -0.4908
 3286SOL     OW11789   8.421   1.458   8.702  0.2077  0.0309 -0.0894
 3286SOL    HW111790   8.412   1.553   8.712  0.9004  0.2235 -1.2157
 3286SOL    HW211791   8.373   1.437   8.622  2.8098 -0.0528 -1.7408
 3287SOL     OW11792   3.163   6.159   0.478 -0.0803  0.3153 -0.5165
 3287SOL    HW111793   3.227   6.089   0.492 -0.8520 -0.6182 -1.4382
 3287SOL    HW211794   3.160   6.169   0.383 -0.6386  0.9978 -0.4327
 3288SOL     OW11795   5.204   7.404   5.322 -0.1132 -0.1238  0.8556
 3288SOL    HW111796   5.179   7.367   5.238 -1.5870  0.8669  0.8157
 3288SOL    HW211797   5.285   7.358   5.345 -0.4563 -1.4520 -0.3926
 3289SOL     OW11798   2.542   1.792   6.864 -0.0438  0.4918  0.0642
 3289SOL    HW111799   2.533   1.887   6.855  3.1830  0.9443  0.4409
 3289SOL    HW211800   2.495   1.771   6.944  0.6509  2.0733  0.9320
 3290SOL     OW11801   6.231   2.932   8.779  0.3365 -0.2926  0.0699
 3290SOL    HW111802   6.198   2.846   8.807  0.6552 -0.1573  0.9064
 3290SOL    HW211803   6.177   2.995   8.827  1.6839 -0.0694  1.3938
 3291SOL     OW11804   8.847   7.051   7.138 -0.0231 -0.3032 -0.6423
 3291SOL    HW111805   8.864   7.058   7.232 -0.7423 -3.1721 -0.1925
 3291SOL    HW211806   8.870   7.137   7.102 -0.2738  1.0612  2.2112
 3292SOL     OW11807   7.598   7.851   1.571 -0.5386 -0.1622 -0.0837
 3292SOL    HW111808   7.558   7.842   1.484  2.3298 -0.8364 -1.4449
 3292SOL    HW211809   7.642   7.767   1.585  2.7401  1.4286 -0.0507
 3293SOL     OW11810   4.886   3.212   4.282 -0.2792 -0.4738 -0.2398
 3293SOL    HW111811   4.952   3.281   4.287 -1.8520  1.0371  0.7148
 3293SOL    HW211812   4.933   3.136   4.247  2.6217 -0.2942  2.8056
 3294SOL     OW11813   8.394   4.294   7.066  0.7394  0.1747 -0.1141
 3294SOL    HW111814   8.400   4.201   7.085  1.6304 -0.1834 -1.9957
 3294SOL    HW211815   8.301   4.314   7.073  0.5829 -0.7527  0.6544
 3295SOL     OW11816   0.522   0.406   4.563  0.5352 -0.3592 -0.0444
 3295SOL    HW111817   0.460   0.401   4.635 -0.1594  0.4461 -0.5674
 3295SOL    HW211818   0.470   0.387   4.485  0.9509  0.2109 -0.4756
 3296SOL     OW11819   4.372   7.500   3.851 -0.1072 -0.2726 -0.2098
 3296SOL    HW111820   4.384   7.417   3.804 -0.4636 -0.8809  0.7400
 3296SOL    HW211821   4.326   7.476   3.931  1.1203  0.6295  0.8106
 3297SOL     OW11822   7.291   2.311   5.705 -0.2898  0.1954 -0.3719
 3297SOL    HW111823   7.325   2.342   5.788  0.9664 -0.4487 -0.6167
 3297SOL    HW211824   7.214   2.366   5.688 -1.0401 -0.1687  1.5642
 3298SOL     OW11825   3.915   8.667   8.419  0.4810  0.2276 -0.4433
 3298SOL    HW111826   3.886   8.712   8.341  1.0550 -1.3229 -1.6022
 3298SOL    HW211827   4.010   8.661   8.410  0.6638  0.7873  0.8146
 3299SOL     OW11828   3.911   7.828   2.411  0.1333 -0.1095  0.3655
 3299SOL    HW111829   3.883   7.915   2.440  0.1945  0.2259 -0.5392
 3299SOL    HW211830   3.928   7.780   2.491  0.2777  0.7768  0.8775
 3300SOL     OW11831   6.908   6.930   4.984  0.7776  0.3084  0.4143
 3300SOL    HW111832   6.968   6.973   5.045 -2.0422  3.1281  1.4215
 3300SOL    HW211833   6.899   6.992   4.912  1.4228 -1.5066 -1.3209
 3301SOL     OW11834   3.669   3.006   7.868 -0.0420  0.7786 -0.1887
 3301SOL    HW111835   3.636   3.007   7.779  0.0856 -2.3680 -0.3897
 3301SOL    HW211836   3.619   3.073   7.914 -2.7190 -0.0060 -1.7886
 3302SOL     OW11837   4.216   1.242   3.447  0.1279 -0.1235 -0.3018
 3302SOL    HW111838   4.308   1.254   3.471 -0.5062  1.4339  1.6454
 3302SOL    HW211839   4.218   1.222   3.354  2.4043  0.4029 -0.4279
 3303SOL     OW11840   6.324   1.304   4.124 -0.1238 -0.0880  0.1237
 3303SOL    HW111841   6.241   1.266   4.153  0.1425 -0.1761  0.7911
 3303SOL    HW211842   6.300   1.367   4.057 -0.7318 -0.0932  0.3334
 3304SOL     OW11843   5.557   4.569   5.895 -0.0733 -0.5728 -0.4169
 3304SOL    HW111844   5.517   4.623   5.827 -1.6739 -1.6287 -0.3878
 3304SOL    HW211845   5.619   4.627   5.939  0.5843  0.3002 -2.3796
 3305SOL     OW11846   1.283   8.755   8.042  0.0884  0.4441  0.3203
 3305SOL    HW111847   1.339   8.678   8.047 -0.7589 -0.3900 -1.9667
 3305SOL    HW211848   1.326   8.813   7.979 -0.4037  0.8568  0.3527
 3306SOL     OW11849   6.984   2.498   4.722 -0.1667 -0.5484 -0.5451
 3306SOL    HW111850   7.006   2.427   4.662  2.7280 -0.3843  0.1559
 3306SOL    HW211851   7.031   2.476   4.803 -0.5295  1.3218  0.2157
 3307SOL     OW11852   7.845   2.785   3.013 -0.2897 -0.9391  0.7048
 3307SOL    HW111853   7.909   2.714   3.016  2.5976  1.4976  2.3589
 3307SOL    HW211854   7.816   2.795   3.104  0.2293  0.6056  0.7397
 3308SOL     OW11855   5.168   6.566   4.670  0.2623 -0.2181  0.0170
 3308SOL    HW111856   5.222   6.639   4.700  2.9035 -1.5773 -1.0866
 3308SOL    HW211857   5.187   6.495   4.732 -0.3707 -0.6842 -0.3039
 3309SOL     OW11858   3.650   0.166   2.424  0.8254  0.0697 -0.2344
 3309SOL    HW111859   3.714   0.213   2.370  1.8701 -1.7879 -0.6816
 3309SOL    HW211860   3.566   0.201   2.397  1.4719  0.6401 -1.6079
 3310SOL     OW11861   7.731   4.388   1.707 -0.0479 -0.4589 -0.4817
 3310SOL    HW111862   7.671   4.397   1.633 -0.1787 -1.6738 -0.5546
 3310SOL    HW211863   7.818   4.383   1.667  0.0086  0.2736 -0.4513
 3311SOL     OW11864   5.358   2.277   8.436 -0.0226  0.5255 -0.0409
 3311SOL    HW111865   5.450   2.280   8.412  0.1397 -1.3885  0.2514
 3311SOL    HW211866   5.346   2.191   8.476 -2.0680  0.4986 -0.6109
 3312SOL     OW11867   3.923   3.474   3.366  0.4496 -0.4098  0.0704
 3312SOL    HW111868   3.869   3.416   3.421  0.8700  0.5201  1.5265
 3312SOL    HW211869   3.984   3.415   3.322 -1.8444 -1.5320 -1.8430
 3313SOL     OW11870   1.874   3.456   8.087  0.2862 -0.2278  0.0023
 3313SOL    HW111871   1.867   3.548   8.111  0.2287  0.5683 -2.7355
 3313SOL    HW211872   1.964   3.445   8.059  0.4282 -1.1604  0.7765
 3314SOL     OW11873   7.582   4.299   7.591  0.5168 -0.2290 -0.2888
 3314SOL    HW111874   7.506   4.265   7.543 -0.4129  2.0176 -0.5330
 3314SOL    HW211875   7.601   4.232   7.657 -2.0429 -0.6406  0.1282
 3315SOL     OW11876   5.260   5.293   6.438 -0.2127  0.2495 -0.0078
 3315SOL    HW111877   5.179   5.285   6.488 -0.6137  1.4998 -0.4245
 3315SOL    HW211878   5.310   5.360   6.485 -0.3330  0.9980 -0.9167
 3316SOL     OW11879   7.371   2.350   8.378  0.0676 -0.7633 -0.3686
 3316SOL    HW111880   7.352   2.307   8.295 -0.6021  0.1041 -0.6861
 3316SOL    HW211881   7.436   2.294   8.421 -1.1039 -2.3202 -0.5464
 3317SOL     OW11882   6.448   5.067   8.213  0.0559  0.1606  0.4327
 3317SOL    HW111883   6.526   5.107   8.174 -0.6070  2.1293  1.0025
 3317SOL    HW211884   6.457   5.085   8.307 -0.6512 -0.3788  0.6133
 3318SOL     OW11885   2.650   2.408   1.388  0.9253 -0.0292 -0.2079
 3318SOL    HW111886   2.666   2.378   1.298 -1.4120  0.2132 -0.7602
 3318SOL    HW211887   2.700   2.489   1.396  1.8754 -0.5194 -0.9677
 3319SOL     OW11888   7.312   4.374   0.048 -0.0163 -0.7646  0.2729
 3319SOL    HW111889   7.333   4.395  -0.044  0.3544 -0.7834  0.3520
 3319SOL    HW211890   7.274   4.286   0.044 -2.2375  0.1366 -0.1520
 3320SOL     OW11891   4.197   5.748   0.188 -0.0558 -0.2091  0.2292
 3320SOL    HW111892   4.226   5.806   0.118 -1.7429  0.3131 -0.0686
 3320SOL    HW211893   4.106   5.728   0.167 -1.3719  1.7170  3.3600
 3321SOL     OW11894   4.200   6.453   0.076 -0.0122 -0.6907 -0.2732
 3321SOL    HW111895   4.284   6.461   0.032  0.3413 -1.5997  0.2057
 3321SOL    HW211896   4.135   6.452   0.005  0.5718 -2.5623 -0.8303
 3322SOL     OW11897   5.704   5.774   8.789 -1.2152 -0.2386 -0.5963
 3322SOL    HW111898   5.637   5.800   8.726 -2.0829 -1.1783 -0.0866
 3322SOL    HW211899   5.659   5.771   8.873  0.2190  2.2024  0.3344
 3323SOL     OW11900   2.508   2.787   8.296  0.0345 -0.5716  0.2854
 3323SOL    HW111901   2.482   2.822   8.211 -0.8213 -0.1439  0.7182
 3323SOL    HW211902   2.481   2.853   8.360  0.7195 -0.8566  0.8926
 3324SOL     OW11903   4.676   0.446   7.042  0.1798 -0.2833 -0.1531
 3324SOL    HW111904   4.620   0.475   6.971 -0.9367 -0.9593  0.4156
 3324SOL    HW211905   4.646   0.357   7.061  1.5782 -0.7331  0.0533
 3325SOL     OW11906   7.874   1.808   5.679 -0.3889 -0.1885  0.1849
 3325SOL    HW111907   7.862   1.874   5.611 -2.6402 -0.7669 -0.0718
 3325SOL    HW211908   7.947   1.840   5.732  0.1074  1.2858 -1.2998
 3326SOL     OW11909   7.804   2.218   0.057 -0.7497 -0.1738 -0.1069
 3326SOL    HW111910   7.780   2.308   0.035  1.8000  0.6384  0.1650
 3326SOL    HW211911   7.890   2.204   0.018  1.3513 -0.6411  4.0409
 3327SOL     OW11912   3.813   8.461   7.019 -0.0491 -0.3169 -0.0250
 3327SOL    HW111913   3.887   8.482   6.963 -1.5347  1.6763 -1.3989
 3327SOL    HW211914   3.785   8.374   6.990 -1.2890  0.9638 -3.2012
 3328SOL     OW11915   5.747   4.139   4.646 -0.3963 -0.0081 -0.3527
 3328SOL    HW111916   5.660   4.172   4.669 -1.0747 -1.9967  0.1986
 3328SOL    HW211917   5.733   4.045   4.631  1.4384 -0.1540 -1.5126
 3329SOL     OW11918   8.798   3.612   6.822 -0.0782  0.4429 -0.1364
 3329SOL    HW111919   8.719   3.616   6.876 -0.2039 -0.7247 -0.2062
 3329SOL    HW211920   8.855   3.549   6.866  1.2608  1.9616  0.4405
 3330SOL     OW11921   7.682   3.874   2.255 -0.2859  0.0890 -0.0307
 3330SOL    HW111922   7.661   3.790   2.214 -0.7022  0.4605 -0.5974
 3330SOL    HW211923   7.641   3.870   2.341 -1.5507  0.2577 -0.5957
 3331SOL     OW11924   2.353   2.565   8.492  0.0635 -1.0429 -0.2053
 3331SOL    HW111925   2.396   2.620   8.427 -1.3081  0.1355 -0.1529
 3331SOL    HW211926   2.417   2.496   8.511  1.0865 -0.5364 -1.6507
 3332SOL     OW11927   4.497   1.082   5.654  0.5071  0.1653 -0.1390
 3332SOL    HW111928   4.442   1.093   5.732  0.4781  0.2202 -0.1666
 3332SOL    HW211929   4.571   1.030   5.684  0.3441 -0.0730 -0.1453
 3333SOL     OW11930   1.139   3.753   4.571 -0.0382 -0.1548  0.0540
 3333SOL    HW111931   1.069   3.746   4.507  2.4269  0.3249 -2.9363
 3333SOL    HW211932   1.169   3.844   4.566  0.0203 -0.0010  2.2042
 3334SOL     OW11933   2.419   0.649   7.441 -0.1934 -0.0872  0.2719
 3334SOL    HW111934   2.337   0.683   7.405 -0.3431 -0.5116  0.2071
 3334SOL    HW211935   2.472   0.727   7.458  0.0664  0.1052 -1.2840
 3335SOL     OW11936   6.083   3.256   6.536  0.1405 -0.1330 -0.4128
 3335SOL    HW111937   6.067   3.298   6.452  2.4202 -2.1744 -2.0156
 3335SOL    HW211938   6.052   3.319   6.601 -2.1705  1.3197 -2.7385
 3336SOL     OW11939   2.687   2.675   2.085 -0.0505  0.2513 -0.0831
 3336SOL    HW111940   2.617   2.629   2.038 -1.3370  1.1203  0.8870
 3336SOL    HW211941   2.659   2.672   2.177  2.2867 -1.2296  0.6515
 3337SOL     OW11942   6.537   3.631   5.542 -0.1045 -0.3339 -0.0134
 3337SOL    HW111943   6.530   3.657   5.450 -0.9835 -0.5181 -0.0105
 3337SOL    HW211944   6.618   3.673   5.573 -1.0229  1.7179 -0.2229
 3338SOL     OW11945   7.068   5.508   3.000  0.2565  0.7130 -0.4790
 3338SOL    HW111946   7.050   5.490   3.092  2.1035  0.6209 -0.1099
 3338SOL    HW211947   6.986   5.487   2.955 -1.4343  2.9136  1.3665
 3339SOL     OW11948   1.602   4.385   1.625  0.3606 -0.6163 -0.1574
 3339SOL    HW111949   1.676   4.353   1.676 -0.7512 -0.6239  1.5385
 3339SOL    HW211950   1.537   4.315   1.629 -0.1641 -0.1785 -0.7121
 3340SOL     OW11951   6.241   3.780   7.913 -0.0065 -0.5885  0.1183
 3340SOL    HW111952   6.265   3.704   7.860 -0.3996 -1.5048  1.1998
 3340SOL    HW211953   6.251   3.749   8.004 -3.9328 -0.6968  0.6949
 3341SOL     OW11954   5.306   4.587   7.630 -0.2875 -0.4111  0.6373
 3341SOL    HW111955   5.286   4.646   7.558 -0.6897 -1.7179 -0.3651
 3341SOL    HW211956   5.402   4.587   7.636 -0.2932  0.4404  0.7524
 3342SOL     OW11957   3.812   2.613   5.377 -0.2022 -0.6924  0.8172
 3342SOL    HW111958   3.739   2.567   5.335  0.2876  0.6903 -1.7566
 3342SOL    HW211959   3.830   2.687   5.320  2.9477 -0.7151  1.5860
 3343SOL     OW11960   3.410   2.986   6.187  0.6068 -0.4003 -0.0355
 3343SOL    HW111961   3.398   2.996   6.093  0.4178 -1.2162 -0.1002
 3343SOL    HW211962   3.321   2.994   6.223  0.7291  0.3434  0.1230
 3344SOL     OW11963   0.501   5.061   4.204  0.1833 -0.2032 -0.0114
 3344SOL    HW111964   0.472   5.090   4.118  0.0599 -0.2502  0.0147
 3344SOL    HW211965   0.586   5.019   4.188  0.8317  1.0162  0.0794
 3345SOL     OW11966   0.296   6.713   2.526 -0.1080  0.5957 -0.1099
 3345SOL    HW111967   0.351   6.651   2.477  1.3086 -1.4565  3.6423
 3345SOL    HW211968   0.356   6.783   2.551 -0.5234  1.0353 -0.3324
 3346SOL     OW11969   6.882   3.009   7.888 -0.0246 -0.3481  0.6255
 3346SOL    HW111970   6.865   3.063   7.810 -1.3800 -0.2791  0.9449
 3346SOL    HW211971   6.803   2.957   7.898 -0.1834  0.1940  2.4001
 3347SOL     OW11972   6.654   7.264   2.789  0.0628  0.0901 -0.1469
 3347SOL    HW111973   6.715   7.337   2.781 -0.1632  0.3815  0.7190
 3347SOL    HW211974   6.615   7.274   2.876  0.2655 -1.2492  0.1178
 3348SOL     OW11975   4.685   1.119   6.021 -0.2582  0.7023  0.2939
 3348SOL    HW111976   4.690   1.143   6.113 -0.2968 -1.4163  0.8849
 3348SOL    HW211977   4.616   1.053   6.016 -2.0403  2.5725 -1.6993
 3349SOL     OW11978   3.006   7.553   8.145  0.0959  0.0255 -0.3939
 3349SOL    HW111979   2.958   7.549   8.228  1.0250  0.7210  0.1982
 3349SOL    HW211980   2.989   7.641   8.112  2.1200  0.8390  0.5737
 3350SOL     OW11981   5.108   0.445   7.833 -0.1054 -0.0070  0.3292
 3350SOL    HW111982   5.118   0.494   7.752  2.0760 -0.0359  0.5300
 3350SOL    HW211983   5.115   0.511   7.902  1.2294 -0.3672  0.5569
 3351SOL     OW11984   8.591   0.798   6.023  0.3795 -0.6543  0.0582
 3351SOL    HW111985   8.537   0.867   6.062  1.3247  0.2248 -0.1369
 3351SOL    HW211986   8.529   0.741   5.978 -0.4500 -0.1030  0.4702
 3352SOL     OW11987   2.366   0.703   3.311 -0.4134 -0.0004 -0.5465
 3352SOL    HW111988   2.281   0.662   3.323 -0.9875 -0.1161 -3.9541
 3352SOL    HW211989   2.348   0.783   3.262  1.2153  1.5480  1.2071
 3353SOL     OW11990   1.516   4.205   6.424  0.1520 -0.3042  0.2655
 3353SOL    HW111991   1.425   4.175   6.425 -0.2885  0.9930  0.2591
 3353SOL    HW211992   1.518   4.274   6.359  0.8618  0.5306  1.1506
 3354SOL     OW11993   3.801   4.173   6.412 -0.2845 -0.6313 -0.2610
 3354SOL    HW111994   3.756   4.124   6.343  1.1109  0.4488 -2.0225
 3354SOL    HW211995   3.868   4.223   6.366 -1.0222  2.2435  1.5385
 3355SOL     OW11996   8.099   0.997   3.288 -0.0017 -0.2297  0.0236
 3355SOL    HW111997   8.084   0.915   3.336  0.8654 -0.4310 -0.0369
 3355SOL    HW211998   8.109   1.063   3.356 -0.9836 -0.1063  0.0699
 3356SOL     OW11999   1.425   7.543   1.812 -0.0898  0.0695  0.4040
 3356SOL    HW112000   1.487   7.484   1.855 -1.0925  0.1281  2.0211
 3356SOL    HW212001   1.458   7.631   1.832 -1.9598  0.2241  3.5706
 3357SOL     OW12002   7.126   1.556   6.419 -0.4592 -0.2016  0.0891
 3357SOL    HW112003   7.067   1.598   6.482 -0.3005 -0.6299  0.5255
 3357SOL    HW212004   7.098   1.465   6.418  0.6292 -0.5588  0.8119
 3358SOL     OW12005   6.300   0.153   4.546 -0.1596  0.4387 -0.0341
 3358SOL    HW112006   6.230   0.096   4.580  0.0702 -1.2781 -2.2543
 3358SOL    HW212007   6.257   0.209   4.482  0.0827  1.1376  0.3949
 3359SOL     OW12008   6.486   6.058   8.822 -0.7501  0.4332  0.3111
 3359SOL    HW112009   6.460   6.140   8.780 -0.8414  0.8347  1.1285
 3359SOL    HW212010   6.569   6.035   8.780 -1.4762  0.1189 -1.0081
 3360SOL     OW12011   1.781   1.724   4.298 -0.7634 -0.0890  0.5131
 3360SOL    HW112012   1.847   1.790   4.277  0.1908 -0.6428  1.6632
 3360SOL    HW212013   1.831   1.644   4.312 -1.6989 -0.5730  1.1881
 3361SOL     OW12014   0.934   0.516   7.455  0.6091  0.0887 -0.5006
 3361SOL    HW112015   0.905   0.601   7.489 -0.4438  0.2052 -1.6380
 3361SOL    HW212016   1.007   0.539   7.397  1.8199 -0.0292  0.9090
 3362SOL     OW12017   8.173   1.576   8.291  0.7899 -0.5744 -0.0433
 3362SOL    HW112018   8.147   1.665   8.267  0.6473 -0.9100 -1.2093
 3362SOL    HW212019   8.127   1.559   8.373 -0.4516 -0.1394 -0.6221
 3363SOL     OW12020   4.450   8.189   4.743  0.3686 -0.2350 -0.3764
 3363SOL    HW112021   4.452   8.284   4.732  3.4090  0.1843  2.3457
 3363SOL    HW212022   4.386   8.174   4.812 -1.5581 -0.4905 -2.1087
 3364SOL     OW12023   8.844   3.799   8.104  0.3478 -0.6154  0.3708
 3364SOL    HW112024   8.765   3.839   8.139 -0.2387 -0.7491 -0.7499
 3364SOL    HW212025   8.817   3.710   8.078  1.0465 -0.9200  0.6615
 3365SOL     OW12026   2.357   6.939   0.870 -0.4398  0.2531 -0.2792
 3365SOL    HW112027   2.301   6.902   0.802 -1.0150  0.5605  0.0187
 3365SOL    HW212028   2.305   6.933   0.950 -0.2085  0.9200 -0.0687
 3366SOL     OW12029   2.698   6.998   6.734  1.1146 -0.3903  0.2186
 3366SOL    HW112030   2.603   6.997   6.749  1.1322 -0.7657  0.3254
 3366SOL    HW212031   2.725   7.087   6.754  0.9918 -0.6237  1.5136
 3367SOL     OW12032   8.680   3.638   0.200 -0.5216  0.0691  0.7907
 3367SOL    HW112033   8.656   3.725   0.170 -0.8618 -0.5863 -0.9741
 3367SOL    HW212034   8.654   3.580   0.129  3.2451 -1.0855  0.1085
 3368SOL     OW12035   3.679   7.359   3.031 -0.0643 -0.0403  0.4073
 3368SOL    HW112036   3.610   7.293   3.029  2.3486 -2.6924 -0.4680
 3368SOL    HW212037   3.744   7.325   3.092  1.3460  1.4514 -0.1878
 3369SOL     OW12038   7.078   4.639   4.022 -0.4730 -0.4479  0.5426
 3369SOL    HW112039   7.151   4.656   3.962 -1.6052  0.6083 -0.6188
 3369SOL    HW212040   7.099   4.555   4.062  0.7539 -0.7856 -0.6994
 3370SOL     OW12041   1.062   1.803   1.559  0.0930 -0.3352  0.2625
 3370SOL    HW112042   1.116   1.788   1.482 -0.5392  0.4065 -0.3455
 3370SOL    HW212043   1.119   1.851   1.619  0.5024 -0.6778  0.1518
 3371SOL     OW12044   5.424   3.953   6.117  0.1675 -0.5481 -0.1055
 3371SOL    HW112045   5.440   3.861   6.098  0.5320 -0.3407 -0.8553
 3371SOL    HW212046   5.484   3.973   6.189  1.0439 -0.5765 -0.8102
 3372SOL     OW12047   4.462   6.724   4.649  0.3354  0.1246  0.3904
 3372SOL    HW112048   4.406   6.761   4.581 -0.5946 -0.3529  0.8717
 3372SOL    HW212049   4.404   6.711   4.723  0.4158 -2.9273  0.0431
 3373SOL     OW12050   0.026   0.638   1.099 -0.0421  0.6417  0.1962
 3373SOL    HW112051   0.064   0.613   1.184  2.6447 -0.8338 -1.2752
 3373SOL    HW212052  -0.068   0.645   1.115  0.1719 -1.2264  2.9389
 3374SOL     OW12053   5.667   8.359   4.475  0.5646  0.2040  0.3928
 3374SOL    HW112054   5.699   8.351   4.385  0.5478 -2.6109  0.5580
 3374SOL    HW212055   5.742   8.335   4.529  0.7240  2.3305  1.2280
 3375SOL     OW12056   3.165   6.800   3.126 -0.6734  0.0456  0.0034
 3375SOL    HW112057   3.132   6.714   3.101 -0.8973  0.6113 -1.7599
 3375SOL    HW212058   3.102   6.832   3.191 -1.9592 -0.1302 -1.1133
 3376SOL     OW12059   3.311   2.398   5.059 -0.8556 -0.0607  0.2205
 3376SOL    HW112060   3.220   2.399   5.032 -1.0070 -1.5892  0.6019
 3376SOL    HW212061   3.310   2.436   5.147 -0.5461  3.5495 -1.1247
 3377SOL     OW12062   7.313   3.278   5.867 -0.1574 -0.5756  0.3712
 3377SOL    HW112063   7.350   3.365   5.884  0.2791 -0.7139  0.1261
 3377SOL    HW212064   7.219   3.289   5.884 -0.2045  0.1124 -0.2771
 3378SOL     OW12065   8.213   5.492   8.044 -0.2667 -0.2315 -0.0274
 3378SOL    HW112066   8.228   5.461   8.133 -1.3457 -0.9366 -0.0754
 3378SOL    HW212067   8.123   5.467   8.024 -0.2451  0.4571 -1.1020
 3379SOL     OW12068   0.772   2.204   0.703  0.0442 -0.1196  0.4219
 3379SOL    HW112069   0.707   2.184   0.770  0.7936  1.0965  1.5657
 3379SOL    HW212070   0.723   2.206   0.621 -1.3419  0.5999  1.2430
 3380SOL     OW12071   0.233   1.967   7.182  0.1887  0.4530  0.2947
 3380SOL    HW112072   0.255   1.973   7.089  1.2501 -1.2808  0.3936
 3380SOL    HW212073   0.313   1.994   7.227  0.4676 -0.9082  0.6675
 3381SOL     OW12074   6.311   5.265   5.577 -0.4461 -0.4830 -0.0970
 3381SOL    HW112075   6.248   5.206   5.618  0.6237 -1.7911 -0.2813
 3381SOL    HW212076   6.269   5.291   5.494 -1.0762 -0.6830  0.1530
 3382SOL     OW12077   0.682   0.326   1.582  0.1660  0.4215 -0.9700
 3382SOL    HW112078   0.718   0.241   1.556 -0.5380  0.4523 -2.1524
 3382SOL    HW212079   0.603   0.305   1.632  0.7095  0.3720 -0.1292
 3383SOL     OW12080   7.434   3.509   7.617 -0.0790  0.0812 -0.2161
 3383SOL    HW112081   7.455   3.448   7.545 -1.0835 -0.8868  0.2697
 3383SOL    HW212082   7.517   3.524   7.661  0.1947 -1.0079 -0.3198
 3384SOL     OW12083   2.676   7.172   4.114  0.7501 -0.0130 -0.3420
 3384SOL    HW112084   2.660   7.243   4.176 -0.7594 -0.6326  0.0278
 3384SOL    HW212085   2.630   7.199   4.034  0.8346 -0.2186 -0.4625
 3385SOL     OW12086   7.462   8.832   3.966 -0.1811  0.8585  0.6416
 3385SOL    HW112087   7.434   8.819   3.875 -3.0212  1.5245  1.3158
 3385SOL    HW212088   7.472   8.744   4.001  1.7943  0.5771 -0.4919
 3386SOL     OW12089   3.830   2.243   2.538 -0.6399 -0.3481  0.0058
 3386SOL    HW112090   3.747   2.207   2.509 -0.1416 -0.5780 -1.2270
 3386SOL    HW212091   3.826   2.335   2.513  0.7246 -1.0194 -3.2170
 3387SOL     OW12092   0.625   1.703   8.454 -0.2114 -0.5473 -0.0223
 3387SOL    HW112093   0.675   1.770   8.501 -0.1685 -1.0483  0.6612
 3387SOL    HW212094   0.535   1.736   8.455  0.3385  1.4466 -3.1690
 3388SOL     OW12095   8.396   6.125   4.061 -0.1478 -0.3472  0.2895
 3388SOL    HW112096   8.433   6.038   4.052  1.5232  0.3318  0.2655
 3388SOL    HW212097   8.419   6.152   4.150 -1.1463 -0.1372  0.4990
 3389SOL     OW12098   2.914   2.996   0.373  0.4656  0.1128  0.0654
 3389SOL    HW112099   2.908   2.945   0.454 -2.7429  1.4384  0.7988
 3389SOL    HW212100   2.977   3.065   0.392  0.4346 -0.1397  1.1192
 3390SOL     OW12101   3.844   3.106   7.384  0.1210  0.1892  0.6217
 3390SOL    HW112102   3.840   3.160   7.464  0.8349 -1.8768  2.1422
 3390SOL    HW212103   3.842   3.016   7.416  1.9968 -0.7464 -1.6124
 3391SOL     OW12104   3.993   0.959   2.997 -0.2663  0.6274  0.0496
 3391SOL    HW112105   4.012   0.970   3.090 -1.5389  0.2011  0.3888
 3391SOL    HW212106   3.998   0.865   2.982 -0.1786  0.6835 -0.2816
 3392SOL     OW12107   5.544   7.853   2.984 -0.6921 -0.0206  0.0157
 3392SOL    HW112108   5.563   7.945   3.005 -0.4302 -0.4363  1.7475
 3392SOL    HW212109   5.467   7.832   3.037  0.4760 -1.3599  1.2580
 3393SOL     OW12110   8.145   7.694   4.867 -0.3720 -0.2028 -0.1508
 3393SOL    HW112111   8.205   7.761   4.835 -1.5089  1.3951  0.8860
 3393SOL    HW212112   8.190   7.611   4.850  0.9354  0.7765 -1.7914
 3394SOL     OW12113   3.653   1.916   4.649  0.0049  0.6797  0.4532
 3394SOL    HW112114   3.676   1.895   4.740 -1.4666 -2.4784  0.2383
 3394SOL    HW212115   3.558   1.930   4.652  0.0165  0.9649 -0.5157
 3395SOL     OW12116   0.304   8.567   2.763 -0.5235 -0.4625  0.4233
 3395SOL    HW112117   0.282   8.610   2.681  0.0861 -3.6599 -1.5865
 3395SOL    HW212118   0.220   8.540   2.800 -0.6927 -1.6962 -0.7942
 3396SOL     OW12119   7.024   3.972   2.151  0.1077 -0.0818 -0.5054
 3396SOL    HW112120   7.004   3.901   2.091  1.3841 -0.6710 -0.2653
 3396SOL    HW212121   6.999   4.051   2.103 -1.8912 -0.6862 -0.5391
 3397SOL     OW12122   2.863   7.643   4.937 -0.3009 -0.1911  0.1868
 3397SOL    HW112123   2.958   7.634   4.925 -0.4327 -1.5440  0.0411
 3397SOL    HW212124   2.852   7.656   5.031 -0.0569 -1.3910  0.3887
 3398SOL     OW12125   5.115   6.979   0.117  0.1842  0.2021 -0.1037
 3398SOL    HW112126   5.170   6.936   0.183  0.3428 -1.8641 -1.4735
 3398SOL    HW212127   5.129   7.072   0.131  0.9002 -0.1677  2.1811
 3399SOL     OW12128   2.551   5.292   7.944 -0.2790 -0.5080  0.0481
 3399SOL    HW112129   2.479   5.229   7.937  0.2042 -1.2471  1.4161
 3399SOL    HW212130   2.587   5.278   8.031  0.9054  0.5377 -0.2434
 3400SOL     OW12131   4.540   3.690   8.039  0.1815  0.0632 -0.1330
 3400SOL    HW112132   4.525   3.690   7.944 -0.5746  0.4098 -0.0164
 3400SOL    HW212133   4.517   3.778   8.067 -0.1626 -0.2146  0.4637
 3401SOL     OW12134   3.588   5.237   2.802  0.5061 -0.0232  0.4070
 3401SOL    HW112135   3.633   5.171   2.855  0.3922 -1.4251 -1.1700
 3401SOL    HW212136   3.552   5.188   2.728 -2.6545  1.2018  0.9686
 3402SOL     OW12137   2.622   6.351   4.066  0.0907  0.1080 -0.6693
 3402SOL    HW112138   2.587   6.414   4.003 -1.6055  1.1100  1.1854
 3402SOL    HW212139   2.700   6.393   4.101 -0.2947  0.6050 -0.3969
 3403SOL     OW12140   5.930   1.378   4.920 -0.2292  0.0728 -0.4139
 3403SOL    HW112141   5.837   1.399   4.909 -0.6946 -1.1636  0.7850
 3403SOL    HW212142   5.960   1.355   4.832 -1.4490 -0.9039 -0.6042
 3404SOL     OW12143   1.928   6.659   0.733 -0.3521  0.1760 -0.2200
 3404SOL    HW112144   1.844   6.688   0.697  0.1545  2.6553  0.3517
 3404SOL    HW212145   1.987   6.657   0.657  0.0102  2.5415 -0.0858
 3405SOL     OW12146   7.301   8.383   3.279 -0.1518 -0.0530 -0.3695
 3405SOL    HW112147   7.267   8.472   3.269  0.6191  0.7485  2.8484
 3405SOL    HW212148   7.223   8.329   3.292 -0.6007  0.1557 -1.9424
 3406SOL     OW12149   4.255   7.481   8.141 -0.1625 -0.0518  0.1590
 3406SOL    HW112150   4.257   7.567   8.182  0.0845  0.8376 -1.5872
 3406SOL    HW212151   4.194   7.491   8.067  0.8399 -0.9804 -0.8487
 3407SOL     OW12152   0.426   4.494   0.971  0.0052  0.3758 -0.3283
 3407SOL    HW112153   0.419   4.572   0.915 -1.3915  1.4316  1.2404
 3407SOL    HW212154   0.345   4.446   0.956  0.3842 -0.2227 -0.4791
 3408SOL     OW12155   3.162   5.764   2.428  0.3113 -0.0326  0.0592
 3408SOL    HW112156   3.124   5.688   2.471 -0.7152  1.2025  1.4423
 3408SOL    HW212157   3.146   5.836   2.489  3.7150  0.8301  0.1090
 3409SOL     OW12158   4.783   3.623   2.117  0.4495 -0.0612 -0.2203
 3409SOL    HW112159   4.786   3.573   2.199 -3.3634 -1.9033 -0.9486
 3409SOL    HW212160   4.731   3.701   2.139  2.4315  1.2992 -0.1659
 3410SOL     OW12161   6.252   5.048   2.069 -0.6424 -0.0235 -0.3669
 3410SOL    HW112162   6.316   5.118   2.072 -0.9336  0.2879 -1.1796
 3410SOL    HW212163   6.220   5.048   1.979  0.6698 -2.3790 -0.9239
 3411SOL     OW12164   8.196   2.531   1.600  0.4591  0.3433  0.5504
 3411SOL    HW112165   8.142   2.609   1.589  0.8816  0.6332  0.4970
 3411SOL    HW212166   8.144   2.473   1.656  0.1126  0.6327  0.5307
 3412SOL     OW12167   1.619   5.903   4.622 -0.0221 -0.0369 -0.4421
 3412SOL    HW112168   1.533   5.862   4.617  1.0280 -2.3122 -0.8476
 3412SOL    HW212169   1.656   5.872   4.705  0.2368  1.3223 -0.0235
 3413SOL     OW12170   0.211   3.119   5.062  0.1357 -0.4105  0.2838
 3413SOL    HW112171   0.160   3.131   5.142  0.1366 -0.4099  0.2847
 3413SOL    HW212172   0.275   3.052   5.084 -0.0460 -0.6162  0.1999
 3414SOL     OW12173   2.736   5.434   7.797  0.1812  0.0140  0.0164
 3414SOL    HW112174   2.822   5.393   7.802 -0.0954 -0.5588  0.1727
 3414SOL    HW212175   2.679   5.378   7.851 -0.2200  0.5561  0.1606
 3415SOL     OW12176   0.869   4.831   3.004  0.2707 -0.3368 -0.1136
 3415SOL    HW112177   0.824   4.882   3.072 -2.1258  1.2323 -2.6857
 3415SOL    HW212178   0.918   4.896   2.954 -1.2839 -0.7437 -2.2965
 3416SOL     OW12179   0.446   1.910   3.730 -0.0381  0.5271 -0.1143
 3416SOL    HW112180   0.434   1.929   3.823  0.2943  0.0495  0.0259
 3416SOL    HW212181   0.359   1.925   3.691 -0.1926  0.6597  0.2792
 3417SOL     OW12182   8.286   6.322   6.318 -0.2410 -0.5283 -0.2140
 3417SOL    HW112183   8.312   6.400   6.268  0.4258 -0.6209 -0.0211
 3417SOL    HW212184   8.196   6.306   6.292 -0.0284 -0.3371 -1.0866
 3418SOL     OW12185   4.275   6.404   1.669 -0.3323 -0.1721  0.1966
 3418SOL    HW112186   4.282   6.320   1.622 -1.0611 -0.7492  1.0815
 3418SOL    HW212187   4.196   6.394   1.722  0.3273  0.5713  1.3424
 3419SOL     OW12188   2.689   0.334   6.375  0.1827 -0.0585  0.7605
 3419SOL    HW112189   2.648   0.405   6.424 -0.3617 -0.4897  0.9356
 3419SOL    HW212190   2.756   0.378   6.322 -1.0341  0.7703 -0.1461
 3420SOL     OW12191   7.468   8.353   5.338  0.1864 -0.5606 -0.8028
 3420SOL    HW112192   7.444   8.379   5.427 -0.2169 -0.2903 -0.9814
 3420SOL    HW212193   7.547   8.403   5.319 -1.1169  1.3785 -1.4924
 3421SOL     OW12194   7.520   0.934   7.708  0.1890  0.1544  0.2997
 3421SOL    HW112195   7.573   0.857   7.689 -0.5486 -0.1449 -0.5683
 3421SOL    HW212196   7.484   0.961   7.624  0.2833  1.3403  0.6201
 3422SOL     OW12197   4.865   6.945   3.834  0.0715  0.2471  0.9739
 3422SOL    HW112198   4.818   6.928   3.916 -0.6698 -0.0262  0.5046
 3422SOL    HW212199   4.809   6.907   3.766  1.2584 -0.6324  0.4489
 3423SOL     OW12200   0.363   0.111   3.230  0.6938  0.3643 -0.3624
 3423SOL    HW112201   0.391   0.087   3.142 -0.8601  0.5762 -0.9381
 3423SOL    HW212202   0.338   0.027   3.270  2.5488  0.0998  0.3445
 3424SOL     OW12203   1.418   2.339   1.910  0.1741  0.3654 -0.1130
 3424SOL    HW112204   1.389   2.384   1.989  1.5313  1.1153 -0.0114
 3424SOL    HW212205   1.511   2.358   1.904  0.0804  0.4503 -1.9746
 3425SOL     OW12206   5.471   5.487   3.100  0.0719 -0.1630  0.0766
 3425SOL    HW112207   5.437   5.433   3.028  0.1742  1.1481 -1.0010
 3425SOL    HW212208   5.561   5.457   3.111  0.4254  0.3601 -1.1419
 3426SOL     OW12209   6.778   0.315   3.235  0.9443  0.1463  0.4998
 3426SOL    HW112210   6.854   0.372   3.228 -0.0754  1.4439 -0.3943
 3426SOL    HW212211   6.726   0.333   3.156  0.2764 -1.5586  0.4993
 3427SOL     OW12212   6.235   2.486   4.723 -0.2998 -0.2980 -0.4908
 3427SOL    HW112213   6.283   2.413   4.763  0.8969  0.0494 -1.2366
 3427SOL    HW212214   6.178   2.518   4.793 -2.1279 -2.9804 -0.5986
 3428SOL     OW12215   2.640   5.938   7.325 -0.0359  0.3172  0.0928
 3428SOL    HW112216   2.693   5.887   7.263  1.4473  1.1899  0.5978
 3428SOL    HW212217   2.567   5.880   7.347  1.7151 -1.7420  0.8648
 3429SOL     OW12218   5.151   3.227   7.323 -0.1617 -0.2369 -0.4797
 3429SOL    HW112219   5.116   3.248   7.237  0.9585  0.8583 -0.6855
 3429SOL    HW212220   5.089   3.163   7.359 -1.1617  0.0197 -1.6919
 3430SOL     OW12221   0.196   7.965   6.423  0.5011 -0.1513  0.4439
 3430SOL    HW112222   0.104   7.985   6.406  0.5635  0.6209  0.9602
 3430SOL    HW212223   0.204   7.966   6.519  1.0468 -0.2039  0.4039
 3431SOL     OW12224   8.075   3.163   4.871  0.7030 -0.2881 -0.5202
 3431SOL    HW112225   8.117   3.140   4.953 -0.1827 -0.3829 -0.0859
 3431SOL    HW212226   8.117   3.108   4.805  1.2903 -0.3350 -0.1097
 3432SOL     OW12227   0.662   1.381   8.825 -0.2701 -0.2021  0.2598
 3432SOL    HW112228   0.623   1.459   8.785  1.4148  2.1375  2.7928
 3432SOL    HW212229   0.617   1.372   8.909 -0.1710 -1.7980  0.1747
 3433SOL     OW12230   4.643   1.599   2.708 -0.3926  0.2267 -0.7200
 3433SOL    HW112231   4.692   1.603   2.791 -2.4836  0.5382  0.5588
 3433SOL    HW212232   4.602   1.513   2.708  1.3970 -0.7430 -2.6183
 3434SOL     OW12233   1.701   1.310   1.499  0.1831  0.2246 -0.5591
 3434SOL    HW112234   1.713   1.400   1.530  0.2605  0.1510 -0.3696
 3434SOL    HW212235   1.615   1.284   1.533 -0.0387  0.3824 -0.9996
 3435SOL     OW12236   8.304   4.625   7.413 -1.0511  0.1095  0.3333
 3435SOL    HW112237   8.391   4.588   7.428 -1.7396 -1.5332  0.5171
 3435SOL    HW212238   8.294   4.692   7.480  0.4303  0.9990 -0.2992
 3436SOL     OW12239   3.882   1.898   2.803  0.1847  0.2917  0.5035
 3436SOL    HW112240   3.872   1.810   2.838 -2.2707 -0.3233 -1.4412
 3436SOL    HW212241   3.846   1.893   2.714  2.4494  2.6598 -0.6844
 3437SOL     OW12242   2.909   1.167   0.533 -0.2301  0.3918  0.1602
 3437SOL    HW112243   2.839   1.233   0.531 -0.0531  1.0164  4.6343
 3437SOL    HW212244   2.868   1.091   0.574  0.5758 -0.9691 -1.4778
 3438SOL     OW12245   3.159   6.749   2.150 -0.2639 -0.4521 -0.0264
 3438SOL    HW112246   3.205   6.794   2.221 -0.9268  1.7544 -0.8841
 3438SOL    HW212247   3.227   6.698   2.106  1.0550  1.3134 -0.1760
 3439SOL     OW12248   2.424   6.057   2.608 -0.2361 -0.6374  0.4040
 3439SOL    HW112249   2.462   6.145   2.617  0.6753 -1.1642  2.1011
 3439SOL    HW212250   2.331   6.073   2.594  0.1725  0.6243 -1.1843
 3440SOL     OW12251   3.196   0.182   8.777  0.4104 -0.0944  0.9661
 3440SOL    HW112252   3.245   0.256   8.740  0.3082  0.1080  1.2358
 3440SOL    HW212253   3.219   0.108   8.720  0.8660  0.0448  0.9643
 3441SOL     OW12254   4.627   7.925   2.433  0.5029  0.2227  0.6949
 3441SOL    HW112255   4.635   7.861   2.503  0.2618  0.9224  1.3784
 3441SOL    HW212256   4.569   7.992   2.469 -0.7809 -0.0954 -0.6846
 3442SOL     OW12257   8.721   6.276   8.815 -0.3084  0.0232 -0.0083
 3442SOL    HW112258   8.770   6.194   8.812  1.9438  1.2469  1.0099
 3442SOL    HW212259   8.662   6.266   8.890 -1.3828 -1.2920 -0.9718
 3443SOL     OW12260   0.196   1.884   0.235  0.4644  0.0646  0.1109
 3443SOL    HW112261   0.162   1.915   0.319 -1.5803 -1.6341  0.0018
 3443SOL    HW212262   0.280   1.843   0.255  0.3194  0.2917  1.2087
 3444SOL     OW12263   8.736   1.290   4.382 -0.4234 -0.1340 -0.2769
 3444SOL    HW112264   8.741   1.309   4.476 -0.6076  0.4182 -0.3740
 3444SOL    HW212265   8.816   1.241   4.363 -0.9979 -1.3723  0.4163
 3445SOL     OW12266   8.686   0.409   3.937 -0.2357  0.0429  0.1140
 3445SOL    HW112267   8.727   0.362   4.010 -2.7487  0.1430  1.7107
 3445SOL    HW212268   8.638   0.342   3.889 -0.2361  0.3073 -0.2634
 3446SOL     OW12269   7.702   8.470   4.674 -0.3280  0.3902 -0.0020
 3446SOL    HW112270   7.758   8.519   4.614  3.2392 -2.1997  0.8312
 3446SOL    HW212271   7.637   8.429   4.617 -1.2399  3.1732 -1.1068
 3447SOL     OW12272   1.012   8.612   3.736  0.1379  1.0357 -0.1406
 3447SOL    HW112273   1.097   8.626   3.777  0.3272  0.1285 -0.1888
 3447SOL    HW212274   1.031   8.565   3.655 -0.4792 -0.4675  0.5348
 3448SOL     OW12275   0.748   2.276   4.785 -0.2185  0.0738 -0.1271
 3448SOL    HW112276   0.824   2.238   4.740  1.9244 -0.7524  3.7121
 3448SOL    HW212277   0.723   2.210   4.849 -1.3052  2.1124  1.6786
 3449SOL     OW12278   6.200   2.774   6.261  0.4406  0.2422  0.0271
 3449SOL    HW112279   6.139   2.802   6.192  1.2744  0.1375 -0.7839
 3449SOL    HW212280   6.179   2.830   6.336 -2.5573 -1.6765  0.7798
 3450SOL     OW12281   8.006   4.156   6.562  0.3663 -0.2572 -0.4760
 3450SOL    HW112282   7.968   4.087   6.508  0.8572 -0.8591 -0.0553
 3450SOL    HW212283   7.993   4.127   6.652 -0.4911  0.7605 -0.2428
 3451SOL     OW12284   3.711   6.151   7.641 -0.0645  0.2640 -0.2973
 3451SOL    HW112285   3.737   6.068   7.681  0.7830  0.1871 -0.9890
 3451SOL    HW212286   3.788   6.179   7.591 -0.8041  0.7787 -1.1789
 3452SOL     OW12287   1.498   8.699   5.002 -0.2936 -0.8798  0.0390
 3452SOL    HW112288   1.440   8.775   5.001  2.5149  1.5315  2.1543
 3452SOL    HW212289   1.476   8.652   5.082  0.4350 -0.0595  0.7508
 3453SOL     OW12290   2.327   3.903   3.214 -0.2248  0.0710 -0.5583
 3453SOL    HW112291   2.343   3.940   3.127 -1.1813  0.3399 -0.6285
 3453SOL    HW212292   2.402   3.845   3.229  1.4852  2.1883 -0.3366
 3454SOL     OW12293   4.950   8.738   3.767  0.0726 -0.2115 -0.3016
 3454SOL    HW112294   4.988   8.650   3.761 -0.4295 -0.4543  0.0154
 3454SOL    HW212295   4.880   8.739   3.702 -0.1184 -0.1534 -0.0991
 3455SOL     OW12296   3.425   8.803   4.145 -0.3099 -0.4977  0.2262
 3455SOL    HW112297   3.474   8.736   4.193  1.9951 -0.2359 -1.5563
 3455SOL    HW212298   3.393   8.862   4.212  1.6957 -0.8389  1.5778
 3456SOL     OW12299   2.560   4.941   7.457  0.1997 -0.3951  0.2729
 3456SOL    HW112300   2.544   5.029   7.422  0.2799 -0.3935  0.2398
 3456SOL    HW212301   2.646   4.917   7.422 -0.7993 -1.4261 -1.5825
 3457SOL     OW12302   6.195   5.407   3.098 -0.2771  0.3159 -0.2654
 3457SOL    HW112303   6.290   5.403   3.106 -0.2562  0.6460 -0.3314
 3457SOL    HW212304   6.169   5.316   3.082 -0.0386  0.1185  0.4305
 3458SOL     OW12305   7.415   2.706   2.454  0.0638 -0.2764  0.1518
 3458SOL    HW112306   7.367   2.659   2.386 -0.4611 -0.3039  0.5382
 3458SOL    HW212307   7.356   2.707   2.530  0.2675  0.5556  0.3139
 3459SOL     OW12308   2.486   4.976   2.584 -0.6228 -0.2254 -0.0449
 3459SOL    HW112309   2.419   5.012   2.642 -0.6835 -0.9617  0.3568
 3459SOL    HW212310   2.557   5.041   2.586 -0.0088 -0.9024  2.0123
 3460SOL     OW12311   4.354   5.540   1.808  0.5857 -0.0082  0.0175
 3460SOL    HW112312   4.273   5.569   1.767  1.0596 -0.0659 -0.9976
 3460SOL    HW212313   4.373   5.607   1.873 -0.2971 -0.0159  0.2921
 3461SOL     OW12314   1.023   1.007   1.996  0.3461 -0.1826  0.0095
 3461SOL    HW112315   1.034   0.928   1.942  1.7156  0.8611 -1.3190
 3461SOL    HW212316   1.048   0.979   2.084  0.6282 -1.2750 -0.3996
 3462SOL     OW12317   3.342   3.239   0.219  0.2475 -0.9246  0.3856
 3462SOL    HW112318   3.359   3.307   0.284  1.1473 -1.1157  0.3618
 3462SOL    HW212319   3.310   3.286   0.142 -0.5391 -0.6713  0.8577
 3463SOL     OW12320   6.101   7.712   4.421 -0.3379  0.2809  0.3970
 3463SOL    HW112321   6.151   7.665   4.489  1.4646  1.0980 -0.2855
 3463SOL    HW212322   6.048   7.775   4.470 -0.4644 -0.3754  1.1356
 3464SOL     OW12323   7.108   3.945   3.539  0.5186 -0.2430 -0.4965
 3464SOL    HW112324   7.104   3.890   3.460 -2.8696 -0.1819 -0.5053
 3464SOL    HW212325   7.118   4.034   3.505 -1.5437 -0.1485 -0.9949
 3465SOL     OW12326   3.540   2.642   0.430 -0.1536 -0.0049  0.2288
 3465SOL    HW112327   3.493   2.569   0.389 -1.7213 -0.2683  2.3611
 3465SOL    HW212328   3.595   2.601   0.496  0.8890  0.5738 -0.2473
 3466SOL     OW12329   0.012   2.498   2.089 -0.7988 -0.5726  0.5433
 3466SOL    HW112330   0.107   2.486   2.096 -0.5845  1.5242  2.1476
 3466SOL    HW212331  -0.023   2.460   2.169 -1.1441  0.0287  0.6813
 3467SOL     OW12332   1.321   4.280   4.958 -0.3970 -0.2014 -0.0017
 3467SOL    HW112333   1.258   4.284   4.886 -0.3295 -1.8741 -0.2084
 3467SOL    HW212334   1.291   4.205   5.011  1.2562 -0.8836  0.0332
 3468SOL     OW12335   6.272   5.793   8.641 -0.0711 -0.3329  0.4217
 3468SOL    HW112336   6.318   5.850   8.579  0.7838  0.2578  1.5546
 3468SOL    HW212337   6.191   5.839   8.661  0.3145  0.1867  0.8235
 3469SOL     OW12338   6.109   7.288   4.617  0.6454 -0.4983 -0.2440
 3469SOL    HW112339   6.112   7.377   4.651  1.2252 -0.5250 -0.2146
 3469SOL    HW212340   6.123   7.232   4.693  1.8581 -0.5605 -0.4959
 3470SOL     OW12341   7.170   2.617   2.151  0.1159  0.5501 -0.2547
 3470SOL    HW112342   7.201   2.528   2.136  1.8521  0.7181  1.8896
 3470SOL    HW212343   7.089   2.606   2.200 -0.2529  0.1585 -0.9403
 3471SOL     OW12344   3.064   3.497   6.944  0.0264 -0.4013  0.3962
 3471SOL    HW112345   3.052   3.579   6.897 -1.8855 -0.6977  0.2590
 3471SOL    HW212346   3.151   3.502   6.982 -0.4920  2.2298  1.4246
 3472SOL     OW12347   6.505   4.186   2.017  0.3517  0.2263 -0.2120
 3472SOL    HW112348   6.531   4.158   2.105  1.5202  0.1287 -0.5710
 3472SOL    HW212349   6.439   4.254   2.032  1.0270  0.6908  0.7576
 3473SOL     OW12350   4.239   2.064   0.709 -0.0669  0.8404  0.5446
 3473SOL    HW112351   4.170   2.025   0.762 -2.8763  0.8744 -2.7544
 3473SOL    HW212352   4.266   1.995   0.648 -1.0489  2.2734 -1.6389
 3474SOL     OW12353   5.067   6.278   4.278  0.0752 -0.3711 -0.2522
 3474SOL    HW112354   4.972   6.272   4.271  0.1005 -0.5049 -0.5174
 3474SOL    HW212355   5.084   6.363   4.318 -0.1803 -0.6198  0.4081
 3475SOL     OW12356   1.043   7.794   3.173  0.2755 -0.0630 -0.4879
 3475SOL    HW112357   0.985   7.869   3.178  0.3837 -0.0248  0.1696
 3475SOL    HW212358   1.129   7.828   3.197 -0.0692 -0.8364  2.1140
 3476SOL     OW12359   2.447   2.054   8.636  0.3031  0.2665 -0.0983
 3476SOL    HW112360   2.504   2.089   8.704 -1.1383 -0.0896  1.3456
 3476SOL    HW212361   2.490   2.079   8.554  1.0966  2.4099  0.8898
 3477SOL     OW12362   6.552   1.468   6.908 -0.2653  0.2540  0.1007
 3477SOL    HW112363   6.524   1.507   6.991  2.2292 -0.6729  1.4880
 3477SOL    HW212364   6.470   1.444   6.864 -1.7390  2.8691  1.1903
 3478SOL     OW12365   8.378   1.760   7.662 -0.1291  0.9836  0.0860
 3478SOL    HW112366   8.398   1.829   7.598 -0.1051  2.1324  1.2983
 3478SOL    HW212367   8.294   1.785   7.699  0.7461  1.4036  1.8714
 3479SOL     OW12368   1.776   2.960   5.612  0.1357 -0.0696  0.0017
 3479SOL    HW112369   1.777   2.869   5.643 -0.6103 -1.1485 -2.8424
 3479SOL    HW212370   1.855   2.968   5.559 -0.1861  0.7074 -0.3692
 3480SOL     OW12371   4.327   3.748   7.226 -0.3608 -0.1107  0.1816
 3480SOL    HW112372   4.347   3.726   7.135 -2.0836  0.8607 -0.4704
 3480SOL    HW212373   4.400   3.804   7.253  0.6623 -1.1753 -0.2490
 3481SOL     OW12374   3.583   5.512   2.823  0.3455  0.5764  0.4263
 3481SOL    HW112375   3.591   5.425   2.785 -0.3814  0.6696  0.0558
 3481SOL    HW212376   3.506   5.550   2.782  0.8934  1.5611  0.2643
 3482SOL     OW12377   5.719   5.206   7.231  0.1915 -0.2296 -0.0672
 3482SOL    HW112378   5.758   5.136   7.178 -1.7941  0.1980 -2.2379
 3482SOL    HW212379   5.760   5.286   7.198 -0.9695  0.0275 -0.9450
 3483SOL     OW12380   4.135   4.467   1.000 -0.0491  0.5173 -0.1651
 3483SOL    HW112381   4.136   4.486   1.094 -0.7940  1.3069 -0.3001
 3483SOL    HW212382   4.069   4.527   0.965  0.7332  0.7409 -1.2980
 3484SOL     OW12383   0.308   3.351   2.216 -0.0739 -0.3897  0.2920
 3484SOL    HW112384   0.253   3.364   2.292 -1.3486  0.3241 -0.7111
 3484SOL    HW212385   0.278   3.416   2.152  2.0053  0.1242 -0.2717
 3485SOL     OW12386   1.913   0.011   2.723 -0.2835 -1.1057 -0.5240
 3485SOL    HW112387   1.965   0.075   2.674  1.7252 -0.1402  2.5489
 3485SOL    HW212388   1.852   0.064   2.774 -0.1028 -1.7707  0.4108
 3486SOL     OW12389   7.928   6.151   0.671  0.0567  0.2061  0.7895
 3486SOL    HW112390   7.884   6.107   0.744 -0.5477 -0.6876 -0.0897
 3486SOL    HW212391   7.906   6.243   0.681 -1.7496 -0.1701  0.5841
 3487SOL     OW12392   4.151   6.110   5.465  0.1140  0.4005 -0.5214
 3487SOL    HW112393   4.124   6.019   5.474  0.3683  0.1443 -1.9782
 3487SOL    HW212394   4.223   6.107   5.402 -0.1741  1.6536 -0.9405
 3488SOL     OW12395   7.626   2.353   2.441 -0.2816 -0.5985 -0.3104
 3488SOL    HW112396   7.682   2.316   2.509  2.2096 -0.6638 -2.2402
 3488SOL    HW212397   7.620   2.446   2.463 -2.3239 -1.1613  1.7647
 3489SOL     OW12398   2.296   4.133   4.012 -0.1158  0.2982 -0.0099
 3489SOL    HW112399   2.368   4.117   3.951 -0.2664  2.4254 -0.8216
 3489SOL    HW212400   2.335   4.125   4.098  0.1897 -2.3845 -0.3120
 3490SOL     OW12401   2.539   0.434   6.000  0.7984 -0.1547  0.9434
 3490SOL    HW112402   2.510   0.512   6.047 -0.0498  0.3333 -0.3328
 3490SOL    HW212403   2.590   0.468   5.927  2.1441 -0.9038  1.5039
 3491SOL     OW12404   8.711   0.610   0.786 -0.1911  0.3284  0.3697
 3491SOL    HW112405   8.626   0.567   0.772  0.7914 -1.3467 -0.9177
 3491SOL    HW212406   8.729   0.654   0.703  0.7797 -0.4851  0.1284
 3492SOL     OW12407   4.752   3.800   7.477 -0.5002 -0.4937  1.1403
 3492SOL    HW112408   4.820   3.750   7.523  0.4575  0.1696  0.4904
 3492SOL    HW212409   4.722   3.864   7.541  2.1434  1.6791  0.3997
 3493SOL     OW12410   2.783   4.062   2.681 -0.0293  0.0558  0.1300
 3493SOL    HW112411   2.726   4.111   2.741 -2.3972 -1.1427 -0.9947
 3493SOL    HW212412   2.846   4.019   2.739 -1.4957 -0.1140  1.6939
 3494SOL     OW12413   5.613   3.312   5.552 -0.9239 -0.5391  0.1989
 3494SOL    HW112414   5.704   3.341   5.546 -0.4378 -2.2879 -2.5314
 3494SOL    HW212415   5.564   3.391   5.574  1.2981  0.2119  3.0363
 3495SOL     OW12416   2.043   1.635   7.142 -0.1054 -0.1836  0.0868
 3495SOL    HW112417   1.993   1.599   7.215 -0.2748 -0.0339  0.0462
 3495SOL    HW212418   1.978   1.686   7.092 -0.3845 -1.6055 -1.0768
 3496SOL     OW12419   5.716   7.891   4.438  0.2883 -0.1660  0.1320
 3496SOL    HW112420   5.633   7.911   4.480 -0.0955 -0.6813 -0.3605
 3496SOL    HW212421   5.780   7.891   4.509 -0.1650  0.0392  0.5415
 3497SOL     OW12422   5.652   1.631   1.239 -0.3091 -0.3993 -0.2768
 3497SOL    HW112423   5.731   1.671   1.202 -0.6540  0.8756  0.2796
 3497SOL    HW212424   5.607   1.591   1.165 -0.4697  1.1966 -1.0834
 3498SOL     OW12425   6.871   3.754   3.647 -0.1153 -0.0720 -0.3896
 3498SOL    HW112426   6.827   3.800   3.718 -0.3294 -0.0798 -0.5183
 3498SOL    HW212427   6.814   3.680   3.626 -1.2872  1.2576 -2.1935
 3499SOL     OW12428   4.573   6.952   5.748 -0.7373 -0.0139  0.1868
 3499SOL    HW112429   4.641   7.014   5.722 -0.0985  0.1680  2.1252
 3499SOL    HW212430   4.494   7.005   5.755 -0.9681 -0.1023 -1.4545
 3500SOL     OW12431   6.449   4.806   6.867 -0.7300  0.7001  0.6920
 3500SOL    HW112432   6.484   4.835   6.951  1.1479 -1.4137  0.7472
 3500SOL    HW212433   6.522   4.813   6.807 -0.4503 -2.5286  0.4677
 3501SOL     OW12434   2.681   1.757   1.627 -0.1770  0.0117 -0.2935
 3501SOL    HW112435   2.683   1.663   1.643  2.8586  0.2804  1.8137
 3501SOL    HW212436   2.726   1.768   1.543  0.8856 -0.3514  0.2138
 3502SOL     OW12437   7.705   7.705   1.141  0.1083 -0.1314 -0.6129
 3502SOL    HW112438   7.660   7.788   1.130  0.0635 -0.3930 -2.7455
 3502SOL    HW212439   7.678   7.652   1.065 -0.6563 -2.4838  1.1537
 3503SOL     OW12440   3.218   0.136   4.355  0.1174  0.5228 -0.5541
 3503SOL    HW112441   3.288   0.195   4.385 -0.6068  0.9122  0.4130
 3503SOL    HW212442   3.181   0.100   4.435 -0.8654  0.4121 -1.0465
 3504SOL     OW12443   5.944   3.124   8.473  0.3520  0.0477 -0.0606
 3504SOL    HW112444   5.875   3.189   8.483  1.3082  0.8858  1.4557
 3504SOL    HW212445   5.990   3.149   8.393  1.9387  2.5057  1.5044
 3505SOL     OW12446   6.563   6.984   2.862 -0.3436  0.5702  1.0649
 3505SOL    HW112447   6.628   7.047   2.833  0.4097 -0.6757 -0.0547
 3505SOL    HW212448   6.605   6.938   2.935 -0.2358  0.2363  0.7939
 3506SOL     OW12449   3.431   0.804   8.126  0.0597  0.4947  0.1411
 3506SOL    HW112450   3.463   0.894   8.132 -0.0471  0.5368  0.0857
 3506SOL    HW212451   3.346   0.806   8.171 -0.2450  0.5704 -0.4318
 3507SOL     OW12452   0.336   8.339   8.156  0.1724  0.6203  0.3153
 3507SOL    HW112453   0.274   8.328   8.083  2.3828 -0.2279 -1.5484
 3507SOL    HW212454   0.387   8.417   8.132  0.4243  0.8001  1.3786
 3508SOL     OW12455   3.560   2.552   0.980  0.0822  0.5393  0.3784
 3508SOL    HW112456   3.502   2.622   0.949 -1.0068 -1.0093 -1.2956
 3508SOL    HW212457   3.502   2.490   1.023  1.0108  0.5523  1.7090
 3509SOL     OW12458   2.758   4.688   4.398 -0.3809 -0.4087 -0.6693
 3509SOL    HW112459   2.781   4.725   4.312 -2.4944  0.5781 -0.8571
 3509SOL    HW212460   2.788   4.754   4.461 -0.5988 -0.2165 -0.7668
 3510SOL     OW12461   1.562   6.132   0.128  0.5088 -0.3134  0.2774
 3510SOL    HW112462   1.558   6.058   0.188  0.4874 -0.3515  0.2290
 3510SOL    HW212463   1.505   6.199   0.168  0.1756 -0.4853  0.0986
 3511SOL     OW12464   4.689   7.843   7.199  0.2026 -0.1383  0.0775
 3511SOL    HW112465   4.739   7.877   7.273  1.6156  0.6379 -1.1769
 3511SOL    HW212466   4.639   7.770   7.235 -1.5441  2.0863  2.4834
 3512SOL     OW12467   7.442   0.526   6.702  0.1162  0.1884 -0.0485
 3512SOL    HW112468   7.356   0.551   6.736  0.5112 -0.7768  1.7930
 3512SOL    HW212469   7.424   0.493   6.614 -1.0793  2.0082 -0.5527
 3513SOL     OW12470   7.252   6.828   1.012 -0.3437 -0.1890  0.0006
 3513SOL    HW112471   7.320   6.786   0.959  0.0113 -0.3329  0.5665
 3513SOL    HW212472   7.285   6.916   1.028  0.2273 -0.5938  1.1813
 3514SOL     OW12473   5.931   6.384   2.844 -0.6823  0.2398  0.0029
 3514SOL    HW112474   6.014   6.345   2.817 -1.4993 -1.1271 -0.7042
 3514SOL    HW212475   5.917   6.351   2.933 -0.8052 -0.1561 -0.1572
 3515SOL     OW12476   5.158   2.553   6.573  0.0426  0.1028  0.1269
 3515SOL    HW112477   5.144   2.532   6.665  0.2315  1.1459  0.4027
 3515SOL    HW212478   5.165   2.467   6.530 -1.5846 -0.4302  0.8270
 3516SOL     OW12479   5.425   7.726   0.783  0.0627 -0.0663 -0.5389
 3516SOL    HW112480   5.391   7.647   0.826  2.8748 -1.2982 -0.3800
 3516SOL    HW212481   5.347   7.770   0.748 -1.6599 -2.5471 -0.0491
 3517SOL     OW12482   6.298   6.670   8.272 -0.4463 -0.2087  0.2040
 3517SOL    HW112483   6.294   6.762   8.246 -1.2424 -0.2902  0.0036
 3517SOL    HW212484   6.362   6.667   8.343 -1.6404  0.7841  1.3528
 3518SOL     OW12485   4.693   6.166   1.063 -0.0386  0.1022  0.3187
 3518SOL    HW112486   4.768   6.155   1.004 -1.0658 -1.6290 -0.7456
 3518SOL    HW212487   4.726   6.140   1.149  0.9020  0.5867  0.1192
 3519SOL     OW12488   6.322   8.662   4.207 -0.2808 -0.1806 -0.0039
 3519SOL    HW112489   6.287   8.734   4.153  0.1467  0.7286  0.9023
 3519SOL    HW212490   6.256   8.593   4.200 -1.2966  0.7539  0.0568
 3520SOL     OW12491   0.657   3.430   7.282 -0.5204  0.2555 -0.4342
 3520SOL    HW112492   0.729   3.464   7.335 -0.8178  0.7138 -0.3122
 3520SOL    HW212493   0.578   3.462   7.327 -0.8242 -0.8373 -0.1570
 3521SOL     OW12494   4.541   3.323   2.766 -0.2316 -0.0182 -0.5272
 3521SOL    HW112495   4.468   3.363   2.813  0.5124 -0.0300  0.6817
 3521SOL    HW212496   4.561   3.384   2.696 -0.3860  0.7591  0.0931
 3522SOL     OW12497   2.433   8.719   3.683 -0.0709  0.0670  0.7275
 3522SOL    HW112498   2.503   8.701   3.620 -0.1042  2.0375  0.0688
 3522SOL    HW212499   2.475   8.711   3.768  0.2264 -1.5906  0.4669
 3523SOL     OW12500   4.356   2.546   6.650  0.0239 -0.5449  0.2744
 3523SOL    HW112501   4.361   2.566   6.743 -0.5058 -0.6759  0.3368
 3523SOL    HW212502   4.447   2.533   6.623  0.2707  0.5196  0.5370
 3524SOL     OW12503   4.672   0.119   0.847  0.1357 -0.2630  0.1532
 3524SOL    HW112504   4.649   0.186   0.783  0.1440  0.0735  0.4981
 3524SOL    HW212505   4.761   0.141   0.875  0.2096 -0.5260  0.1323
 3525SOL     OW12506   3.876   7.448   7.359 -0.5940 -0.0783 -0.2992
 3525SOL    HW112507   3.834   7.454   7.445  0.6032 -0.5629  0.3444
 3525SOL    HW212508   3.879   7.538   7.328 -0.1453  0.2423  0.6286
 3526SOL     OW12509   5.652   7.073   8.518 -0.4009  0.0029  0.0715
 3526SOL    HW112510   5.574   7.103   8.564 -1.2816 -1.5518 -0.3123
 3526SOL    HW212511   5.661   6.981   8.543  0.3194 -0.3052 -1.2003
 3527SOL     OW12512   4.766   0.240   4.681 -0.0884 -0.7421 -0.0665
 3527SOL    HW112513   4.681   0.200   4.702  0.0794 -1.4034 -0.6199
 3527SOL    HW212514   4.803   0.183   4.613 -0.1427  0.7202 -1.3650
 3528SOL     OW12515   2.265   8.671   2.278  0.3098 -0.5936  0.2261
 3528SOL    HW112516   2.220   8.601   2.326  0.3594 -1.3527 -0.8046
 3528SOL    HW212517   2.289   8.631   2.194  0.8113  0.5067 -0.1701
 3529SOL     OW12518   7.668   3.831   5.336  0.1962 -0.1683  0.2929
 3529SOL    HW112519   7.738   3.897   5.329  1.1296 -1.0689  0.8790
 3529SOL    HW212520   7.712   3.748   5.319 -1.1387 -0.5859 -1.2997
 3530SOL     OW12521   3.901   7.529   5.934 -0.9062  0.4675  0.6751
 3530SOL    HW112522   3.896   7.569   5.848  0.0601  1.7150  1.1622
 3530SOL    HW212523   3.906   7.435   5.917 -2.7687  0.5508 -0.5171
 3531SOL     OW12524   2.331   4.953   3.434  0.4548  0.2067 -0.0005
 3531SOL    HW112525   2.247   4.998   3.429 -0.4175 -1.4436 -1.4528
 3531SOL    HW212526   2.308   4.864   3.461  1.7181 -0.3124 -0.5728
 3532SOL     OW12527   1.062   3.019   7.351  0.2059  0.1153 -0.3081
 3532SOL    HW112528   1.154   3.008   7.325  0.0497 -2.6322 -0.0744
 3532SOL    HW212529   1.059   3.104   7.395  3.7928 -1.5994  4.0868
 3533SOL     OW12530   0.498   4.624   5.763 -0.1184  0.1804  0.0336
 3533SOL    HW112531   0.429   4.605   5.827 -0.0501 -0.6037 -0.1226
 3533SOL    HW212532   0.579   4.601   5.809 -0.0630 -0.2973 -0.3047
 3534SOL     OW12533   4.478   2.188   1.892 -0.0384  0.1878 -0.1137
 3534SOL    HW112534   4.435   2.205   1.975  0.4899 -0.7353  0.3664
 3534SOL    HW212535   4.509   2.097   1.899 -0.9013 -0.2697 -1.7246
 3535SOL     OW12536   0.607   0.604   6.486 -0.2894  0.2017  0.3170
 3535SOL    HW112537   0.562   0.689   6.486  0.2755  0.5613 -1.5415
 3535SOL    HW212538   0.697   0.626   6.460 -0.4069 -1.0565 -1.3037
 3536SOL     OW12539   3.359   7.783   5.324 -0.0273  0.1157 -0.0416
 3536SOL    HW112540   3.310   7.861   5.353  1.7008  1.2404  0.0129
 3536SOL    HW212541   3.364   7.792   5.229 -0.0800 -0.0908 -0.0628
 3537SOL     OW12542   6.003   6.572   5.941  0.3810  0.1400 -0.3367
 3537SOL    HW112543   5.966   6.543   6.024 -2.3202 -0.8334 -1.7753
 3537SOL    HW212544   6.024   6.664   5.955  0.6527 -0.1606  1.5871
 3538SOL     OW12545   3.872   1.186   4.280  0.5391  0.7892 -0.3369
 3538SOL    HW112546   3.959   1.147   4.273  0.5076  0.7251 -0.3693
 3538SOL    HW212547   3.822   1.147   4.208  0.5082  0.8894 -0.3693
 3539SOL     OW12548   0.659   7.194   5.862  0.2848  0.4931 -0.2010
 3539SOL    HW112549   0.641   7.137   5.937 -0.0988 -0.1583 -0.7703
 3539SOL    HW212550   0.589   7.174   5.800  1.2494  0.1652 -1.2110
 3540SOL     OW12551   2.328   4.760   5.334  0.2961 -0.2216 -0.0171
 3540SOL    HW112552   2.346   4.711   5.254  2.1037  1.5766 -0.8019
 3540SOL    HW212553   2.376   4.842   5.324  0.0929  0.3378  2.6596
 3541SOL     OW12554   4.391   6.447   4.223  0.0249  0.3038  0.1470
 3541SOL    HW112555   4.374   6.529   4.176  2.2668  0.0784 -1.2308
 3541SOL    HW212556   4.438   6.474   4.302 -0.4407  0.4479  0.3720
 3542SOL     OW12557   3.590   4.857   3.700 -0.1619 -0.3345 -0.4613
 3542SOL    HW112558   3.646   4.816   3.634  0.2483 -0.5027 -0.0123
 3542SOL    HW212559   3.525   4.906   3.649  2.3477  2.6612 -1.0808
 3543SOL     OW12560   2.937   3.193   7.318  0.5411  0.0181  0.3241
 3543SOL    HW112561   2.958   3.198   7.411 -0.7982  1.4162  0.6102
 3543SOL    HW212562   3.022   3.191   7.274  1.2021  0.0721  1.5509
 3544SOL     OW12563   0.786   1.648   7.225 -0.0656  0.0946  0.2503
 3544SOL    HW112564   0.823   1.697   7.299  2.0790 -1.6182  0.4403
 3544SOL    HW212565   0.758   1.565   7.264  1.9397 -1.2050 -0.9233
 3545SOL     OW12566   3.797   8.712   2.307  0.0285  0.1641  0.6477
 3545SOL    HW112567   3.740   8.753   2.372  1.0367 -0.1111  1.7238
 3545SOL    HW212568   3.793   8.770   2.231 -1.3877  0.3445  0.8330
 3546SOL     OW12569   8.177   3.884   1.950 -0.1214  0.0614  0.6381
 3546SOL    HW112570   8.102   3.841   1.909  1.1642 -0.5317 -1.2423
 3546SOL    HW212571   8.164   3.872   2.044 -2.7606  0.6876  0.4218
 3547SOL     OW12572   1.772   1.553   1.604  0.0876 -0.2398  1.3224
 3547SOL    HW112573   1.838   1.606   1.649 -0.6080  0.1851  1.8546
 3547SOL    HW212574   1.700   1.613   1.587  0.2239 -0.4549 -0.1436
 3548SOL     OW12575   3.237   7.300   8.031 -0.3318  0.2544 -0.4530
 3548SOL    HW112576   3.242   7.392   8.004  0.8379 -0.0542 -1.3721
 3548SOL    HW212577   3.281   7.252   7.961 -0.1985 -0.9248  0.4113
 3549SOL     OW12578   5.197   3.510   5.053  0.3392 -0.5328  0.0545
 3549SOL    HW112579   5.176   3.602   5.068  3.1106  0.4035 -1.0723
 3549SOL    HW212580   5.170   3.494   4.963  2.3963  0.1128 -0.7408
 3550SOL     OW12581   5.843   3.044   5.365 -0.2060 -0.5137 -0.0349
 3550SOL    HW112582   5.891   3.095   5.429  0.6100 -0.7133 -0.4788
 3550SOL    HW212583   5.867   2.953   5.384 -0.2500 -0.6008 -0.3930
 3551SOL     OW12584   7.797   4.910   2.169  0.8641 -0.3706 -0.4739
 3551SOL    HW112585   7.772   5.001   2.186 -0.3616 -0.9245  0.9471
 3551SOL    HW212586   7.725   4.859   2.207  2.2021 -1.9658 -0.0078
 3552SOL     OW12587   3.035   6.120   2.180 -0.4433  0.3333  0.2141
 3552SOL    HW112588   2.950   6.100   2.218 -0.1932  0.6565  0.9729
 3552SOL    HW212589   3.096   6.116   2.254  0.2289 -0.0541 -0.3420
 3553SOL     OW12590   8.035   6.295   6.233  0.0433  0.2584  0.1757
 3553SOL    HW112591   7.962   6.291   6.170  0.2847  0.4432 -0.1187
 3553SOL    HW212592   7.999   6.256   6.313  0.0076 -0.7822 -0.3325
 3554SOL     OW12593   3.426   4.479   4.033 -0.1053  0.3098  0.6511
 3554SOL    HW112594   3.434   4.524   3.949 -0.4485 -0.9924 -0.1225
 3554SOL    HW212595   3.352   4.420   4.021  0.9051 -1.1511  1.2422
 3555SOL     OW12596   5.478   4.799   1.914  0.3271 -0.0496 -0.1544
 3555SOL    HW112597   5.435   4.776   1.831 -0.8926  0.5654  0.2834
 3555SOL    HW212598   5.534   4.873   1.892 -0.4991  0.5428 -0.3167
 3556SOL     OW12599   7.873   3.337   4.841  0.3554  0.2006  0.3539
 3556SOL    HW112600   7.937   3.270   4.868 -1.7402 -1.4969  1.3743
 3556SOL    HW212601   7.888   3.410   4.902  2.5242  0.6595 -0.6260
 3557SOL     OW12602   8.759   1.639   2.071 -0.2160  0.2267 -0.2504
 3557SOL    HW112603   8.722   1.722   2.040  1.4013  1.1163  0.1251
 3557SOL    HW212604   8.683   1.584   2.086 -1.4294  2.0766  0.7850
 3558SOL     OW12605   0.503   7.293   6.678  0.0138  0.2307 -0.6147
 3558SOL    HW112606   0.519   7.296   6.772  0.3149  0.6371 -0.6818
 3558SOL    HW212607   0.439   7.363   6.662  0.8325  0.9240 -0.8886
 3559SOL     OW12608   7.270   2.108   6.646 -0.1544 -0.3497 -0.2158
 3559SOL    HW112609   7.318   2.187   6.671 -0.6042 -0.1651  0.0560
 3559SOL    HW212610   7.288   2.046   6.717 -0.8460 -0.0637  0.2143
 3560SOL     OW12611   8.248   3.041   8.267 -0.5779 -0.0443  0.2259
 3560SOL    HW112612   8.296   3.103   8.322  1.3498 -0.7552 -0.5845
 3560SOL    HW212613   8.232   2.966   8.325 -1.7388  0.6172  0.8119
 3561SOL     OW12614   5.528   7.649   0.179 -0.1758  0.2086 -0.5196
 3561SOL    HW112615   5.506   7.726   0.127 -0.8161  0.6585  0.3993
 3561SOL    HW212616   5.501   7.671   0.268 -0.4674 -1.1193 -0.2584
 3562SOL     OW12617   4.673   5.669   6.206 -0.0696 -0.2150  0.2372
 3562SOL    HW112618   4.656   5.665   6.301 -1.3360  0.5726  0.0744
 3562SOL    HW212619   4.635   5.588   6.172 -0.7126  0.0568  0.2778
 3563SOL     OW12620   6.842   2.715   2.863 -0.5698 -0.5117 -0.5687
 3563SOL    HW112621   6.788   2.787   2.829 -0.0276  0.3134  0.2619
 3563SOL    HW212622   6.786   2.671   2.927 -0.9275 -0.8710 -1.1275
 3564SOL     OW12623   0.327   8.850   0.150 -0.0936  0.1942  0.1528
 3564SOL    HW112624   0.404   8.838   0.094  1.7503  1.7883  2.1610
 3564SOL    HW212625   0.316   8.945   0.155 -0.4573  0.0991  2.0584
 3565SOL     OW12626   4.853   1.652   6.476 -0.2723  0.0376 -0.0391
 3565SOL    HW112627   4.911   1.728   6.481  0.4081 -0.5541  1.8418
 3565SOL    HW212628   4.787   1.667   6.543 -0.8737 -0.4433 -0.5075
 3566SOL     OW12629   6.212   5.809   3.613 -0.0693 -0.6395 -0.2135
 3566SOL    HW112630   6.154   5.883   3.630 -0.2746 -0.6893 -0.6748
 3566SOL    HW212631   6.229   5.813   3.519 -3.0214 -3.2654 -1.0218
 3567SOL     OW12632   5.061   0.911   2.571  0.2974  0.3539  0.1270
 3567SOL    HW112633   4.992   0.960   2.527  0.8947 -0.1719 -1.4719
 3567SOL    HW212634   5.018   0.832   2.604 -0.0540  0.5043  0.0294
 3568SOL     OW12635   5.347   6.334   3.247 -0.1455  0.0669 -0.1581
 3568SOL    HW112636   5.347   6.361   3.156 -0.8981  0.9072  0.0777
 3568SOL    HW212637   5.325   6.241   3.245  1.2417 -0.2721 -0.9096
 3569SOL     OW12638   2.486   4.086   0.080 -0.3942  0.1988  0.5513
 3569SOL    HW112639   2.532   4.118   0.157  0.1134 -0.6260  0.5966
 3569SOL    HW212640   2.500   3.991   0.081 -0.6301  0.1460 -0.3849
 3570SOL     OW12641   7.333   4.192   8.635  0.0315 -0.0716  0.3658
 3570SOL    HW112642   7.309   4.125   8.571 -1.0254 -0.2146  0.8913
 3570SOL    HW212643   7.322   4.148   8.720 -0.0766  0.5807  0.6936
 3571SOL     OW12644   5.200   4.591   8.757  0.0777  0.2263 -0.2895
 3571SOL    HW112645   5.125   4.640   8.724 -0.3085 -0.4622 -0.4472
 3571SOL    HW212646   5.189   4.591   8.852  0.8093  1.5975 -0.1789
 3572SOL     OW12647   0.446   3.941   1.944  0.2233  0.8882 -0.1900
 3572SOL    HW112648   0.498   4.014   1.912  0.2772  0.3129 -1.4649
 3572SOL    HW212649   0.375   3.931   1.880  1.7349 -1.8608 -1.6731
 3573SOL     OW12650   1.873   6.585   1.866 -0.7504 -0.0414 -0.6962
 3573SOL    HW112651   1.888   6.676   1.842 -1.2015  0.3281  0.3573
 3573SOL    HW212652   1.777   6.576   1.870 -0.7079 -0.3023  0.0701
 3574SOL     OW12653   1.899   0.854   2.598  0.1680 -0.2243  0.0347
 3574SOL    HW112654   1.912   0.947   2.613  2.5830 -0.0511 -2.3393
 3574SOL    HW212655   1.812   0.847   2.560 -0.2552  0.9658  0.7560
 3575SOL     OW12656   7.141   8.541   2.694  0.5083  0.0040 -0.0374
 3575SOL    HW112657   7.236   8.555   2.699  0.8606 -1.5003 -1.4796
 3575SOL    HW212658   7.120   8.551   2.601 -0.9868  1.4855  0.4194
 3576SOL     OW12659   4.672   3.788   5.962  0.4046  0.7793  0.2896
 3576SOL    HW112660   4.631   3.705   5.938 -1.2888  1.6997 -0.1532
 3576SOL    HW212661   4.715   3.771   6.046 -1.7756  0.0044  1.3177
 3577SOL     OW12662   2.963   3.690   0.963  0.5201  0.4464 -0.5502
 3577SOL    HW112663   2.907   3.766   0.982  0.6167 -0.2033  3.1623
 3577SOL    HW212664   3.015   3.679   1.043  1.6364 -2.5813 -1.5719
 3578SOL     OW12665   8.442   0.557   0.882 -0.1127  0.0822  0.0243
 3578SOL    HW112666   8.400   0.629   0.929 -0.4550 -0.1239  0.0352
 3578SOL    HW212667   8.371   0.496   0.862  0.2603 -0.5387  0.5302
 3579SOL     OW12668   1.399   2.731   0.041 -0.0873  0.0676 -0.2125
 3579SOL    HW112669   1.370   2.812   0.083 -1.4615 -0.0928 -0.8149
 3579SOL    HW212670   1.335   2.665   0.067  1.4268 -1.0350  0.8728
 3580SOL     OW12671   7.850   0.144   3.038 -0.1234  0.2570  0.1632
 3580SOL    HW112672   7.889   0.158   2.952  0.1752  3.4239  0.6919
 3580SOL    HW212673   7.924   0.127   3.096  0.0139  1.2662  0.3011
 3581SOL     OW12674   2.331   1.774   3.709 -0.4172 -0.1044 -0.4362
 3581SOL    HW112675   2.274   1.742   3.639  0.3651 -3.4093  0.2422
 3581SOL    HW212676   2.271   1.803   3.777 -1.2342 -0.1401 -1.1251
 3582SOL     OW12677   6.830   6.393   7.376 -0.2026  0.6810  0.0117
 3582SOL    HW112678   6.918   6.413   7.344 -0.2135 -1.0709 -1.2436
 3582SOL    HW212679   6.777   6.466   7.345  0.0590 -0.2464 -2.9410
 3583SOL     OW12680   4.223   7.315   3.467 -0.0442  0.5079  0.0148
 3583SOL    HW112681   4.276   7.267   3.404 -0.0393  3.3532 -2.3721
 3583SOL    HW212682   4.278   7.323   3.545  0.9770 -0.9106 -0.5311
 3584SOL     OW12683   6.934   1.354   4.409  0.7189 -0.2284  0.0255
 3584SOL    HW112684   6.982   1.309   4.479  2.3095  2.7735  1.0135
 3584SOL    HW212685   6.851   1.306   4.403  2.4033 -3.5435  0.5783
 3585SOL     OW12686   6.884   2.096   1.645 -0.1373 -0.7999  0.0867
 3585SOL    HW112687   6.979   2.106   1.644 -0.2884  0.8349 -0.5743
 3585SOL    HW212688   6.859   2.109   1.736  0.2775 -1.4915  0.3088
 3586SOL     OW12689   0.589   1.279   6.076  0.0614  0.4341  0.3885
 3586SOL    HW112690   0.653   1.341   6.110 -0.2508  0.2745  1.2945
 3586SOL    HW212691   0.642   1.205   6.046  0.4147  1.0096 -0.4652
 3587SOL     OW12692   3.889   6.910   0.410 -0.1227 -0.0318 -0.2183
 3587SOL    HW112693   3.858   6.988   0.457  0.1283  0.3695 -0.7062
 3587SOL    HW212694   3.938   6.861   0.476  0.1222  0.4643 -0.0214
 3588SOL     OW12695   6.785   5.301   4.969  0.3075 -0.5143  0.2529
 3588SOL    HW112696   6.696   5.307   5.003  0.3707 -0.0257  0.3361
 3588SOL    HW212697   6.808   5.390   4.945  0.4169 -0.7830 -0.7060
 3589SOL     OW12698   5.118   8.250   8.361  0.0860  0.6122  0.3046
 3589SOL    HW112699   5.094   8.334   8.322  2.5265  0.9978 -0.5869
 3589SOL    HW212700   5.117   8.189   8.288  0.5890  0.3955  0.4749
 3590SOL     OW12701   6.136   0.694   3.300  0.0892  0.2855  0.3475
 3590SOL    HW112702   6.179   0.649   3.373  0.7684  0.4270  0.0379
 3590SOL    HW212703   6.124   0.784   3.332  1.4926  0.6759 -0.1404
 3591SOL     OW12704   2.998   0.361   1.752 -0.4289 -0.4842 -0.1234
 3591SOL    HW112705   2.983   0.333   1.661  2.0045 -4.1323  0.3677
 3591SOL    HW212706   2.933   0.312   1.802 -1.2157  0.8877  0.2524
 3592SOL     OW12707   6.565   8.605   3.350 -0.3825  0.0031 -0.0739
 3592SOL    HW112708   6.541   8.626   3.441 -0.2413 -0.8749  0.1704
 3592SOL    HW212709   6.659   8.618   3.346  0.1183 -2.7261  0.7220
 3593SOL     OW12710   1.391   5.952   3.107 -0.2458  0.3781  0.0736
 3593SOL    HW112711   1.458   5.906   3.158 -0.0911  0.9441  0.3910
 3593SOL    HW212712   1.414   5.933   3.016 -0.5267 -0.6383  0.2030
 3594SOL     OW12713   0.271   4.091   0.817 -0.3275  0.2607 -0.3760
 3594SOL    HW112714   0.215   4.029   0.769  0.2591  0.1992 -1.0064
 3594SOL    HW212715   0.330   4.125   0.750  1.3325 -0.7419  0.5283
 3595SOL     OW12716   3.306   3.110   3.642  0.2642  0.1727 -0.0189
 3595SOL    HW112717   3.387   3.143   3.681 -0.4487  1.4961  0.4062
 3595SOL    HW212718   3.250   3.187   3.635 -1.5039 -0.9658  1.0206
 3596SOL     OW12719   7.083   5.567   2.068 -0.2794  0.0804 -0.6116
 3596SOL    HW112720   7.043   5.540   2.151  1.2611  0.0597  0.1663
 3596SOL    HW212721   7.039   5.649   2.045 -1.7772 -0.6824 -0.5812
 3597SOL     OW12722   1.859   6.192   2.236 -0.0818 -0.8836  0.1253
 3597SOL    HW112723   1.832   6.283   2.240  2.7261 -0.0033  0.9604
 3597SOL    HW212724   1.874   6.167   2.327 -0.5983 -2.1523 -0.1062
 3598SOL     OW12725   3.259   0.712   6.251  0.0461 -0.0760 -0.5482
 3598SOL    HW112726   3.268   0.657   6.329  0.5398  0.4960 -0.1904
 3598SOL    HW212727   3.320   0.675   6.188 -0.1762 -0.3916 -0.5814
 3599SOL     OW12728   5.411   1.822   8.269 -0.6358  0.1740 -0.1694
 3599SOL    HW112729   5.504   1.841   8.279 -0.7406  0.6163  0.0225
 3599SOL    HW212730   5.397   1.817   8.174 -0.5433  0.7989 -0.2231
 3600SOL     OW12731   3.001   8.247   3.755  0.1189 -0.5309  0.5433
 3600SOL    HW112732   2.971   8.156   3.761 -1.6240  0.1244  2.6137
 3600SOL    HW212733   3.026   8.257   3.663 -0.4562 -2.8297  0.0619
 3601SOL     OW12734   7.383   0.084   2.486 -0.3900 -0.1194  0.2167
 3601SOL    HW112735   7.442   0.047   2.550 -0.2640  0.8126  0.6588
 3601SOL    HW212736   7.393   0.029   2.408 -0.4709 -1.1923  0.9553
 3602SOL     OW12737   4.789   2.213   5.687 -0.2363 -0.1507  0.2011
 3602SOL    HW112738   4.793   2.145   5.620  0.3558 -0.7537  0.8323
 3602SOL    HW212739   4.861   2.272   5.666 -0.9466  0.4802 -0.5353
 3603SOL     OW12740   5.684   2.542   1.687  0.0506  0.6214  0.6748
 3603SOL    HW112741   5.746   2.594   1.738 -0.1794 -0.5385  2.2223
 3603SOL    HW212742   5.601   2.589   1.696  0.3211  1.2290  0.0797
 3604SOL     OW12743   5.448   8.813   3.943 -0.3239  0.1416 -0.7150
 3604SOL    HW112744   5.514   8.875   3.976  0.8195 -0.8251 -1.1005
 3604SOL    HW212745   5.413   8.855   3.865 -0.1011  0.6400 -0.5531
 3605SOL     OW12746   7.620   2.166   7.178  0.5458  0.4339  0.0377
 3605SOL    HW112747   7.586   2.180   7.266 -0.6142  1.6629 -0.5726
 3605SOL    HW212748   7.652   2.251   7.149  0.5709  0.1396 -0.8580
 3606SOL     OW12749   1.229   3.352   4.328 -0.6412 -0.8074 -0.1897
 3606SOL    HW112750   1.158   3.407   4.360 -1.0023 -0.1294 -2.0410
 3606SOL    HW212751   1.205   3.263   4.357 -3.1970 -0.8851 -2.1554
 3607SOL     OW12752   7.258   5.948   2.095 -0.0972 -0.6156 -0.4989
 3607SOL    HW112753   7.343   5.905   2.083  1.0220  1.5223 -0.7519
 3607SOL    HW212754   7.268   5.999   2.175  0.1249  2.2514 -2.1964
 3608SOL     OW12755   0.108   3.711   1.656  0.2147  0.2801  0.2484
 3608SOL    HW112756   0.066   3.625   1.663  0.3727  0.2679  1.1364
 3608SOL    HW212757   0.142   3.713   1.567 -1.0538  0.0048 -0.2669
 3609SOL     OW12758   3.895   4.317   3.374 -0.0201  0.7289  0.2818
 3609SOL    HW112759   3.863   4.348   3.459  0.3122 -0.0083  0.6809
 3609SOL    HW212760   3.962   4.381   3.349 -0.4485  1.2142  0.3396
 3610SOL     OW12761   0.109   1.710   1.722 -0.2058  0.1627 -0.0517
 3610SOL    HW112762   0.179   1.735   1.661  0.6220 -0.5929  0.5673
 3610SOL    HW212763   0.118   1.772   1.794 -0.3373  0.2203 -0.0844
 3611SOL     OW12764   3.179   2.327   1.308  0.0947  0.3271  0.0873
 3611SOL    HW112765   3.116   2.261   1.335 -1.0920  1.2811 -0.2761
 3611SOL    HW212766   3.189   2.384   1.384  1.0913 -0.2249  0.3895
 3612SOL     OW12767   8.166   5.649   4.426 -0.1819  0.1833  0.1686
 3612SOL    HW112768   8.247   5.624   4.470 -0.6489 -2.2328 -0.1957
 3612SOL    HW212769   8.124   5.710   4.488  1.8903  1.5839  0.3018
 3613SOL     OW12770   6.951   8.085   5.144  0.2779 -0.3489  0.2603
 3613SOL    HW112771   6.960   8.158   5.083  0.1045 -0.4440  0.1198
 3613SOL    HW212772   7.041   8.062   5.168  0.4534 -1.4883 -1.3457
 3614SOL     OW12773   6.570   1.166   0.846 -0.0939 -0.7131 -0.3780
 3614SOL    HW112774   6.556   1.158   0.752  0.2398 -1.8584 -0.3396
 3614SOL    HW212775   6.615   1.086   0.871  0.8014  0.0653  0.5811
 3615SOL     OW12776   0.117   0.293   0.616  0.0968 -0.1723 -0.4225
 3615SOL    HW112777   0.028   0.296   0.652  0.4494  0.6164  0.4092
 3615SOL    HW212778   0.155   0.215   0.657  0.4234  0.5960  0.8022
 3616SOL     OW12779   0.849   0.782   3.750 -0.0579  0.1990 -0.1193
 3616SOL    HW112780   0.798   0.712   3.790  0.4761  0.1262  0.4395
 3616SOL    HW212781   0.855   0.850   3.818  0.9828  0.0099 -0.0039
 3617SOL     OW12782   4.763   1.306   2.972 -0.0338  0.2687 -0.3232
 3617SOL    HW112783   4.796   1.395   2.957  2.5938 -0.3064  1.2749
 3617SOL    HW212784   4.815   1.251   2.914 -1.1287 -0.3243 -0.7624
 3618SOL     OW12785   7.848   1.081   0.385  0.0048 -0.1767 -0.3985
 3618SOL    HW112786   7.925   1.098   0.332  4.0071 -3.3904  3.5360
 3618SOL    HW212787   7.854   1.143   0.458 -0.5583 -1.0520  0.4258
 3619SOL     OW12788   7.125   7.136   4.455  0.0312  0.0115 -0.2018
 3619SOL    HW112789   7.221   7.142   4.463 -0.0258  2.0301 -0.5420
 3619SOL    HW212790   7.107   7.161   4.365 -0.8551  0.4043  0.0738
 3620SOL     OW12791   4.752   1.581   2.956 -0.4249 -0.1695 -0.2076
 3620SOL    HW112792   4.816   1.625   3.013  0.7867 -0.6785 -1.1238
 3620SOL    HW212793   4.668   1.617   2.982  0.5145  2.9976 -1.1561
 3621SOL     OW12794   7.167   1.944   5.878  0.4208 -0.4054 -0.7027
 3621SOL    HW112795   7.108   1.961   5.951  0.0278 -0.4046 -1.0147
 3621SOL    HW212796   7.207   1.859   5.898 -0.6346 -1.0152 -1.0962
 3622SOL     OW12797   3.555   2.391   7.054  0.5091 -0.0086  0.0210
 3622SOL    HW112798   3.460   2.385   7.063  0.6399 -1.7772  0.4811
 3622SOL    HW212799   3.577   2.478   7.088 -0.8922  0.2598  0.2746
 3623SOL     OW12800   5.810   6.995   2.020 -0.6676  0.1276  0.1470
 3623SOL    HW112801   5.878   6.929   2.030 -0.4092  0.2538 -0.6930
 3623SOL    HW212802   5.739   6.949   1.975 -0.6024  0.3360 -0.1744
 3624SOL     OW12803   5.205   8.383   7.744  0.4469 -0.6322  0.3600
 3624SOL    HW112804   5.132   8.439   7.771  0.7361 -0.0089 -0.1404
 3624SOL    HW212805   5.197   8.379   7.648  0.4258 -1.4509  0.3902
 3625SOL     OW12806   6.377   2.325   3.864  0.1378  0.1879 -0.5865
 3625SOL    HW112807   6.352   2.354   3.952 -0.9843  0.5156 -0.9962
 3625SOL    HW212808   6.365   2.230   3.865  2.4434 -0.1663  0.3201
 3626SOL     OW12809   0.321   8.585   7.397  0.4628  0.2082  0.4356
 3626SOL    HW112810   0.303   8.548   7.311 -0.2462  1.3230  0.0917
 3626SOL    HW212811   0.363   8.669   7.379 -0.0869  0.6502  1.1683
 3627SOL     OW12812   7.589   7.035   8.644 -0.7110 -0.1043 -0.1259
 3627SOL    HW112813   7.585   6.946   8.678 -1.2197 -0.3978 -0.9317
 3627SOL    HW212814   7.550   7.089   8.713 -1.9924 -0.7248 -0.3524
 3628SOL     OW12815   0.731   4.926   4.146  0.3293  0.3281 -0.1052
 3628SOL    HW112816   0.716   4.832   4.142 -0.7733  0.5261 -1.0295
 3628SOL    HW212817   0.805   4.942   4.088  1.0372 -0.0478  0.6678
 3629SOL     OW12818   1.843   3.434   2.050 -0.3278  0.7246  0.9162
 3629SOL    HW112819   1.881   3.504   2.102  1.2701 -0.4002  1.3257
 3629SOL    HW212820   1.912   3.368   2.043 -0.9427  0.2293 -1.4920
 3630SOL     OW12821   1.192   7.537   0.632  0.4066  0.2725 -0.3522
 3630SOL    HW112822   1.135   7.516   0.706  0.1113  2.2721  0.0631
 3630SOL    HW212823   1.277   7.557   0.672  0.7301 -0.3400 -0.7303
 3631SOL     OW12824   6.427   2.999   0.243  0.5218 -0.3952 -0.4924
 3631SOL    HW112825   6.437   3.041   0.157  0.2536 -1.2074 -0.9342
 3631SOL    HW212826   6.495   3.038   0.297 -0.1194  1.0537 -0.7004
 3632SOL     OW12827   1.689   7.502   8.547  0.0578 -0.1684  0.3390
 3632SOL    HW112828   1.735   7.484   8.629 -0.2358  0.8517  0.7506
 3632SOL    HW212829   1.615   7.441   8.547  0.4433 -0.6396  0.5009
 3633SOL     OW12830   0.849   6.901   0.864  0.0886 -0.6171 -0.0188
 3633SOL    HW112831   0.790   6.976   0.875  0.0212 -0.4481 -1.3736
 3633SOL    HW212832   0.900   6.923   0.786  1.9728 -0.7473  1.1150
 3634SOL     OW12833   3.197   4.587   2.354  0.2849  0.4324 -0.2983
 3634SOL    HW112834   3.276   4.592   2.300  0.6364  0.0269  0.1715
 3634SOL    HW212835   3.150   4.510   2.320 -1.6104  2.5452 -2.8201
 3635SOL     OW12836   6.645   0.211   5.944  0.4738  0.1575  0.0670
 3635SOL    HW112837   6.657   0.286   5.885  2.4197 -1.1349 -1.3021
 3635SOL    HW212838   6.564   0.170   5.914  0.1561  0.8834 -0.1000
 3636SOL     OW12839   2.745   4.305   4.916 -0.3991 -0.2817 -0.5426
 3636SOL    HW112840   2.651   4.318   4.927 -0.8782 -2.3357 -1.7409
 3636SOL    HW212841   2.784   4.346   4.993 -2.3721 -0.5188  0.6462
 3637SOL     OW12842   0.845   1.153   0.633  0.7905  0.1004 -0.0724
 3637SOL    HW112843   0.880   1.162   0.545 -0.7208 -0.5445 -0.7734
 3637SOL    HW212844   0.798   1.234   0.649  0.3473 -0.1226 -0.2138
 3638SOL     OW12845   1.909   2.239   1.893  0.0081 -0.3353  0.1508
 3638SOL    HW112846   1.867   2.290   1.824 -0.4894 -1.4963 -0.4338
 3638SOL    HW212847   1.960   2.173   1.846  2.9661  1.2901  0.8073
 3639SOL     OW12848   7.005   6.644   1.867  0.7142  0.2975 -0.3682
 3639SOL    HW112849   6.924   6.693   1.876  0.2149 -0.4424 -0.6670
 3639SOL    HW212850   7.047   6.680   1.789  0.1624 -0.0138 -0.8094
 3640SOL     OW12851   5.762   7.338   3.010  0.2364 -0.1016  0.6328
 3640SOL    HW112852   5.849   7.372   2.989 -0.0157  1.3159  1.7301
 3640SOL    HW212853   5.779   7.258   3.060  0.8531 -1.0171 -0.9594
 3641SOL     OW12854   8.344   1.024   7.555  0.0371 -0.0771 -0.5515
 3641SOL    HW112855   8.411   1.023   7.487 -0.6064  0.3781 -1.2007
 3641SOL    HW212856   8.265   0.991   7.511 -0.3549  0.1151  0.0031
 3642SOL     OW12857   4.714   2.142   4.093 -0.1657  0.1612 -0.0891
 3642SOL    HW112858   4.767   2.193   4.154 -1.3857  0.7678  0.5058
 3642SOL    HW212859   4.655   2.206   4.053 -0.9420 -0.5952 -0.1799
 3643SOL     OW12860   5.586   4.939   2.751  0.2349  0.6487  0.5735
 3643SOL    HW112861   5.561   4.878   2.820  2.1139 -1.4859 -0.4676
 3643SOL    HW212862   5.507   4.988   2.732 -0.8325 -0.0368  2.8783
 3644SOL     OW12863   1.497   1.094   4.851  0.0044  0.0097 -0.4358
 3644SOL    HW112864   1.464   1.167   4.799 -1.7067 -0.5178 -0.1346
 3644SOL    HW212865   1.420   1.040   4.869  0.9359 -0.9626  0.8040
 3645SOL     OW12866   5.921   7.135   6.568 -0.9812 -0.2100  0.1301
 3645SOL    HW112867   5.961   7.050   6.584 -1.4422 -0.7214 -1.2356
 3645SOL    HW212868   5.993   7.197   6.575 -0.7865 -0.5794  1.9476
 3646SOL     OW12869   1.609   0.404   2.222 -0.1289 -0.0301  0.0374
 3646SOL    HW112870   1.675   0.426   2.157  0.0039  0.5737  0.3666
 3646SOL    HW212871   1.544   0.474   2.216 -0.6856 -0.5597 -0.2048
 3647SOL     OW12872   4.223   5.121   5.811 -0.0583 -0.2846 -0.0591
 3647SOL    HW112873   4.301   5.175   5.803 -0.2056  0.1001  0.9686
 3647SOL    HW212874   4.225   5.088   5.901  0.1045 -2.1299 -0.7021
 3648SOL     OW12875   1.929   2.971   1.746 -0.1486  0.4951 -0.2631
 3648SOL    HW112876   1.878   2.932   1.675  0.0495  1.0798 -0.7326
 3648SOL    HW212877   2.020   2.952   1.725 -0.1255  0.0735  0.1992
 3649SOL     OW12878   8.461   2.097   0.382  0.2631 -0.0843 -0.4249
 3649SOL    HW112879   8.539   2.070   0.430 -0.3709 -2.2266 -0.4954
 3649SOL    HW212880   8.490   2.107   0.291  0.4561 -0.9753 -0.4693
 3650SOL     OW12881   4.102   8.472   6.776  0.0256 -0.1629 -0.2230
 3650SOL    HW112882   4.192   8.445   6.796 -0.6855 -1.9999  0.7291
 3650SOL    HW212883   4.052   8.391   6.774 -1.4821  0.7351 -1.6285
 3651SOL     OW12884   3.859   6.918   6.942 -0.0855  0.1607 -0.8660
 3651SOL    HW112885   3.845   6.909   7.036 -1.0400  0.5238 -0.9559
 3651SOL    HW212886   3.903   6.837   6.916  0.3681  0.1488 -0.0802
 3652SOL     OW12887   1.432   8.233   2.364  0.0277  0.1938 -0.1925
 3652SOL    HW112888   1.355   8.185   2.394 -0.2883  2.0916  2.3605
 3652SOL    HW212889   1.405   8.325   2.368  1.4749  0.7674 -2.2638
 3653SOL     OW12890   1.240   8.076   0.717 -0.1335 -0.2553 -0.0250
 3653SOL    HW112891   1.312   8.012   0.714  0.5091  0.5021 -2.1749
 3653SOL    HW212892   1.216   8.079   0.810  1.2069 -2.0600  0.4573
 3654SOL     OW12893   6.786   1.233   8.832  0.2458  0.7808 -0.2366
 3654SOL    HW112894   6.745   1.267   8.911  0.0676  1.3719 -0.5734
 3654SOL    HW212895   6.723   1.170   8.797  0.0668  0.9460 -0.2144
 3655SOL     OW12896   4.661   5.060   5.965  0.7891  0.4576  0.3854
 3655SOL    HW112897   4.743   5.105   5.947  0.8373  0.3688  0.3838
 3655SOL    HW212898   4.677   4.969   5.939  1.3437 -0.0147  2.2207
 3656SOL     OW12899   4.997   3.197   3.517  0.8299 -0.3169 -0.2003
 3656SOL    HW112900   5.016   3.118   3.467  1.2583  0.4681 -1.3001
 3656SOL    HW212901   4.999   3.267   3.453 -0.0245  0.5370  0.6825
 3657SOL     OW12902   2.005   3.873   7.195 -0.4605 -0.5040  0.2495
 3657SOL    HW112903   1.940   3.940   7.173  0.6676 -0.1718 -2.4065
 3657SOL    HW212904   1.956   3.807   7.244 -2.8662 -0.3513 -1.7727
 3658SOL     OW12905   7.985   7.119   0.144 -0.0682 -0.4835 -0.0254
 3658SOL    HW112906   7.979   7.143   0.237 -0.5802 -1.6413  0.2574
 3658SOL    HW212907   8.079   7.111   0.128  0.1116  1.3151 -0.0567
 3659SOL     OW12908   4.033   2.576   5.799  0.0795  0.3978  0.0151
 3659SOL    HW112909   4.125   2.563   5.776  0.0653 -0.4195  0.3868
 3659SOL    HW212910   4.032   2.571   5.895 -0.2876  0.8865  0.0416
 3660SOL     OW12911   6.503   5.299   1.192  0.1936 -0.1225  0.1068
 3660SOL    HW112912   6.557   5.258   1.260 -0.5909 -0.3773  0.5947
 3660SOL    HW212913   6.514   5.393   1.205  1.6929 -0.1381 -0.7632
 3661SOL     OW12914   8.800   8.744   1.352  0.2150 -0.3516 -0.3813
 3661SOL    HW112915   8.781   8.813   1.415  0.1930 -0.0049 -0.7580
 3661SOL    HW212916   8.885   8.767   1.316  1.1156 -1.5863  0.8774
 3662SOL     OW12917   0.577   3.456   0.764 -0.3635  0.0776  0.6417
 3662SOL    HW112918   0.602   3.533   0.814  1.1115  0.8383 -1.1399
 3662SOL    HW212919   0.545   3.491   0.680  1.1404 -1.2063 -0.5413
 3663SOL     OW12920   8.112   0.499   3.970  0.0406  0.0625  0.0490
 3663SOL    HW112921   8.127   0.545   4.052 -0.2592  0.1712  0.0439
 3663SOL    HW212922   8.102   0.407   3.996 -1.2597  0.2520  0.2769
 3664SOL     OW12923   4.407   4.952   3.091  0.2718  0.0644  0.6767
 3664SOL    HW112924   4.442   4.989   3.172 -0.2269  1.2114  0.3834
 3664SOL    HW212925   4.324   4.998   3.077 -0.2122 -0.9370  0.1163
 3665SOL     OW12926   0.147   3.643   1.122  0.0589  0.1715 -0.2468
 3665SOL    HW112927   0.099   3.678   1.197  1.1161  0.8103  0.1636
 3665SOL    HW212928   0.239   3.657   1.145  0.3907  0.5283 -1.7365
 3666SOL     OW12929   2.455   3.421   6.516  0.2780  0.4165 -0.0530
 3666SOL    HW112930   2.366   3.442   6.487  0.6358  1.0032 -0.7761
 3666SOL    HW212931   2.444   3.382   6.603 -0.6973  0.2702 -0.2365
 3667SOL     OW12932   6.356   7.056   4.959 -0.6164  0.4605 -0.2622
 3667SOL    HW112933   6.339   6.975   5.007  1.0356 -0.2675 -0.8470
 3667SOL    HW212934   6.275   7.073   4.911 -0.7769 -1.2212 -0.6603
 3668SOL     OW12935   5.793   2.961   3.194 -0.6572 -0.0415  0.0296
 3668SOL    HW112936   5.888   2.957   3.197 -0.6947 -1.4877  0.3340
 3668SOL    HW212937   5.771   3.051   3.218  0.5856 -0.0481  1.3426
 3669SOL     OW12938   1.453   0.172   7.329 -0.9404  0.4948 -0.1727
 3669SOL    HW112939   1.531   0.151   7.276 -1.2433 -1.1035 -0.0342
 3669SOL    HW212940   1.391   0.102   7.309 -2.3844  1.7611 -0.3035
 3670SOL     OW12941   7.845   7.728   3.701  0.0606  0.2012 -0.1504
 3670SOL    HW112942   7.783   7.671   3.656  1.9887 -1.2632 -1.1119
 3670SOL    HW212943   7.902   7.668   3.749  1.9308  1.2856 -0.8955
 3671SOL     OW12944   1.119   0.642   2.119 -0.2041 -0.0392 -0.3440
 3671SOL    HW112945   1.110   0.707   2.049  0.7631  1.4693  0.8792
 3671SOL    HW212946   1.135   0.560   2.072 -0.9732  0.6536 -1.9250
 3672SOL     OW12947   8.563   3.884   8.666  0.1268 -0.0506 -0.4078
 3672SOL    HW112948   8.518   3.895   8.750 -2.3190  1.9165 -1.8304
 3672SOL    HW212949   8.542   3.794   8.641 -0.9866  0.0356  0.1217
 3673SOL     OW12950   7.415   2.262   0.638 -0.0107 -0.0502  0.4925
 3673SOL    HW112951   7.500   2.219   0.636 -0.8222 -1.7044 -0.6980
 3673SOL    HW212952   7.428   2.342   0.586  0.8938 -0.0941  0.6351
 3674SOL     OW12953   0.189   8.550   0.120  0.1530  0.5432  0.5180
 3674SOL    HW112954   0.146   8.472   0.155  1.3884 -0.4345 -0.0619
 3674SOL    HW212955   0.207   8.529   0.029  0.9441  1.3182  0.4734
 3675SOL     OW12956   7.580   4.750   2.221 -0.2886  0.1552  0.0804
 3675SOL    HW112957   7.642   4.686   2.255  1.4629  2.0732  0.6843
 3675SOL    HW212958   7.574   4.731   2.128  1.7404  0.3068 -0.1168
 3676SOL     OW12959   2.633   5.365   2.422 -0.0865  0.1991  0.5035
 3676SOL    HW112960   2.540   5.341   2.421 -0.0022 -0.2868  1.7543
 3676SOL    HW212961   2.641   5.424   2.497  0.8162 -0.6945  1.1232
 3677SOL     OW12962   1.771   4.479   6.226 -0.5930  0.5540  0.3861
 3677SOL    HW112963   1.675   4.476   6.226 -0.5901  0.1058 -0.4065
 3677SOL    HW212964   1.792   4.556   6.174 -0.5352 -0.7897 -1.7058
 3678SOL     OW12965   8.810   8.845   8.214 -0.1422 -0.1637  0.8096
 3678SOL    HW112966   8.733   8.795   8.187  0.8206 -1.7392  0.9240
 3678SOL    HW212967   8.773   8.927   8.249 -1.7137 -0.5632  0.1931
 3679SOL     OW12968   3.680   5.133   7.377 -0.3516 -0.0719  0.1548
 3679SOL    HW112969   3.638   5.161   7.296  1.0745 -2.5100 -1.5679
 3679SOL    HW212970   3.637   5.051   7.400  0.2375 -0.1520  1.0285
 3680SOL     OW12971   0.561   5.888   1.592 -0.6374 -0.5222 -0.2690
 3680SOL    HW112972   0.501   5.843   1.652 -2.1137 -0.7639 -1.8493
 3680SOL    HW212973   0.508   5.958   1.553  0.2699 -0.3635 -1.2572
 3681SOL     OW12974   4.184   2.629   6.084  0.2537  0.3850 -0.3888
 3681SOL    HW112975   4.222   2.705   6.040  1.1073  0.8878  1.1290
 3681SOL    HW212976   4.110   2.665   6.133 -0.1777 -0.0167 -0.7350
 3682SOL     OW12977   2.968   4.178   2.482 -0.3284 -0.3394  0.4444
 3682SOL    HW112978   3.007   4.256   2.522 -1.4707 -0.2416  1.4392
 3682SOL    HW212979   2.963   4.114   2.553  1.4107 -1.6801 -0.5705
 3683SOL     OW12980   0.353   0.378   8.518  0.3428 -0.5113 -0.1692
 3683SOL    HW112981   0.430   0.367   8.463 -0.9437  1.0344 -2.4301
 3683SOL    HW212982   0.304   0.296   8.507  0.8294 -0.8208 -0.0648
 3684SOL     OW12983   4.811   1.051   1.380 -0.1697  0.3317  0.2114
 3684SOL    HW112984   4.796   1.145   1.394 -0.0845  0.4180 -0.2366
 3684SOL    HW212985   4.737   1.023   1.326  0.5228  0.4551 -0.8361
 3685SOL     OW12986   2.372   7.484   8.203 -0.1483  0.1229 -0.1583
 3685SOL    HW112987   2.285   7.484   8.244  0.2064 -0.2417  0.6105
 3685SOL    HW212988   2.376   7.402   8.155  0.5464 -0.8816  1.5339
 3686SOL     OW12989   0.785   6.714   2.009  0.5359  0.5423 -0.5674
 3686SOL    HW112990   0.827   6.651   1.950 -0.4521 -0.0545 -0.6533
 3686SOL    HW212991   0.783   6.669   2.093  1.1730  1.0574 -0.2722
 3687SOL     OW12992   1.735   4.910   0.015 -0.5014 -0.4119  0.2934
 3687SOL    HW112993   1.771   4.991   0.049 -0.9793 -0.3047  0.5593
 3687SOL    HW212994   1.808   4.848   0.015 -0.1335  0.0211  0.0724
 3688SOL     OW12995   4.088   3.784   1.593  0.4467 -0.0160 -0.4968
 3688SOL    HW112996   4.005   3.798   1.547  0.6828 -1.4874 -1.4610
 3688SOL    HW212997   4.105   3.867   1.638 -2.0340  0.0134  0.5719
 3689SOL     OW12998   5.016   8.846   4.021 -0.2956  0.5005 -0.1560
 3689SOL    HW112999   5.081   8.784   4.054  0.6230  1.4048 -0.2361
 3689SOL    HW213000   5.000   8.819   3.930 -0.3278  0.0501 -0.0184
 3690SOL     OW13001   6.750   6.831   7.672 -0.2041 -0.3145  0.5484
 3690SOL    HW113002   6.668   6.801   7.711 -0.4058 -1.4179 -0.6470
 3690SOL    HW213003   6.757   6.782   7.590  0.6279  1.2634 -0.3809
 3691SOL     OW13004   4.597   3.978   6.343 -0.5811  0.6256 -0.2585
 3691SOL    HW113005   4.502   3.983   6.331 -0.3003  1.0215 -2.7475
 3691SOL    HW213006   4.628   4.066   6.323  0.3400  0.4701  0.4257
 3692SOL     OW13007   6.399   6.631   5.873 -0.0451  0.1050  0.1063
 3692SOL    HW113008   6.471   6.655   5.816  0.3312 -0.3005  0.4069
 3692SOL    HW213009   6.437   6.630   5.961  0.0668 -1.9089  0.0906
 3693SOL     OW13010   5.185   7.483   0.460  0.0776 -0.0312 -0.1037
 3693SOL    HW113011   5.273   7.516   0.478 -0.0482  0.1543  0.1724
 3693SOL    HW213012   5.176   7.490   0.365  0.6730 -0.8375 -0.2303
 3694SOL     OW13013   2.900   4.586   5.649  0.1762 -0.2620  0.1833
 3694SOL    HW113014   2.878   4.603   5.740  0.8323 -0.4185  0.3769
 3694SOL    HW213015   2.990   4.553   5.652 -1.0173 -3.9720 -0.1225
 3695SOL     OW13016   4.600   2.636   7.101 -0.6403 -0.0068 -0.6686
 3695SOL    HW113017   4.593   2.659   7.194 -2.5473 -2.8585  0.0559
 3695SOL    HW213018   4.691   2.611   7.089 -0.3258  0.5764  0.3865
 3696SOL     OW13019   2.423   3.316   4.574  0.0055  0.3528  0.5061
 3696SOL    HW113020   2.386   3.400   4.548  0.1571  0.8325  1.7471
 3696SOL    HW213021   2.515   3.322   4.549 -0.1642  0.2318 -0.1464
 3697SOL     OW13022   3.735   0.521   4.827 -0.0629  0.5115  1.0847
 3697SOL    HW113023   3.808   0.537   4.767  0.1090 -1.0659  0.8219
 3697SOL    HW213024   3.775   0.515   4.914 -0.3629  3.2279  1.4952
 3698SOL     OW13025   8.280   0.514   2.030 -0.0807 -0.1435  0.1537
 3698SOL    HW113026   8.300   0.434   2.079 -1.0616  0.7292  2.0674
 3698SOL    HW213027   8.195   0.497   1.990  0.0743 -0.3333 -0.1023
 3699SOL     OW13028   1.934   0.179   8.580 -0.0973 -0.0831  0.4311
 3699SOL    HW113029   1.969   0.255   8.627 -1.1089  1.4210 -1.1227
 3699SOL    HW213030   2.006   0.149   8.526 -0.0180  0.5324  0.1819
 3700SOL     OW13031   8.556   2.297   2.203  0.4997  0.4367  0.4965
 3700SOL    HW113032   8.599   2.277   2.119 -0.7100  0.7050 -0.2040
 3700SOL    HW213033   8.465   2.273   2.189  0.0599  1.5347  1.3690
 3701SOL     OW13034   7.031   3.600   1.011 -0.0659  0.7864 -0.3265
 3701SOL    HW113035   7.117   3.624   0.977  0.0294  2.2611  0.8607
 3701SOL    HW213036   7.001   3.677   1.058 -1.6254 -0.0389  0.1034
 3702SOL     OW13037   2.800   2.613   0.790  0.3393  0.2792 -0.4975
 3702SOL    HW113038   2.708   2.585   0.786  0.3359  0.2128  0.0380
 3702SOL    HW213039   2.840   2.573   0.712  0.0302 -0.1109 -0.4573
 3703SOL     OW13040   8.169   4.329   8.046 -0.2050 -0.0031  0.1505
 3703SOL    HW113041   8.126   4.323   7.961 -1.1847 -0.9701  0.6901
 3703SOL    HW213042   8.261   4.311   8.027 -0.6456 -1.7145 -0.5088
 3704SOL     OW13043   5.000   8.245   4.241 -0.1556  0.5081  0.5418
 3704SOL    HW113044   4.935   8.268   4.175  0.3460  2.3108  0.6385
 3704SOL    HW213045   5.079   8.227   4.192 -0.2607  0.0167  0.5445
 3705SOL     OW13046   7.028   8.052   3.479  0.0367 -0.2235  0.0145
 3705SOL    HW113047   7.102   8.094   3.434 -0.6424  0.7082 -0.2543
 3705SOL    HW213048   6.976   8.125   3.513  0.8337 -0.8617  2.8806
 3706SOL     OW13049   6.543   8.288   4.753 -0.2867 -0.2023 -0.0818
 3706SOL    HW113050   6.488   8.358   4.787 -1.1577 -0.9876  0.1721
 3706SOL    HW213051   6.489   8.244   4.687 -1.0849 -2.6829  2.0380
 3707SOL     OW13052   1.685   2.889   8.588 -0.2496 -0.0608  0.1235
 3707SOL    HW113053   1.771   2.872   8.549 -0.5995 -0.3587 -0.5214
 3707SOL    HW213054   1.685   2.983   8.603 -0.2290  0.1157 -0.8960
 3708SOL     OW13055   1.659   2.431   4.357 -0.3542 -0.7016  0.1681
 3708SOL    HW113056   1.742   2.389   4.339 -0.3653 -0.6769  0.0563
 3708SOL    HW213057   1.682   2.521   4.381 -0.3160 -0.8249  0.6110
 3709SOL     OW13058   3.195   0.058   6.131  0.0575 -0.0554  0.0758
 3709SOL    HW113059   3.246   0.137   6.113 -0.1437 -0.1358 -0.8573
 3709SOL    HW213060   3.260  -0.007   6.156  0.2821  0.2292  0.2457
 3710SOL     OW13061   3.826   8.212   6.018  0.2260  0.3373 -0.3081
 3710SOL    HW113062   3.850   8.220   6.110  1.0979  3.2721 -0.7059
 3710SOL    HW213063   3.862   8.128   5.991 -0.2263 -0.6837  2.0297
 3711SOL     OW13064   0.269   1.245   6.788 -0.3986  0.0731 -0.2703
 3711SOL    HW113065   0.332   1.253   6.860  0.9076 -0.9394 -1.2525
 3711SOL    HW213066   0.277   1.327   6.739  1.3749 -0.6474 -1.2885
 3712SOL     OW13067   1.025   0.484   8.230 -0.0535 -0.0091  0.1154
 3712SOL    HW113068   0.955   0.489   8.295  0.1368 -0.0079  0.3242
 3712SOL    HW213069   0.985   0.512   8.148  0.0386  1.3098  0.5027
 3713SOL     OW13070   8.667   3.939   6.116  0.5120 -0.8614 -0.2920
 3713SOL    HW113071   8.743   3.902   6.160  0.2997 -0.6696  0.2459
 3713SOL    HW213072   8.680   4.033   6.120  0.2162 -0.8267 -0.1421
 3714SOL     OW13073   2.206   2.357   7.329  0.3237  0.4934  0.1138
 3714SOL    HW113074   2.234   2.265   7.329  0.2237  0.3646 -2.9525
 3714SOL    HW213075   2.280   2.405   7.365 -0.3378 -0.8451  3.6857
 3715SOL     OW13076   5.540   0.085   2.901 -0.8977 -0.3605  0.2038
 3715SOL    HW113077   5.480   0.042   2.840 -0.5316  1.4225 -1.5271
 3715SOL    HW213078   5.568   0.015   2.960 -0.9725 -2.3122 -1.9034
 3716SOL     OW13079   1.136   3.409   2.292  0.5340 -0.2482 -0.3638
 3716SOL    HW113080   1.066   3.361   2.338 -0.9431  1.9824 -0.0984
 3716SOL    HW213081   1.216   3.385   2.338 -0.3638 -1.2427  0.7476
 3717SOL     OW13082   6.568   6.113   2.219  0.0346  0.0444 -0.3318
 3717SOL    HW113083   6.506   6.185   2.227  0.3702  0.1951  1.3432
 3717SOL    HW213084   6.640   6.137   2.278  0.2282 -1.5687  0.1409
 3718SOL     OW13085   7.095   3.581   1.688 -0.6891  0.5685 -0.0510
 3718SOL    HW113086   7.015   3.580   1.635 -1.3404  2.3310  0.8423
 3718SOL    HW213087   7.086   3.506   1.747 -1.3374  0.3243 -0.4533
 3719SOL     OW13088   6.467   2.763   3.692 -0.1863 -0.5187 -0.0563
 3719SOL    HW113089   6.400   2.831   3.685 -1.9788 -2.3369 -1.9850
 3719SOL    HW213090   6.516   2.785   3.771 -2.5321  1.3641  0.9812
 3720SOL     OW13091   5.036   6.463   1.122 -0.2489 -0.3419 -0.0342
 3720SOL    HW113092   4.942   6.450   1.108 -0.2292 -0.2218 -0.2908
 3720SOL    HW213093   5.043   6.545   1.170 -0.2813 -0.4023  0.0726
 3721SOL     OW13094   0.130   1.076   4.509  0.0704 -0.1589 -0.1629
 3721SOL    HW113095   0.122   1.010   4.577 -0.0699 -1.3076 -1.2516
 3721SOL    HW213096   0.190   1.141   4.545  0.0201 -0.7408  1.0271
 3722SOL     OW13097   0.871   0.239   8.745  0.2832 -0.4153 -0.1099
 3722SOL    HW113098   0.929   0.216   8.817  0.6534 -0.3469 -0.3824
 3722SOL    HW213099   0.871   0.335   8.745  1.1775 -0.4024 -0.9023
 3723SOL     OW13100   2.929   0.634   4.318  0.3948  0.0021  0.0205
 3723SOL    HW113101   2.854   0.575   4.328  1.2954 -1.0682  0.8257
 3723SOL    HW213102   2.891   0.717   4.291 -1.1819 -0.2783  1.1933
 3724SOL     OW13103   3.831   0.421   4.035  0.2550 -0.0875 -0.1407
 3724SOL    HW113104   3.828   0.418   4.131  0.1949 -0.0167 -0.1399
 3724SOL    HW213105   3.745   0.391   4.007  0.9010 -1.9766 -0.2258
 3725SOL     OW13106   5.036   0.601   2.343 -0.4127  0.1100  0.0506
 3725SOL    HW113107   4.971   0.614   2.273 -1.6118  1.0409  1.2869
 3725SOL    HW213108   4.988   0.621   2.424  1.1558 -0.1732  1.0828
 3726SOL     OW13109   4.415   8.709   0.234 -0.1337 -0.0610  0.2376
 3726SOL    HW113110   4.466   8.783   0.264  0.6851 -0.7912  0.6828
 3726SOL    HW213111   4.330   8.746   0.210  1.0780  1.4631 -2.0728
 3727SOL     OW13112   6.546   5.355   0.166 -0.0544 -0.0129 -0.0244
 3727SOL    HW113113   6.620   5.395   0.120  0.0588 -1.1199 -0.8461
 3727SOL    HW213114   6.474   5.416   0.154  0.4350  0.5377 -0.1864
 3728SOL     OW13115   3.783   5.073   6.820 -0.3637 -0.1163 -0.0919
 3728SOL    HW113116   3.818   4.998   6.868  0.4054 -0.0376 -0.5294
 3728SOL    HW213117   3.769   5.140   6.887 -0.0677 -0.2891  0.1436
 3729SOL     OW13118   1.076   5.700   1.521 -0.0124  0.5464 -0.0546
 3729SOL    HW113119   1.060   5.695   1.427  0.1327 -0.6199 -0.0319
 3729SOL    HW213120   1.171   5.690   1.530 -0.1652 -0.7813  0.2836
 3730SOL     OW13121   4.206   2.439   8.579  0.4711 -0.2614  0.6837
 3730SOL    HW113122   4.190   2.533   8.589  0.2904 -0.0184 -1.3373
 3730SOL    HW213123   4.300   2.433   8.562  0.1953 -0.1799 -1.1303
 3731SOL     OW13124   1.798   5.158   2.014  0.5836  0.2769 -0.2853
 3731SOL    HW113125   1.809   5.065   1.996 -0.3979  0.0361  0.2746
 3731SOL    HW213126   1.803   5.201   1.929  1.3480 -0.2555 -0.5087
 3732SOL     OW13127   7.795   2.494   4.511  0.0317 -0.4539 -0.4041
 3732SOL    HW113128   7.740   2.561   4.552  0.9752  0.1811 -0.1483
 3732SOL    HW213129   7.884   2.528   4.518  0.4608 -1.4354 -0.8700
 3733SOL     OW13130   2.231   6.778   3.540 -0.0803 -0.3654 -0.1480
 3733SOL    HW113131   2.322   6.806   3.548  0.0536 -0.7322 -0.3725
 3733SOL    HW213132   2.192   6.840   3.479 -0.1378  0.1516  0.3989
 3734SOL     OW13133   7.448   3.010   4.012  0.7854  0.2622  0.1310
 3734SOL    HW113134   7.526   2.963   4.043 -1.2609 -1.8464  2.4666
 3734SOL    HW213135   7.384   3.000   4.082 -1.6571  1.9032 -1.7046
 3735SOL     OW13136   2.431   8.729   8.014 -0.0270  0.2015  0.0409
 3735SOL    HW113137   2.379   8.791   8.067  1.4682  0.0832  1.7531
 3735SOL    HW213138   2.522   8.756   8.029  0.5089 -0.6387 -1.5342
 3736SOL     OW13139   3.910   8.839   4.663  0.0658  0.6192  0.3128
 3736SOL    HW113140   3.962   8.768   4.700  1.0557  1.8037  1.2934
 3736SOL    HW213141   3.820   8.813   4.677  0.3551  1.0454  3.8440
 3737SOL     OW13142   3.922   6.138   6.137  0.4385  0.1224 -0.7078
 3737SOL    HW113143   3.951   6.220   6.178 -1.4767  1.4358 -1.8049
 3737SOL    HW213144   3.832   6.127   6.167  0.4739 -1.2687 -1.0674
 3738SOL     OW13145   6.947   6.355   2.758  0.0501  0.4658  0.4275
 3738SOL    HW113146   6.977   6.384   2.672  0.9929 -1.0268  0.2155
 3738SOL    HW213147   7.014   6.293   2.787 -0.2159  0.9647  2.2741
 3739SOL     OW13148   4.358   4.827   7.296 -0.1071  0.5661  0.6555
 3739SOL    HW113149   4.425   4.896   7.298  0.3471  0.1363  0.5480
 3739SOL    HW213150   4.287   4.861   7.350 -1.3602  2.5661 -2.0045
 3740SOL     OW13151   3.499   8.277   1.913 -0.4158 -0.5250 -0.0849
 3740SOL    HW113152   3.433   8.301   1.978  0.7936  0.9852  0.6699
 3740SOL    HW213153   3.511   8.183   1.924 -3.1382 -1.0456 -0.9697
 3741SOL     OW13154   8.687   6.326   7.031  0.2464 -0.5640  0.1714
 3741SOL    HW113155   8.734   6.266   7.090  1.1542  0.4249  0.5019
 3741SOL    HW213156   8.662   6.272   6.956  1.6367 -1.2167  0.1435
 3742SOL     OW13157   7.102   2.428   8.419  0.1948  0.0458  0.1068
 3742SOL    HW113158   7.194   2.405   8.429  0.2166  0.3172  0.5637
 3742SOL    HW213159   7.061   2.349   8.384  0.5396 -0.1846  0.2226
 3743SOL     OW13160   5.834   3.973   7.513 -0.4475 -0.0101 -0.6296
 3743SOL    HW113161   5.857   3.882   7.498  2.3306  0.6617 -1.1186
 3743SOL    HW213162   5.784   3.999   7.435 -0.2316 -0.8121 -1.0398
 3744SOL     OW13163   8.085   2.191   5.993 -0.0685 -0.2998  1.0743
 3744SOL    HW113164   8.124   2.274   6.019  0.2602 -0.2371  0.4202
 3744SOL    HW213165   8.003   2.187   6.041 -0.3361  0.6518  0.7196
 3745SOL     OW13166   6.517   2.161   0.600  0.1389  0.0123 -0.2120
 3745SOL    HW113167   6.548   2.096   0.536 -0.7874 -0.3756 -0.2794
 3745SOL    HW213168   6.584   2.162   0.668  1.6990  1.1918 -1.6720
 3746SOL     OW13169   1.975   8.460   5.734 -0.3869  0.1879  0.1361
 3746SOL    HW113170   1.998   8.542   5.778  1.1029 -0.3821  0.4864
 3746SOL    HW213171   1.936   8.406   5.802  0.4759 -0.1172  0.3981
 3747SOL     OW13172   7.476   2.331   2.791 -0.3717  0.4507  0.2412
 3747SOL    HW113173   7.387   2.314   2.821 -0.4847  0.9091  0.1761
 3747SOL    HW213174   7.484   2.279   2.711 -0.3137 -0.2041  0.6731
 3748SOL     OW13175   0.536   8.384   1.076 -0.2112 -0.2252  0.1068
 3748SOL    HW113176   0.618   8.431   1.086 -1.1471  1.0593  2.1935
 3748SOL    HW213177   0.496   8.422   0.998  1.2125 -1.0277 -1.0739
 3749SOL     OW13178   8.100   1.792   3.822 -0.1762  0.3907 -0.0793
 3749SOL    HW113179   8.014   1.759   3.794 -0.8100  1.2678  0.7754
 3749SOL    HW213180   8.098   1.786   3.917  0.7744  0.2927 -0.0612
 3750SOL     OW13181   0.782   7.956   1.097  0.2818  0.3094 -0.0020
 3750SOL    HW113182   0.836   8.013   1.152 -0.1511 -0.8773  1.7421
 3750SOL    HW213183   0.770   7.877   1.150 -1.1972 -0.3948 -1.3195
 3751SOL     OW13184   0.294   1.790   1.530  0.9290  0.0904  0.0068
 3751SOL    HW113185   0.347   1.864   1.498 -0.5779  0.7977 -0.9356
 3751SOL    HW213186   0.225   1.779   1.465  0.9007 -1.9586  0.3062
 3752SOL     OW13187   0.654   1.363   2.181 -0.5505 -0.1966  0.3844
 3752SOL    HW113188   0.698   1.447   2.197 -0.5071 -0.4068  1.4200
 3752SOL    HW213189   0.717   1.313   2.129  0.3587 -0.3974  1.6378
 3753SOL     OW13190   8.800   2.285   7.806  0.4499 -0.4912 -0.4983
 3753SOL    HW113191   8.859   2.308   7.878 -0.3787 -1.6447  0.5860
 3753SOL    HW213192   8.759   2.203   7.833 -0.0369 -0.8663 -2.2134
 3754SOL     OW13193   3.851   6.543   6.902 -0.8848 -0.1226  0.3314
 3754SOL    HW113194   3.768   6.581   6.872 -1.2706  0.0395  1.5730
 3754SOL    HW213195   3.902   6.533   6.821 -2.5121 -1.2849 -0.6070
 3755SOL     OW13196   8.505   1.186   4.929 -0.8331 -0.2121  0.4928
 3755SOL    HW113197   8.454   1.263   4.954 -1.3244 -0.2843 -0.2633
 3755SOL    HW213198   8.456   1.112   4.965 -1.5130 -0.3123 -0.5888
 3756SOL     OW13199   5.976   7.286   3.821  0.0955  0.1673  0.2650
 3756SOL    HW113200   6.005   7.353   3.759  1.7704 -0.4145  0.3611
 3756SOL    HW213201   5.902   7.244   3.778  0.4953  0.5401 -0.8304
 3757SOL     OW13202   5.896   6.417   5.584 -0.4984 -0.3455 -0.6738
 3757SOL    HW113203   5.802   6.407   5.601 -0.5033 -1.0569 -1.0878
 3757SOL    HW213204   5.907   6.510   5.564 -0.7569  0.1968  1.5239
 3758SOL     OW13205   1.966   8.121   3.232 -0.2855  0.1670  0.9097
 3758SOL    HW113206   2.057   8.090   3.235  0.6144  2.4706 -0.1449
 3758SOL    HW213207   1.973   8.214   3.209 -2.9456  0.3216  0.4165
 3759SOL     OW13208   0.830   5.168   4.282  0.0062  0.1987  0.0074
 3759SOL    HW113209   0.857   5.191   4.371 -3.0582  0.3059  1.0498
 3759SOL    HW213210   0.794   5.080   4.291 -0.6018  0.3323 -1.0494
 3760SOL     OW13211   2.802   2.112   1.372  0.0836 -0.2630  0.1207
 3760SOL    HW113212   2.887   2.152   1.386  0.1340  0.7432 -2.5191
 3760SOL    HW213213   2.746   2.148   1.441  1.2867  0.6301  0.6561
 3761SOL     OW13214   4.768   0.406   8.693  0.1513  0.1467  0.5354
 3761SOL    HW113215   4.856   0.391   8.726 -0.2242 -0.5116  1.2747
 3761SOL    HW213216   4.781   0.443   8.605  1.1632 -1.3185  0.0251
 3762SOL     OW13217   5.740   4.769   6.599  0.4386 -0.3525  0.2795
 3762SOL    HW113218   5.756   4.689   6.547  0.4398  1.3456 -2.5438
 3762SOL    HW213219   5.705   4.832   6.536  0.7734  2.0260  2.3165
 3763SOL     OW13220   4.508   4.948   3.370  0.4161 -0.3620  0.4368
 3763SOL    HW113221   4.580   4.997   3.410 -1.3619  1.0674  2.0848
 3763SOL    HW213222   4.519   4.858   3.401  0.5004  0.2171  2.1682
 3764SOL     OW13223   1.379   7.766   3.680 -0.1906 -0.2616  0.8093
 3764SOL    HW113224   1.393   7.847   3.631 -0.4934 -0.2765  0.7000
 3764SOL    HW213225   1.284   7.761   3.693 -0.1838 -0.6542  0.7235
 3765SOL     OW13226   1.865   7.804   8.571  0.8754  0.6196  0.2488
 3765SOL    HW113227   1.801   7.734   8.582 -0.6320  1.9789  0.3820
 3765SOL    HW213228   1.877   7.812   8.476  0.2640  0.8639  0.1902
 3766SOL     OW13229   6.631   5.131   2.454  0.0714 -0.0669 -0.0549
 3766SOL    HW113230   6.713   5.114   2.408 -0.0924 -2.4168  0.3998
 3766SOL    HW213231   6.565   5.085   2.403 -0.5041 -0.5869  1.1268
 3767SOL     OW13232   3.016   5.515   6.793  0.1765 -0.0267  0.6252
 3767SOL    HW113233   2.980   5.497   6.880  1.4280 -0.1771  1.1236
 3767SOL    HW213234   3.081   5.583   6.807  1.1628 -0.8169 -0.0191
 3768SOL     OW13235   2.784   0.840   6.781 -0.0276 -0.1225  0.1833
 3768SOL    HW113236   2.865   0.795   6.804  0.4872  0.3882 -0.5471
 3768SOL    HW213237   2.780   0.833   6.685 -1.0559 -0.4753  0.2361
 3769SOL     OW13238   2.765   4.410   4.083  0.2091 -0.1767  0.0069
 3769SOL    HW113239   2.806   4.408   4.170 -0.7852  0.7415  0.5104
 3769SOL    HW213240   2.693   4.348   4.089 -2.3915  2.6984  1.1991
 3770SOL     OW13241   4.011   6.262   0.888  0.1287 -1.2193  0.1159
 3770SOL    HW113242   4.016   6.204   0.812  0.5341 -1.0450  0.0084
 3770SOL    HW213243   3.917   6.273   0.904 -0.1705  1.5848 -2.5531
 3771SOL     OW13244   3.711   6.031   4.733 -0.1744 -0.4947 -0.3099
 3771SOL    HW113245   3.665   5.987   4.805  0.4760 -0.3991  0.1778
 3771SOL    HW213246   3.768   6.094   4.777  0.7292 -0.9064 -0.8751
 3772SOL     OW13247   6.674   2.800   0.625  0.6459 -0.1383  0.6554
 3772SOL    HW113248   6.631   2.885   0.636  2.2499  0.8686 -0.4191
 3772SOL    HW213249   6.606   2.745   0.585  0.1424  1.2221 -0.4564
 3773SOL     OW13250   2.378   6.536   5.412  0.5840  0.4420 -0.3332
 3773SOL    HW113251   2.282   6.538   5.406  0.4608 -0.2094  1.0583
 3773SOL    HW213252   2.406   6.616   5.367 -0.5940  0.5813 -0.8680
 3774SOL     OW13253   2.661   5.235   5.810  0.0609  0.0575 -0.5603
 3774SOL    HW113254   2.613   5.286   5.744  1.2215  2.5499  0.3574
 3774SOL    HW213255   2.752   5.240   5.781  0.2764 -1.0177 -0.1016
 3775SOL     OW13256   4.207   8.128   8.045  0.1211  0.5430  0.0157
 3775SOL    HW113257   4.180   8.074   7.971  0.4883  0.3589  0.0140
 3775SOL    HW213258   4.141   8.197   8.049  0.5926  1.1003 -1.0784
 3776SOL     OW13259   0.056   7.074   6.366 -0.4445  0.5992 -0.0045
 3776SOL    HW113260  -0.040   7.077   6.367 -0.4266  3.5747  0.6372
 3776SOL    HW213261   0.083   7.136   6.433  1.9816 -0.9702  0.5867
 3777SOL     OW13262   1.603   7.814   1.616 -0.1821  0.6163  0.1973
 3777SOL    HW113263   1.512   7.829   1.592 -0.6564  1.9770  2.5958
 3777SOL    HW213264   1.604   7.813   1.712  2.6217  2.8124  0.3263
 3778SOL     OW13265   2.951   5.207   2.542  0.5830 -0.1952  0.3162
 3778SOL    HW113266   2.925   5.176   2.455 -1.0471  0.9784  0.3355
 3778SOL    HW213267   3.040   5.173   2.554  0.6866 -0.7391 -1.6178
 3779SOL     OW13268   1.459   3.007   6.317  0.1911  0.2265 -0.1229
 3779SOL    HW113269   1.374   3.043   6.343  0.5047  0.3658  0.7242
 3779SOL    HW213270   1.481   2.944   6.385  1.0631  0.6490  0.0007
 3780SOL     OW13271   6.924   0.818   2.890  0.2488 -0.0443  0.6575
 3780SOL    HW113272   7.013   0.796   2.863 -0.7388 -2.2647 -1.0867
 3780SOL    HW213273   6.909   0.905   2.853  1.6468  0.3557  0.9557
 3781SOL     OW13274   5.641   2.934   1.075 -0.3163  0.0723 -0.1833
 3781SOL    HW113275   5.558   2.923   1.122 -0.0340 -2.7924 -0.1938
 3781SOL    HW213276   5.702   2.966   1.142 -1.0120  0.6417  0.2032
 3782SOL     OW13277   1.123   7.157   7.193  0.0326  0.5825  0.2823
 3782SOL    HW113278   1.071   7.077   7.179 -1.5872  1.3532  1.5649
 3782SOL    HW213279   1.195   7.129   7.249  0.3132 -0.2529 -0.4607
 3783SOL     OW13280   6.767   7.808   5.855  0.2338  0.2452 -0.1940
 3783SOL    HW113281   6.762   7.838   5.765 -0.2997  0.2214 -0.1787
 3783SOL    HW213282   6.703   7.861   5.902 -0.6276 -0.7863 -0.1415
 3784SOL     OW13283   3.439   7.969   1.915  0.3467  0.5289  0.4016
 3784SOL    HW113284   3.404   7.976   1.826  1.0066 -0.5886  0.0384
 3784SOL    HW213285   3.371   7.924   1.964  1.7304 -3.0574 -0.6647
 3785SOL     OW13286   6.873   1.194   2.056  0.0598 -0.3701 -0.0263
 3785SOL    HW113287   6.876   1.177   2.150 -0.3359 -0.4990 -0.0337
 3785SOL    HW213288   6.959   1.229   2.035  0.5935 -1.5269  0.1509
 3786SOL     OW13289   2.452   6.509   2.074 -0.3864  1.1430  0.3212
 3786SOL    HW113290   2.441   6.473   2.161  0.9456 -0.0175  0.0498
 3786SOL    HW213291   2.439   6.435   2.015  2.9678  0.8383 -0.2313
 3787SOL     OW13292   0.502   5.650   1.038 -0.0940  0.0253  0.4738
 3787SOL    HW113293   0.407   5.640   1.025  0.0878 -0.6211 -0.4698
 3787SOL    HW213294   0.534   5.682   0.954  0.4330  1.0344  1.0423
 3788SOL     OW13295   2.841   3.735   7.541  0.0621 -0.8818 -0.5002
 3788SOL    HW113296   2.905   3.801   7.567 -1.3391  2.1686 -3.8845
 3788SOL    HW213297   2.885   3.684   7.473 -0.0835 -0.8056 -0.6541
 3789SOL     OW13298   7.379   8.770   6.262 -0.2300  0.3350  0.7871
 3789SOL    HW113299   7.358   8.782   6.354 -2.2108 -0.2908  0.4690
 3789SOL    HW213300   7.448   8.704   6.261 -0.7785 -0.2798  1.8060
 3790SOL     OW13301   6.137   6.953   8.479 -0.1254  0.0549 -0.4667
 3790SOL    HW113302   6.077   7.013   8.436  0.5321  0.5143 -0.7582
 3790SOL    HW213303   6.205   6.936   8.414 -0.9022 -1.9541 -0.8418
 3791SOL     OW13304   8.544   5.307   5.330  0.0084  0.1164 -0.3912
 3791SOL    HW113305   8.576   5.229   5.285 -1.3479 -0.0211 -1.1834
 3791SOL    HW213306   8.457   5.282   5.363 -0.3338  1.1996 -0.4240
 3792SOL     OW13307   2.932   3.119   0.928 -0.6555 -0.3025  0.3098
 3792SOL    HW113308   2.940   3.028   0.900  1.5011  0.2210 -0.9669
 3792SOL    HW213309   2.841   3.142   0.909 -1.3508 -2.2744  1.0226
 3793SOL     OW13310   3.224   0.971   3.234 -0.4717 -0.0624 -0.1207
 3793SOL    HW113311   3.226   0.964   3.329  0.2988  1.5487  0.0078
 3793SOL    HW213312   3.151   0.915   3.207 -0.3010 -1.0267  1.3517
 3794SOL     OW13313   1.765   6.110   3.237 -0.8468 -0.1387  0.2642
 3794SOL    HW113314   1.842   6.064   3.204  0.0275  3.2864 -3.2154
 3794SOL    HW213315   1.795   6.156   3.315  0.2808  0.0770 -0.2839
 3795SOL     OW13316   0.497   2.815   8.148 -0.7543  0.4929 -0.1610
 3795SOL    HW113317   0.572   2.858   8.107 -0.7065  0.4417 -0.1279
 3795SOL    HW213318   0.428   2.881   8.148 -0.2957  1.0020  1.0561
 3796SOL     OW13319   0.476   4.464   8.720 -0.0817 -0.5027  0.5894
 3796SOL    HW113320   0.439   4.376   8.722 -1.5400 -0.0939 -2.6162
 3796SOL    HW213321   0.409   4.519   8.761 -0.9003 -0.4411 -0.7655
 3797SOL     OW13322   3.667   7.318   4.307 -0.3451  0.3100 -0.1515
 3797SOL    HW113323   3.606   7.371   4.255 -0.2368  0.4155 -0.1708
 3797SOL    HW213324   3.701   7.379   4.373 -0.3907  0.2067 -0.0338
 3798SOL     OW13325   4.710   1.727   0.067  0.3758 -0.0434  0.1465
 3798SOL    HW113326   4.757   1.770  -0.004  0.8194 -0.1977  0.3432
 3798SOL    HW213327   4.739   1.635   0.063  0.3450 -0.0690  0.4731
 3799SOL     OW13328   3.618   7.359   7.697  0.0367 -0.0902  0.8022
 3799SOL    HW113329   3.602   7.415   7.621  1.9336  0.3709  0.7123
 3799SOL    HW213330   3.597   7.414   7.772 -1.5059 -0.4354  0.6608
 3800SOL     OW13331   2.499   0.908   0.635  0.5735 -0.4153  0.3523
 3800SOL    HW113332   2.408   0.909   0.666 -0.2499 -1.8039 -1.8262
 3800SOL    HW213333   2.550   0.924   0.714 -1.5580  1.6315  1.4632
 3801SOL     OW13334   5.590   0.745   4.774  0.4588 -0.0680 -0.3487
 3801SOL    HW113335   5.580   0.808   4.702  0.4766 -1.0830 -1.2651
 3801SOL    HW213336   5.634   0.670   4.734  0.7782 -0.5158  0.8146
 3802SOL     OW13337   8.562   4.009   2.180  0.0954  0.0303  0.4206
 3802SOL    HW113338   8.570   4.101   2.207  0.5382  0.1382 -0.0706
 3802SOL    HW213339   8.500   4.011   2.107 -0.0698 -0.0952  0.5566
 3803SOL     OW13340   7.864   6.409   0.684  0.1988 -0.4449 -0.1080
 3803SOL    HW113341   7.770   6.403   0.664  0.3600 -0.3410 -0.9412
 3803SOL    HW213342   7.868   6.408   0.779 -0.6556 -0.3993 -0.0595
 3804SOL     OW13343   0.544   8.564   1.897 -0.2464 -0.1315 -0.0280
 3804SOL    HW113344   0.457   8.570   1.935 -0.5791 -1.8510 -0.4298
 3804SOL    HW213345   0.598   8.525   1.966  0.3907  1.5021  0.4456
 3805SOL     OW13346   3.343   5.579   5.434  0.1397  0.4853  0.6256
 3805SOL    HW113347   3.268   5.634   5.409 -0.1042  0.0530  0.3878
 3805SOL    HW213348   3.415   5.640   5.446 -0.0753  0.8356  0.1454
 3806SOL     OW13349   1.302   8.582   7.059 -0.6551  0.1116  0.4719
 3806SOL    HW113350   1.262   8.496   7.055 -0.9826  0.2027  1.3994
 3806SOL    HW213351   1.306   8.602   7.153  0.1272  0.7736  0.3103
 3807SOL     OW13352   6.326   7.193   8.587  0.2622  0.0533  0.0522
 3807SOL    HW113353   6.269   7.171   8.513 -0.0379 -1.1616  0.6078
 3807SOL    HW213354   6.276   7.257   8.638  0.0012  0.0632 -0.2113
 3808SOL     OW13355   2.987   7.902   2.590 -0.3925 -0.3123 -0.4229
 3808SOL    HW113356   3.046   7.967   2.627  0.1967 -1.5210  0.8434
 3808SOL    HW213357   2.971   7.932   2.501  0.4897  1.1285 -0.1227
 3809SOL     OW13358   0.206   5.285   1.016  0.3184 -0.0848 -0.3875
 3809SOL    HW113359   0.119   5.322   1.028  0.1612  0.2846 -2.3504
 3809SOL    HW213360   0.238   5.325   0.935  2.4141 -0.0299  0.3955
 3810SOL     OW13361   5.027   5.925   5.270 -0.7745  0.2934 -0.3154
 3810SOL    HW113362   5.000   5.863   5.202  1.2510  2.0730 -2.9406
 3810SOL    HW213363   5.037   5.871   5.349 -2.1991 -2.0812 -1.6379
 3811SOL     OW13364   4.596   8.324   8.657  0.3379 -0.8377  0.8192
 3811SOL    HW113365   4.591   8.401   8.600  0.0269  0.4811  2.5367
 3811SOL    HW213366   4.649   8.353   8.731  0.7154 -2.4897  1.2240
 3812SOL     OW13367   8.068   7.374   1.280  0.3551 -0.3008 -0.2639
 3812SOL    HW113368   8.138   7.353   1.218  1.7361 -2.0659  1.7293
 3812SOL    HW213369   8.092   7.460   1.315  0.7528 -0.2744 -0.5935
 3813SOL     OW13370   5.663   0.938   4.554 -0.0410 -0.0648 -0.2931
 3813SOL    HW113371   5.599   0.878   4.516 -0.8351  0.7721 -0.3301
 3813SOL    HW213372   5.717   0.964   4.479 -0.2032 -0.1224 -0.4331
 3814SOL     OW13373   6.537   8.606   5.350  0.1007 -0.1357  0.3683
 3814SOL    HW113374   6.480   8.567   5.283  2.1537 -0.2130 -1.4351
 3814SOL    HW213375   6.580   8.678   5.305  0.1591  1.0504  2.2066
 3815SOL     OW13376   4.086   7.015   8.199  0.2821  0.2460  0.1338
 3815SOL    HW113377   4.116   6.933   8.237  0.6880 -0.5592 -1.8221
 3815SOL    HW213378   4.124   7.083   8.256  1.7445 -0.8582  0.5429
 3816SOL     OW13379   3.321   0.171   2.634  0.0909 -0.1139 -0.3027
 3816SOL    HW113380   3.371   0.227   2.694 -0.5375  0.9847 -0.7847
 3816SOL    HW213381   3.337   0.208   2.548 -1.3345  0.1044 -0.4959
 3817SOL     OW13382   4.183   6.025   8.083 -0.0395 -0.5583  0.2671
 3817SOL    HW113383   4.192   6.003   7.991 -1.3919 -0.8389  0.1724
 3817SOL    HW213384   4.192   6.120   8.087  0.5042 -0.5955 -0.0818
 3818SOL     OW13385   1.689   7.751   7.589  0.0943  0.0318 -0.1281
 3818SOL    HW113386   1.609   7.746   7.538 -0.9578 -0.9279  1.5084
 3818SOL    HW213387   1.749   7.691   7.546  0.0867  1.0142 -1.5672
 3819SOL     OW13388   0.897   4.545   6.770 -0.2518 -0.0486  0.3176
 3819SOL    HW113389   0.959   4.479   6.802 -1.4624 -0.5551  1.7486
 3819SOL    HW213390   0.918   4.623   6.820 -0.6885 -0.2016  0.7546
 3820SOL     OW13391   0.939   2.035   0.535  0.9855  0.1872 -0.6192
 3820SOL    HW113392   0.888   2.114   0.554  1.0341  0.3531 -1.1579
 3820SOL    HW213393   0.906   1.969   0.596 -0.1927  0.1564 -1.2785
 3821SOL     OW13394   5.871   1.591   4.203  0.0503  0.4469 -1.0169
 3821SOL    HW113395   5.809   1.627   4.266 -0.3908 -0.0752 -1.1471
 3821SOL    HW213396   5.896   1.665   4.148  0.1427  0.8234 -0.4759
 3822SOL     OW13397   0.481   7.547   8.526 -0.1153  0.7305 -0.1285
 3822SOL    HW113398   0.516   7.463   8.556  0.2194  0.6421 -0.7428
 3822SOL    HW213399   0.493   7.606   8.600  0.5291  0.4787 -0.0260
 3823SOL     OW13400   1.448   6.409   0.935  0.7790 -0.4402  0.0728
 3823SOL    HW113401   1.395   6.428   1.013  0.5500  2.4492 -0.6984
 3823SOL    HW213402   1.531   6.453   0.951  1.8604 -2.3409 -0.0886
 3824SOL     OW13403   4.872   4.068   6.145 -0.7155 -0.1472 -0.0802
 3824SOL    HW113404   4.859   3.974   6.160  0.1304 -0.2901 -0.2131
 3824SOL    HW213405   4.915   4.073   6.059 -0.8744  0.3767 -0.1345
 3825SOL     OW13406   5.198   5.007   2.099 -0.5687 -0.0179 -0.0891
 3825SOL    HW113407   5.151   5.070   2.044 -1.0968  2.9202  3.4070
 3825SOL    HW213408   5.285   5.047   2.112 -0.7978 -0.0680  1.9122
 3826SOL     OW13409   3.840   2.889   0.487  0.0232  0.6580  0.1142
 3826SOL    HW113410   3.790   2.957   0.534 -1.0566  1.1986 -1.7125
 3826SOL    HW213411   3.838   2.813   0.546 -0.3886  1.6088  1.3736
 3827SOL     OW13412   5.865   3.859   0.937 -0.2124 -0.6216 -0.1212
 3827SOL    HW113413   5.888   3.856   1.030  1.0062 -0.4986 -0.4019
 3827SOL    HW213414   5.792   3.798   0.928 -0.3558 -0.6201  0.9133
 3828SOL     OW13415   3.668   4.844   3.951  0.2500  0.2707  0.2410
 3828SOL    HW113416   3.656   4.834   3.856  1.1237  0.0512  0.1497
 3828SOL    HW213417   3.624   4.927   3.971 -2.8044 -1.2163  0.2100
 3829SOL     OW13418   8.791   7.491   8.837  0.2660  0.4042  0.1519
 3829SOL    HW113419   8.763   7.401   8.822 -0.2935 -0.1240  3.5259
 3829SOL    HW213420   8.731   7.544   8.785 -0.6257 -1.1152 -0.4105
 3830SOL     OW13421   3.720   2.136   7.469  0.2125  0.4569  0.1012
 3830SOL    HW113422   3.813   2.158   7.467 -0.0783  1.6922 -0.5903
 3830SOL    HW213423   3.675   2.220   7.464 -0.9510 -0.1998 -2.0710
 3831SOL     OW13424   1.756   4.027   7.126  0.7106  0.4538 -0.6189
 3831SOL    HW113425   1.795   4.020   7.039  0.5133 -0.4067 -0.6430
 3831SOL    HW213426   1.719   4.115   7.128  1.6065  0.8513 -1.0261
 3832SOL     OW13427   4.644   4.464   1.239  0.9335 -0.4996 -0.3235
 3832SOL    HW113428   4.613   4.437   1.152 -1.0698 -0.0829  0.2030
 3832SOL    HW213429   4.663   4.557   1.231 -0.3358 -0.1923 -0.0922
 3833SOL     OW13430   8.851   5.247   3.651 -0.0495 -0.3629 -0.0253
 3833SOL    HW113431   8.762   5.221   3.674  0.1495 -0.2072  0.9294
 3833SOL    HW213432   8.901   5.166   3.651  0.1501 -0.2504  1.0347
 3834SOL     OW13433   1.327   0.608   6.357 -0.7057  0.2460 -0.0607
 3834SOL    HW113434   1.381   0.532   6.334 -0.0483  0.9867 -1.0482
 3834SOL    HW213435   1.385   0.683   6.343 -1.2913  0.9323  1.0702
 3835SOL     OW13436   5.641   5.846   7.443 -0.2299 -0.4890  0.3346
 3835SOL    HW113437   5.604   5.789   7.511 -0.5265  0.1314  0.6958
 3835SOL    HW213438   5.569   5.902   7.416  0.2970  0.3641  0.6589
 3836SOL     OW13439   0.847   1.039   7.884  0.0356  0.6206 -0.4931
 3836SOL    HW113440   0.786   1.069   7.817  0.6188  2.6260 -0.2053
 3836SOL    HW213441   0.792   1.026   7.962 -0.5113 -0.9071 -1.1089
 3837SOL     OW13442   7.628   1.745   4.479 -0.1084 -0.0445 -0.4765
 3837SOL    HW113443   7.658   1.836   4.478 -0.0382 -0.0334 -3.1668
 3837SOL    HW213444   7.537   1.749   4.449  0.1903 -0.9089 -1.5870
 3838SOL     OW13445   1.097   7.197   8.703 -0.3887 -0.0109  0.6350
 3838SOL    HW113446   1.130   7.286   8.715 -0.1261  0.5818 -3.2030
 3838SOL    HW213447   1.175   7.142   8.699 -0.4379 -0.1103  1.0057
 3839SOL     OW13448   7.318   0.988   6.275 -0.6942  0.1166  0.3052
 3839SOL    HW113449   7.290   1.053   6.211 -1.2743 -0.2389  0.1817
 3839SOL    HW213450   7.318   0.905   6.226  1.5800  0.2345  0.0389
 3840SOL     OW13451   6.388   3.966   4.101  0.0884 -0.0752 -0.2361
 3840SOL    HW113452   6.299   3.983   4.130  0.2454 -0.7053  0.6627
 3840SOL    HW213453   6.401   4.024   4.026 -0.3095  1.6767  0.9951
 3841SOL     OW13454   3.924   0.093   2.004  0.0234  0.0499 -0.2106
 3841SOL    HW113455   4.005   0.067   1.960  1.3243  1.6188  1.1132
 3841SOL    HW213456   3.880   0.150   1.941 -0.2508 -1.0636 -1.0618
 3842SOL     OW13457   6.764   7.640   5.603 -0.0616 -0.1393  0.1580
 3842SOL    HW113458   6.704   7.700   5.648  0.0467  0.8320 -0.9646
 3842SOL    HW213459   6.753   7.659   5.510  1.0711 -0.8321 -0.1377
 3843SOL     OW13460   6.928   7.095   1.637 -0.3017 -0.1887  0.1151
 3843SOL    HW113461   6.996   7.136   1.584  0.6519 -2.5983 -0.6473
 3843SOL    HW213462   6.864   7.165   1.653  1.2085  1.5433 -1.0812
 3844SOL     OW13463   2.875   0.675   0.232  0.4615 -0.2920  0.3007
 3844SOL    HW113464   2.854   0.759   0.274 -2.2774 -1.0452  0.6129
 3844SOL    HW213465   2.918   0.624   0.300  0.1656  0.1048  0.7897
 3845SOL     OW13466   5.196   0.035   8.438 -0.6325  0.1931  0.0508
 3845SOL    HW113467   5.136   0.092   8.486 -1.1287  0.8876 -1.3327
 3845SOL    HW213468   5.255   0.001   8.505 -2.0488  0.1249  1.3395
 3846SOL     OW13469   3.684   2.431   1.486 -0.3794  0.1398  0.0557
 3846SOL    HW113470   3.624   2.466   1.421  1.8457  1.8460 -1.2251
 3846SOL    HW213471   3.765   2.415   1.437  1.4178  1.5475  2.3863
 3847SOL     OW13472   6.549   8.032   2.073 -0.4009  0.1547 -0.3687
 3847SOL    HW113473   6.561   7.948   2.117 -2.9426 -0.3289 -0.4127
 3847SOL    HW213474   6.620   8.087   2.106  1.8242 -2.2019 -0.9618
 3848SOL     OW13475   5.837   7.076   0.559  0.0645  0.8937  0.6181
 3848SOL    HW113476   5.827   7.046   0.468  0.1182  0.2005  0.8335
 3848SOL    HW213477   5.882   7.159   0.552  1.7712 -0.0346  0.0990
 3849SOL     OW13478   8.192   1.670   6.092 -0.2280  0.2757  0.4600
 3849SOL    HW113479   8.254   1.706   6.156  2.1210  0.9107 -1.9787
 3849SOL    HW213480   8.240   1.597   6.053 -1.7232 -0.2908 -0.3694
 3850SOL     OW13481   5.831   2.742   7.048 -0.9165 -0.7121 -0.0045
 3850SOL    HW113482   5.832   2.677   7.119 -2.5849 -0.6845  0.0724
 3850SOL    HW213483   5.760   2.801   7.072  1.3767  1.9939  0.6413
 3851SOL     OW13484   0.978   5.415   6.363 -0.8368  0.5763  0.0927
 3851SOL    HW113485   0.989   5.322   6.382  0.2037  0.9438  1.4917
 3851SOL    HW213486   0.987   5.422   6.268  0.4261 -0.6152  0.0907
 3852SOL     OW13487   0.914   3.964   2.754 -0.3301  0.2802  0.6254
 3852SOL    HW113488   0.849   4.008   2.700  0.4584 -0.0899 -0.6546
 3852SOL    HW213489   0.888   3.872   2.754  0.4336  0.0498 -0.2828
 3853SOL     OW13490   6.972   2.991   0.099 -0.3589 -0.2890 -0.1874
 3853SOL    HW113491   6.894   2.941   0.120  0.0943 -1.1678 -0.5647
 3853SOL    HW213492   7.037   2.964   0.164 -0.3096  0.3237  0.0316
 3854SOL     OW13493   6.203   3.019   8.124 -0.3042 -0.0965 -0.1542
 3854SOL    HW113494   6.293   2.990   8.141 -0.7128 -1.1324  0.2945
 3854SOL    HW213495   6.204   3.044   8.032  0.2096 -1.0705 -0.4362
 3855SOL     OW13496   7.655   0.009   0.957 -0.6859  0.4351 -0.3918
 3855SOL    HW113497   7.651   0.102   0.982  0.5693  0.2499  0.6131
 3855SOL    HW213498   7.618  -0.037   1.033 -1.0728  0.0850 -0.7860
 3856SOL     OW13499   7.485   2.715   7.340 -0.2624 -0.4559 -0.1735
 3856SOL    HW113500   7.390   2.704   7.339 -0.1807 -1.3513 -2.0752
 3856SOL    HW213501   7.506   2.758   7.257  0.9696  0.0977  0.3936
 3857SOL     OW13502   7.231   1.675   6.908  0.3953 -0.3372 -0.5981
 3857SOL    HW113503   7.252   1.752   6.855 -1.2274  0.2148 -0.4780
 3857SOL    HW213504   7.277   1.690   6.991  0.3244  0.3614 -0.6789
 3858SOL     OW13505   7.431   6.856   1.621  0.2145  0.3010 -0.2239
 3858SOL    HW113506   7.390   6.874   1.706 -0.4487 -1.3824 -0.1400
 3858SOL    HW213507   7.376   6.902   1.558 -0.3365  0.1261  0.1196
 3859SOL     OW13508   4.533   5.329   1.404 -0.4720  0.0919  0.4057
 3859SOL    HW113509   4.503   5.367   1.486  0.0455  1.0536  0.1651
 3859SOL    HW213510   4.511   5.394   1.337  0.3696 -0.0448 -0.0268
 3860SOL     OW13511   1.012   1.469   0.508 -0.5381 -0.4640 -0.9074
 3860SOL    HW113512   0.944   1.491   0.445  0.3518  1.9638 -1.1276
 3860SOL    HW213513   0.972   1.487   0.593 -0.9426 -1.4115 -0.8843
 3861SOL     OW13514   4.310   4.417   1.590 -0.0710  0.0447 -0.0586
 3861SOL    HW113515   4.272   4.392   1.674  0.1635 -0.4012 -0.0834
 3861SOL    HW213516   4.386   4.360   1.580  1.0198  1.3978  0.3079
 3862SOL     OW13517   3.945   3.741   3.926  0.2148 -0.4571 -0.3848
 3862SOL    HW113518   3.886   3.719   3.854  0.2966 -1.3433 -0.1876
 3862SOL    HW213519   4.030   3.752   3.885  0.5546 -2.3409 -0.2732
 3863SOL     OW13520   8.166   2.222   4.170 -0.5606 -0.1488 -0.9531
 3863SOL    HW113521   8.249   2.233   4.215 -1.6718 -0.8692  1.4163
 3863SOL    HW213522   8.190   2.217   4.077  2.1487 -1.3059 -0.2989
 3864SOL     OW13523   4.413   4.158   2.547 -0.0590 -0.1149 -0.1145
 3864SOL    HW113524   4.437   4.250   2.531 -0.1780  0.0097  0.3951
 3864SOL    HW213525   4.420   4.148   2.642 -0.9798 -0.3746 -0.0675
 3865SOL     OW13526   4.408   0.442   3.002 -0.0522  0.5600 -0.0151
 3865SOL    HW113527   4.371   0.362   3.039  0.0115  0.8515  0.7075
 3865SOL    HW213528   4.460   0.412   2.928 -0.1452 -0.0568  0.1569
 3866SOL     OW13529   6.470   5.594   3.018  0.3213 -0.2523  0.5242
 3866SOL    HW113530   6.418   5.671   3.042  0.5818 -0.7451  2.9056
 3866SOL    HW213531   6.445   5.576   2.927  0.1195  2.5044 -0.0498
 3867SOL     OW13532   3.179   5.220   4.450 -0.5162 -0.0049 -0.4395
 3867SOL    HW113533   3.171   5.129   4.423 -1.5128 -0.0138 -0.1499
 3867SOL    HW213534   3.252   5.255   4.398 -0.2148 -0.9201 -0.6417
 3868SOL     OW13535   1.422   2.249   6.351  0.0045 -0.1896  0.1522
 3868SOL    HW113536   1.333   2.267   6.321  0.4665  0.4089 -0.9024
 3868SOL    HW213537   1.410   2.195   6.430 -1.3243  1.3421  1.0625
 3869SOL     OW13538   1.265   1.512   5.893  0.5181  0.0076 -0.4973
 3869SOL    HW113539   1.186   1.530   5.841  0.6847 -1.3670 -1.2607
 3869SOL    HW213540   1.308   1.597   5.900 -0.2948  0.5106 -1.3248
 3870SOL     OW13541   0.427   3.203   2.665 -0.2222  0.3001 -0.0079
 3870SOL    HW113542   0.362   3.143   2.629 -0.1990  0.0506  0.3661
 3870SOL    HW213543   0.511   3.166   2.638 -0.2140  0.2622  0.0696
 3871SOL     OW13544   3.135   2.064   3.025 -0.5459  0.0078 -0.1117
 3871SOL    HW113545   3.170   2.095   3.109  0.7232 -0.0407 -0.6025
 3871SOL    HW213546   3.106   1.974   3.044 -0.5350  0.0947  0.3419
 3872SOL     OW13547   3.109   8.627   4.454 -0.1533  0.2116  0.1875
 3872SOL    HW113548   3.088   8.671   4.371 -0.6570 -0.6347 -0.1408
 3872SOL    HW213549   3.139   8.698   4.511 -1.5111  1.0915 -0.1429
 3873SOL     OW13550   3.609   6.173   1.253  0.6541  0.6403  0.3759
 3873SOL    HW113551   3.667   6.212   1.188  1.1051  0.3115  0.5759
 3873SOL    HW213552   3.617   6.078   1.239  0.1386  0.5909  0.3828
 3874SOL     OW13553   8.675   1.762   7.342 -0.7011  0.0407 -0.2028
 3874SOL    HW113554   8.642   1.837   7.292 -0.7475 -0.0903 -0.3685
 3874SOL    HW213555   8.760   1.791   7.375 -1.8357  1.1585  1.9662
 3875SOL     OW13556   0.575   8.493   7.410 -0.2975  0.2327  0.6169
 3875SOL    HW113557   0.496   8.547   7.416  0.2655  1.2873 -0.9749
 3875SOL    HW213558   0.617   8.520   7.329  0.5121 -1.9630  0.2335
 3876SOL     OW13559   7.235   5.399   5.106 -0.4350  0.3059  0.0567
 3876SOL    HW113560   7.225   5.361   5.193  0.5003 -0.7770 -0.2945
 3876SOL    HW213561   7.265   5.489   5.123  0.1250 -0.0187  0.8488
 3877SOL     OW13562   5.276   2.717   0.573  0.4109 -0.3619 -0.0061
 3877SOL    HW113563   5.185   2.711   0.544  0.0022 -1.6975  1.4311
 3877SOL    HW213564   5.312   2.630   0.553  0.9055 -0.3706  0.9067
 3878SOL     OW13565   4.900   6.073   7.410  0.0712  0.6343 -0.2176
 3878SOL    HW113566   4.862   6.123   7.338 -0.5636 -0.9254 -1.0201
 3878SOL    HW213567   4.859   6.110   7.489 -1.3959  0.5292 -0.8849
 3879SOL     OW13568   0.371   6.835   6.036 -0.0497 -0.2348 -0.6643
 3879SOL    HW113569   0.314   6.823   6.112  2.3756 -1.0216  1.1507
 3879SOL    HW213570   0.320   6.799   5.963 -3.0153  1.7651  0.2171
 3880SOL     OW13571   7.527   3.716   6.577 -0.4363 -0.0506  0.0894
 3880SOL    HW113572   7.536   3.701   6.671  0.7282  1.6469  0.2859
 3880SOL    HW213573   7.441   3.757   6.568 -0.2485  0.4378  0.5012
 3881SOL     OW13574   5.956   1.918   0.158 -0.1722  0.0812 -0.3411
 3881SOL    HW113575   6.039   1.918   0.206 -1.6159  1.4048  2.3990
 3881SOL    HW213576   5.922   1.829   0.170  0.2777 -0.1043 -0.4170
 3882SOL     OW13577   4.211   4.114   0.281 -0.1284  0.0561 -0.6728
 3882SOL    HW113578   4.120   4.130   0.304 -0.1373  2.6102 -2.0720
 3882SOL    HW213579   4.250   4.076   0.360 -1.4996  2.6936  1.4198
 3883SOL     OW13580   4.331   0.827   3.576 -0.0493  0.0639 -0.1428
 3883SOL    HW113581   4.312   0.790   3.662  0.3348 -3.6458 -1.4540
 3883SOL    HW213582   4.264   0.894   3.563 -2.4180 -1.7643  1.6389
 3884SOL     OW13583   4.556   2.923   6.047  0.1920  0.2900  0.4899
 3884SOL    HW113584   4.561   2.831   6.073 -0.6090  0.2436  0.4992
 3884SOL    HW213585   4.553   2.972   6.129  0.2860  0.3098  0.4824
 3885SOL     OW13586   3.366   4.613   3.268  0.3343 -0.2423  0.0913
 3885SOL    HW113587   3.326   4.577   3.189  3.1651  0.1163 -1.6476
 3885SOL    HW213588   3.351   4.547   3.335 -3.8889  0.3082 -0.0403
 3886SOL     OW13589   4.221   7.427   1.339  0.0283  0.4530  0.6232
 3886SOL    HW113590   4.135   7.463   1.320  0.0951  0.4423  0.2895
 3886SOL    HW213591   4.282   7.488   1.298  0.1642  0.2769  0.5616
 3887SOL     OW13592   0.305   5.679   4.091 -0.2619 -0.3089 -0.0868
 3887SOL    HW113593   0.375   5.744   4.085  1.2223 -1.9140 -1.9782
 3887SOL    HW213594   0.331   5.623   4.164 -0.3707 -0.0299  0.1645
 3888SOL     OW13595   7.913   8.498   8.862  0.1157 -0.2106  0.4099
 3888SOL    HW113596   7.858   8.574   8.877  2.0316  0.8311  2.7469
 3888SOL    HW213597   7.997   8.533   8.833  1.6016 -1.1898  3.1795
 3889SOL     OW13598   8.373   7.448   8.300 -0.2986 -0.1879  0.9653
 3889SOL    HW113599   8.312   7.493   8.357 -0.1377  0.0689  0.9370
 3889SOL    HW213600   8.459   7.484   8.322 -0.2480 -0.0066  0.4916
 3890SOL     OW13601   8.320   3.641   0.651 -0.0317 -0.0080  0.2023
 3890SOL    HW113602   8.334   3.734   0.636 -0.4777  0.0294  0.0111
 3890SOL    HW213603   8.267   3.637   0.730  1.4610 -0.1703  1.2395
 3891SOL     OW13604   6.699   2.182   6.173  0.7908 -0.1250  0.0244
 3891SOL    HW113605   6.676   2.209   6.084  0.0448 -0.7852  0.0112
 3891SOL    HW213606   6.704   2.264   6.222 -0.9342  0.1161 -0.1427
 3892SOL     OW13607   5.261   6.440   8.203 -0.0934 -0.0692  0.0985
 3892SOL    HW113608   5.310   6.412   8.125  0.0092  1.1775 -0.3046
 3892SOL    HW213609   5.316   6.415   8.277  1.3760  1.6077 -0.3527
 3893SOL     OW13610   7.455   2.749   0.972  0.6446  0.2971  0.4064
 3893SOL    HW113611   7.382   2.802   1.003 -0.6977 -1.0385 -0.2955
 3893SOL    HW213612   7.509   2.735   1.049 -0.3235  0.5891  1.1568
 3894SOL     OW13613   0.752   1.660   1.004  0.5691  0.0107  0.0549
 3894SOL    HW113614   0.838   1.634   1.037  0.5720 -0.1108 -0.0445
 3894SOL    HW213615   0.704   1.577   0.996  1.0167 -0.1247 -1.5161
 3895SOL     OW13616   5.001   2.422   0.013  0.1156  0.4099 -0.4879
 3895SOL    HW113617   4.994   2.506   0.059 -0.0779  0.9097 -1.4164
 3895SOL    HW213618   5.040   2.443  -0.071 -0.2660 -0.3756 -0.8773
 3896SOL     OW13619   5.182   3.254   8.335 -0.0010  0.4018 -0.5511
 3896SOL    HW113620   5.118   3.324   8.325  0.7415  1.2139  0.1222
 3896SOL    HW213621   5.262   3.290   8.296  0.7134  0.4177  0.8842
 3897SOL     OW13622   4.804   6.119   2.171  0.2705 -0.4493  0.2857
 3897SOL    HW113623   4.880   6.144   2.118 -1.4424  3.0098 -0.8175
 3897SOL    HW213624   4.787   6.028   2.147  1.6979 -0.1048 -2.4499
 3898SOL     OW13625   3.566   7.313   8.134  0.3360  0.1903  0.8642
 3898SOL    HW113626   3.503   7.311   8.206 -1.5296  0.5352 -0.6706
 3898SOL    HW213627   3.645   7.351   8.172 -0.6184  0.4718  2.6775
 3899SOL     OW13628   0.919   0.340   1.728  0.0396  0.6992  0.1956
 3899SOL    HW113629   0.980   0.379   1.666  0.5565  0.2695  0.4300
 3899SOL    HW213630   0.833   0.349   1.686  0.4002  0.2917 -0.6472
 3900SOL     OW13631   6.644   7.745   7.441 -0.7940  0.9505  0.0470
 3900SOL    HW113632   6.620   7.819   7.385  0.5541  0.7911 -0.7645
 3900SOL    HW213633   6.702   7.691   7.388  0.2266  0.5976  1.4402
 3901SOL     OW13634   1.897   1.913   5.898 -0.3317  0.5158 -0.2796
 3901SOL    HW113635   1.858   1.880   5.817  0.4909  1.4841 -1.1028
 3901SOL    HW213636   1.981   1.868   5.905 -1.8323 -2.2234  1.9488
 3902SOL     OW13637   7.923   3.079   2.973  0.3979  0.0365 -0.3684
 3902SOL    HW113638   7.921   3.104   3.065  0.2030 -0.9234 -0.1009
 3902SOL    HW213639   7.903   2.985   2.973 -0.1025  0.1323 -1.4270
 3903SOL     OW13640   4.605   1.985   8.289 -0.3630  0.5119 -0.3164
 3903SOL    HW113641   4.633   1.924   8.221  1.9226  2.2485 -1.0967
 3903SOL    HW213642   4.681   2.041   8.303 -1.5043  1.6106  2.1503
 3904SOL     OW13643   2.281   7.301   3.993 -0.2318  0.3842  0.1414
 3904SOL    HW113644   2.246   7.383   3.959  0.0642 -0.0068 -1.1631
 3904SOL    HW213645   2.363   7.287   3.945  0.3886 -0.0430  1.2604
 3905SOL     OW13646   1.024   7.059   8.264  0.2559  0.1015 -0.1057
 3905SOL    HW113647   0.955   7.087   8.203  0.7379 -0.3165 -0.8578
 3905SOL    HW213648   1.044   6.969   8.238 -0.3221 -0.4846  1.4179
 3906SOL     OW13649   1.447   3.575   3.915  0.4136  0.4297  0.6114
 3906SOL    HW113650   1.353   3.580   3.894  0.4637  1.6935  0.5903
 3906SOL    HW213651   1.452   3.517   3.991 -0.1185 -1.5989 -0.8067
 3907SOL     OW13652   2.123   7.322   1.300 -0.6396 -0.5078  0.2012
 3907SOL    HW113653   2.037   7.360   1.318 -1.3545 -1.6720 -0.6081
 3907SOL    HW213654   2.155   7.369   1.222 -1.3263 -1.2327 -0.5359
 3908SOL     OW13655   4.871   4.926   7.361 -0.2187  0.0931 -0.8232
 3908SOL    HW113656   4.838   4.954   7.275  0.1771  1.6416 -0.5019
 3908SOL    HW213657   4.848   4.998   7.420  0.3429 -0.5353  0.1894
 3909SOL     OW13658   3.122   4.573   6.336 -0.2167 -0.1992 -0.0437
 3909SOL    HW113659   3.123   4.590   6.430 -0.6443 -1.2810  0.1852
 3909SOL    HW213660   3.045   4.619   6.304  0.6941  1.3093 -0.1248
 3910SOL     OW13661   6.725   2.104   1.369  0.1578 -0.1973  0.8590
 3910SOL    HW113662   6.673   2.100   1.450 -0.2438 -2.1669  0.5522
 3910SOL    HW213663   6.815   2.094   1.398 -0.0731 -2.2258  1.0206
 3911SOL     OW13664   4.506   7.073   6.068 -0.3908  0.0754  0.5840
 3911SOL    HW113665   4.554   7.152   6.043 -2.0495  0.8023 -0.4576
 3911SOL    HW213666   4.564   7.028   6.129  1.8271  0.6200 -1.0174
 3912SOL     OW13667   1.632   5.037   7.051 -0.1188 -0.0266 -0.0188
 3912SOL    HW113668   1.618   5.127   7.018 -0.1684 -0.2955 -0.7587
 3912SOL    HW213669   1.702   5.002   6.996  1.4450  0.2703  1.6896
 3913SOL     OW13670   0.776   1.925   1.034  0.4966  0.0657 -0.4132
 3913SOL    HW113671   0.739   1.837   1.032 -1.3400  0.7871 -0.4911
 3913SOL    HW213672   0.790   1.947   0.942 -3.9580  1.6874 -0.9548
 3914SOL     OW13673   0.626   0.876   6.012  0.3492  0.1606  0.3227
 3914SOL    HW113674   0.538   0.854   6.043  0.6203 -1.8692 -0.2017
 3914SOL    HW213675   0.612   0.939   5.942 -0.6616  0.0834  0.4422
 3915SOL     OW13676   7.007   0.506   1.154  0.2905 -0.5520  0.0690
 3915SOL    HW113677   7.003   0.489   1.060  1.8135  1.6836 -0.4950
 3915SOL    HW213678   7.058   0.433   1.190  1.7839 -0.2247 -1.2658
 3916SOL     OW13679   4.581   4.435   5.814  0.2054  0.0356  1.0571
 3916SOL    HW113680   4.536   4.363   5.858  2.4170 -0.8461  2.0324
 3916SOL    HW213681   4.628   4.480   5.884  0.7715  0.9641  0.1138
 3917SOL     OW13682   2.513   6.716   7.755  0.5584  0.3193  0.5313
 3917SOL    HW113683   2.502   6.786   7.691  1.1121  0.0124  0.0952
 3917SOL    HW213684   2.574   6.655   7.714  0.4637 -0.1757  1.1103
 3918SOL     OW13685   8.646   6.490   0.445  0.2321 -0.5914 -0.4253
 3918SOL    HW113686   8.726   6.537   0.420 -0.0772 -0.3199 -0.9058
 3918SOL    HW213687   8.583   6.512   0.377 -1.6484  2.7111  2.0784
 3919SOL     OW13688   0.095   3.211   5.930  0.1162  0.2071 -0.2840
 3919SOL    HW113689   0.061   3.140   5.985 -2.0935  1.4793  0.1180
 3919SOL    HW213690   0.133   3.167   5.855  2.0298 -1.5451  1.5786
 3920SOL     OW13691   2.840   6.533   7.014  0.6640 -0.3477  0.2945
 3920SOL    HW113692   2.843   6.600   7.083  0.6661  0.2711 -0.2999
 3920SOL    HW213693   2.803   6.456   7.058 -1.4344  0.6740  0.4529
 3921SOL     OW13694   2.934   6.324   2.546  0.6126  0.3084 -0.2178
 3921SOL    HW113695   3.029   6.332   2.546  0.5458  1.2326 -0.2513
 3921SOL    HW213696   2.910   6.325   2.453  0.6482 -1.1525 -0.2604
 3922SOL     OW13697   6.131   6.250   8.678  0.0177 -0.3296  0.2532
 3922SOL    HW113698   6.050   6.207   8.649  0.8465 -0.7024 -1.6231
 3922SOL    HW213699   6.130   6.335   8.636 -0.0405  0.2379  1.3590
 3923SOL     OW13700   7.587   2.153   3.964 -0.1943 -0.2791 -0.5605
 3923SOL    HW113701   7.647   2.214   3.919 -0.1546 -0.4817 -0.7861
 3923SOL    HW213702   7.645   2.089   4.006 -0.2687 -1.1786 -1.7804
 3924SOL     OW13703   6.683   6.865   3.718  0.3118 -0.5081  0.0443
 3924SOL    HW113704   6.766   6.889   3.759 -0.0813  0.2005  0.4271
 3924SOL    HW213705   6.689   6.900   3.629 -0.5049  1.6601  0.7724
 3925SOL     OW13706   7.335   3.824   2.575  0.3402 -0.2269 -0.6650
 3925SOL    HW113707   7.247   3.834   2.540 -0.0515  0.2153  0.4061
 3925SOL    HW213708   7.334   3.739   2.619  0.3289 -0.0438 -0.3102
 3926SOL     OW13709   6.886   3.170   2.557  0.4636 -0.4348 -0.3003
 3926SOL    HW113710   6.916   3.257   2.529 -1.7913  1.7016  3.1241
 3926SOL    HW213711   6.965   3.126   2.589  1.3416  1.2900  0.0251
 3927SOL     OW13712   8.396   5.323   7.657 -0.4743  0.4398 -0.3887
 3927SOL    HW113713   8.318   5.275   7.685  0.4349 -1.5738 -1.0754
 3927SOL    HW213714   8.417   5.380   7.730 -1.6091 -0.2420  0.5034
 3928SOL     OW13715   3.054   4.567   5.983 -0.6000  0.2794  0.0232
 3928SOL    HW113716   3.142   4.530   5.992 -0.7407 -0.2167 -0.6241
 3928SOL    HW213717   2.995   4.493   5.998 -0.9428  0.8232  1.5447
 3929SOL     OW13718   6.130   4.354   4.286 -0.7787  0.2656  0.0292
 3929SOL    HW113719   6.208   4.390   4.328  0.2430 -0.6441 -1.0103
 3929SOL    HW213720   6.063   4.355   4.354 -0.1772  2.0108  0.6664
 3930SOL     OW13721   3.607   7.369   1.458 -0.3415 -0.2624  0.2855
 3930SOL    HW113722   3.636   7.387   1.368  1.2529  0.6850  0.9447
 3930SOL    HW213723   3.514   7.395   1.458 -0.0088  1.0687 -0.7405
 3931SOL     OW13724   8.152   2.653   8.107 -0.6462 -0.3558  0.4848
 3931SOL    HW113725   8.195   2.738   8.099 -0.7020 -0.3252  0.5069
 3931SOL    HW213726   8.223   2.592   8.127 -0.3731 -0.5773 -1.0126
 3932SOL     OW13727   5.615   8.782   3.430 -0.5915 -0.0487 -0.0623
 3932SOL    HW113728   5.693   8.831   3.454 -2.0794  1.9435  1.0776
 3932SOL    HW213729   5.599   8.807   3.339  0.8743 -1.6668 -0.8157
 3933SOL     OW13730   4.145   3.368   7.725 -0.0465 -0.2279  0.4440
 3933SOL    HW113731   4.158   3.378   7.820 -0.7020 -0.6572  0.5855
 3933SOL    HW213732   4.198   3.293   7.701 -0.9036 -0.9441  0.7208
 3934SOL     OW13733   0.814   6.538   1.282  0.1197 -0.2684 -0.4720
 3934SOL    HW113734   0.839   6.618   1.235  1.0169 -0.2935 -0.0684
 3934SOL    HW213735   0.858   6.468   1.234  2.2321 -0.1654  1.1588
 3935SOL     OW13736   3.565   3.927   1.594 -1.0678 -0.1175 -0.3016
 3935SOL    HW113737   3.513   3.859   1.637 -2.3056 -0.0730 -1.6386
 3935SOL    HW213738   3.567   3.900   1.502  1.3832 -0.1500 -0.3121
 3936SOL     OW13739   8.804   6.556   5.774 -0.2051 -0.1444 -0.3380
 3936SOL    HW113740   8.847   6.507   5.704  1.0290 -1.3981  1.2170
 3936SOL    HW213741   8.813   6.647   5.748 -1.5656 -0.6246 -2.7754
 3937SOL     OW13742   7.932   3.742   3.324 -0.3035  0.0059  0.5146
 3937SOL    HW113743   7.878   3.750   3.245  1.8627  0.7139 -0.9824
 3937SOL    HW213744   8.014   3.705   3.292  0.5042 -0.0462  2.5419
 3938SOL     OW13745   8.853   6.814   8.820  0.0550 -0.0860  0.6165
 3938SOL    HW113746   8.940   6.774   8.832  0.0820  0.2938  1.8319
 3938SOL    HW213747   8.864   6.904   8.850 -0.9138 -0.2179  1.4258
 3939SOL     OW13748   0.377   0.507   8.096 -0.5963  0.1688 -0.3053
 3939SOL    HW113749   0.331   0.541   8.172  1.4200 -0.0762  1.1240
 3939SOL    HW213750   0.311   0.501   8.028 -2.0771  2.1982  0.8502
 3940SOL     OW13751   2.940   3.142   1.920  0.2701  0.4425 -0.1503
 3940SOL    HW113752   2.875   3.208   1.893 -0.5248 -0.0852  0.4255
 3940SOL    HW213753   2.889   3.062   1.934  1.0607 -0.0116  0.2303
 3941SOL     OW13754   3.785   6.768   4.861 -0.0817  0.3107 -0.1319
 3941SOL    HW113755   3.779   6.681   4.901  0.9640 -0.2467 -1.1039
 3941SOL    HW213756   3.869   6.802   4.891  0.7852 -0.1668 -1.8564
 3942SOL     OW13757   5.638   7.392   0.276  0.1286  0.2052  0.2194
 3942SOL    HW113758   5.588   7.363   0.200  1.0144  0.1538 -0.3638
 3942SOL    HW213759   5.687   7.314   0.303  0.5636  0.4779  0.2272
 3943SOL     OW13760   2.150   4.122   0.469  0.8170 -0.5123  0.2938
 3943SOL    HW113761   2.078   4.119   0.406 -0.2579 -0.4838  1.4816
 3943SOL    HW213762   2.187   4.033   0.466 -1.9659 -1.9438  2.6158
 3944SOL     OW13763   5.680   2.337   3.581  0.1534 -0.1990  0.2188
 3944SOL    HW113764   5.734   2.317   3.658 -2.5624  0.4990  2.4955
 3944SOL    HW213765   5.697   2.429   3.563  0.6343 -0.3025  0.1487
 3945SOL     OW13766   3.875   1.957   0.035  0.1215  0.2000  0.1361
 3945SOL    HW113767   3.918   1.962  -0.051  0.7276  1.4835  0.4836
 3945SOL    HW213768   3.944   1.932   0.096 -0.0362  0.4642  0.4280
 3946SOL     OW13769   4.126   4.293   6.728 -0.2639 -0.5666 -0.7255
 3946SOL    HW113770   4.220   4.312   6.731 -0.2800 -0.5369 -0.3113
 3946SOL    HW213771   4.112   4.232   6.801 -1.1035  1.9206  1.3643
 3947SOL     OW13772   3.856   1.588   1.888 -0.2787  0.6028 -0.0039
 3947SOL    HW113773   3.906   1.544   1.958 -0.8056 -1.4233 -0.8369
 3947SOL    HW213774   3.770   1.604   1.926  0.0382  1.3251  0.4351
 3948SOL     OW13775   7.063   6.054   6.444 -0.5032  0.1192 -0.1721
 3948SOL    HW113776   7.072   6.114   6.370 -1.4018  1.6400  0.8843
 3948SOL    HW213777   7.067   6.111   6.521  0.5719 -1.4225  0.9919
 3949SOL     OW13778   4.591   1.031   1.147 -0.4342  0.1786 -0.3957
 3949SOL    HW113779   4.593   1.014   1.052  3.4285 -0.6491 -0.3418
 3949SOL    HW213780   4.589   0.944   1.186  0.2321  0.4426  0.2375
 3950SOL     OW13781   7.388   3.263   3.454  0.2304  0.6879 -0.1980
 3950SOL    HW113782   7.390   3.278   3.548 -0.2280  3.1667 -0.5082
 3950SOL    HW213783   7.333   3.185   3.443 -1.0202  1.2668  1.5090
 3951SOL     OW13784   5.540   8.829   6.847 -0.2496 -0.9112 -0.1113
 3951SOL    HW113785   5.457   8.870   6.870  0.1660 -0.8570  1.3428
 3951SOL    HW213786   5.549   8.756   6.909  1.7852  0.3603  1.1860
 3952SOL     OW13787   7.188   2.607   6.541 -0.2607  0.4187  0.0577
 3952SOL    HW113788   7.238   2.617   6.459 -0.5474  3.4307  0.1734
 3952SOL    HW213789   7.238   2.656   6.606 -1.7222  0.7711  0.9425
 3953SOL     OW13790   3.940   7.028   0.735 -0.2614 -0.1754  0.1912
 3953SOL    HW113791   3.960   7.083   0.811  0.2522 -0.7007  0.4473
 3953SOL    HW213792   3.855   7.059   0.704  0.3416  1.2317 -0.1133
 3954SOL     OW13793   4.869   7.167   7.684  0.1919 -0.1434 -0.2883
 3954SOL    HW113794   4.777   7.140   7.693  0.2528 -0.2045  0.1753
 3954SOL    HW213795   4.888   7.214   7.765  0.6697 -0.4228 -0.2359
 3955SOL     OW13796   4.374   8.231   3.600  0.7410 -0.0631 -0.0915
 3955SOL    HW113797   4.309   8.252   3.668  2.5522  2.1305  1.1119
 3955SOL    HW213798   4.323   8.201   3.526 -1.5134 -0.1884  1.4224
 3956SOL     OW13799   6.692   2.411   1.285  0.1473 -0.3030 -0.4187
 3956SOL    HW113800   6.628   2.466   1.330 -0.8094 -0.4654 -1.5147
 3956SOL    HW213801   6.764   2.402   1.347  0.4745  2.4089 -0.2670
 3957SOL     OW13802   0.570   5.808   4.928 -0.1355  0.1349 -0.0713
 3957SOL    HW113803   0.538   5.775   4.844 -0.5606  0.4358 -0.0294
 3957SOL    HW213804   0.496   5.856   4.964  0.7029  1.8139 -0.4880
 3958SOL     OW13805   7.949   0.733   0.037 -0.4850  0.1859 -0.3153
 3958SOL    HW113806   7.996   0.666   0.086 -0.5678 -0.7797 -1.5152
 3958SOL    HW213807   7.861   0.698   0.026 -0.3369  0.1566 -1.5469
 3959SOL     OW13808   3.849   0.192   5.126  0.2565 -0.2275 -0.5373
 3959SOL    HW113809   3.857   0.284   5.150  1.3698 -0.1741 -1.0542
 3959SOL    HW213810   3.921   0.176   5.066 -1.3173 -0.8220 -2.3925
 3960SOL     OW13811   4.497   5.599   7.815 -0.1141 -0.3139  0.0655
 3960SOL    HW113812   4.417   5.557   7.785  0.7983 -1.7059 -0.5310
 3960SOL    HW213813   4.523   5.657   7.742  1.0887 -2.2708 -1.1489
 3961SOL     OW13814   8.159   8.868   7.150  0.6301  0.1145 -0.5542
 3961SOL    HW113815   8.243   8.853   7.108  0.1302 -2.1039 -0.8686
 3961SOL    HW213816   8.105   8.910   7.083  0.9623 -0.0323 -0.9164
 3962SOL     OW13817   7.554   0.549   2.564  0.0979 -0.5806  0.0157
 3962SOL    HW113818   7.599   0.592   2.492  1.5893 -1.8343  0.1589
 3962SOL    HW213819   7.511   0.474   2.524 -0.1713 -0.5432  0.2296
 3963SOL     OW13820   6.554   6.005   1.372 -0.1879 -0.2235 -0.1555
 3963SOL    HW113821   6.551   6.099   1.358 -3.5157 -0.3759 -1.4412
 3963SOL    HW213822   6.588   5.969   1.290 -1.3809 -0.2271 -0.6625
 3964SOL     OW13823   4.925   4.673   1.196 -0.0850  0.7675  0.1304
 3964SOL    HW113824   4.944   4.763   1.224 -1.2985  0.9649  0.3799
 3964SOL    HW213825   4.954   4.670   1.105 -2.4869  2.2979 -0.7961
 3965SOL     OW13826   3.283   0.904   1.937 -0.2431  0.3094 -0.0827
 3965SOL    HW113827   3.370   0.907   1.898  0.5165  0.8906  1.5445
 3965SOL    HW213828   3.299   0.908   2.032 -2.0092 -0.2286  0.2815
 3966SOL     OW13829   5.775   3.878   1.241  0.7447  0.5842  0.4826
 3966SOL    HW113830   5.695   3.913   1.201  0.2704 -0.8629  0.1032
 3966SOL    HW213831   5.780   3.922   1.326 -0.0489  1.2443  0.2010
 3967SOL     OW13832   8.567   7.992   2.374  0.2422 -0.1715 -0.4428
 3967SOL    HW113833   8.638   7.934   2.402  1.1821  1.8265  1.6948
 3967SOL    HW213834   8.487   7.952   2.410  0.6839 -0.9049 -0.2702
 3968SOL     OW13835   5.619   8.486   1.422 -0.5011  0.8437  0.2724
 3968SOL    HW113836   5.681   8.495   1.350 -1.1364 -1.9007 -0.7385
 3968SOL    HW213837   5.534   8.507   1.383 -0.7952 -0.2510  0.2970
 3969SOL     OW13838   2.284   5.307   1.072 -0.4720  0.1255 -0.0408
 3969SOL    HW113839   2.343   5.273   1.004 -2.9391  0.0706 -2.3247
 3969SOL    HW213840   2.247   5.386   1.034 -0.5187  1.1924  2.1022
 3970SOL     OW13841   4.161   2.891   0.730  0.4210  0.4476 -0.0495
 3970SOL    HW113842   4.159   2.938   0.647 -1.1660 -0.9433 -0.8502
 3970SOL    HW213843   4.098   2.938   0.786  0.2731  0.4163 -0.1904
 3971SOL     OW13844   0.719   1.400   4.568 -0.4436  0.5496 -0.2390
 3971SOL    HW113845   0.805   1.383   4.530 -0.8171  0.3067 -1.0146
 3971SOL    HW213846   0.737   1.432   4.656  0.4094 -0.2359 -0.1154
 3972SOL     OW13847   3.200   3.853   5.951  0.6435 -0.1167 -0.0564
 3972SOL    HW113848   3.259   3.929   5.948  0.5806  0.0010  1.2253
 3972SOL    HW213849   3.133   3.878   6.015  1.5908 -1.9349  1.7482
 3973SOL     OW13850   6.280   2.167   1.838  0.0736 -0.6610 -0.2093
 3973SOL    HW113851   6.203   2.224   1.835 -0.1022 -0.9332 -1.7563
 3973SOL    HW213852   6.249   2.084   1.802  1.2387 -0.5681 -1.5064
 3974SOL     OW13853   0.702   2.545   0.977  0.1851 -0.3848 -0.2369
 3974SOL    HW113854   0.688   2.587   0.892 -0.6479 -0.8613 -0.3460
 3974SOL    HW213855   0.614   2.531   1.012  0.5193  0.0434  0.8347
 3975SOL     OW13856   2.270   5.957   6.837  0.4966 -0.0507 -0.7855
 3975SOL    HW113857   2.329   6.015   6.789  0.4473 -0.2368 -1.0736
 3975SOL    HW213858   2.242   5.892   6.772 -0.9057  0.6934 -0.9638
 3976SOL     OW13859   0.156   3.589   3.216 -0.7479  0.4113  0.3198
 3976SOL    HW113860   0.236   3.540   3.235 -1.4499  0.2428  3.1888
 3976SOL    HW213861   0.087   3.523   3.212 -1.3291  0.8993  1.7906
 3977SOL     OW13862   8.821   1.210   3.462 -0.1596  0.0507 -0.4503
 3977SOL    HW113863   8.794   1.301   3.450  0.1793  0.3683  1.0759
 3977SOL    HW213864   8.784   1.165   3.386 -1.0710  1.2948 -0.7855
 3978SOL     OW13865   7.337   6.590   6.655 -0.0081 -0.1192  0.2006
 3978SOL    HW113866   7.430   6.572   6.642  0.2525  1.3385 -0.1088
 3978SOL    HW213867   7.334   6.662   6.718 -0.8910  0.2428 -0.2231
 3979SOL     OW13868   6.577   3.920   3.595 -0.7059  0.1539  0.0955
 3979SOL    HW113869   6.504   3.858   3.590  0.5107 -1.5362  1.5644
 3979SOL    HW213870   6.557   3.975   3.671 -1.8688  1.7804 -1.3084
 3980SOL     OW13871   0.037   7.660   3.355 -0.4388  0.2772  0.4960
 3980SOL    HW113872   0.125   7.695   3.341 -0.4987  0.2533  0.0397
 3980SOL    HW213873   0.013   7.620   3.271 -0.8282  0.1554  0.6598
 3981SOL     OW13874   4.888   5.344   0.400  0.1276 -0.0963  0.0585
 3981SOL    HW113875   4.943   5.413   0.439 -0.1697 -0.4985  1.2273
 3981SOL    HW213876   4.937   5.314   0.324  0.0503  1.7335 -0.7721
 3982SOL     OW13877   3.848   7.546   4.780 -0.0918  0.1973 -0.3461
 3982SOL    HW113878   3.789   7.584   4.845 -0.4404  1.4280 -1.3360
 3982SOL    HW213879   3.909   7.617   4.758 -0.7830  0.2575 -2.2710
 3983SOL     OW13880   3.713   4.527   5.412 -0.1843 -0.3803  0.2243
 3983SOL    HW113881   3.742   4.538   5.502  0.4996 -0.5121  0.0233
 3983SOL    HW213882   3.790   4.495   5.365 -0.5970 -0.5420 -0.3595
 3984SOL     OW13883   8.211   3.785   4.635  0.1270  0.1198 -0.3696
 3984SOL    HW113884   8.186   3.847   4.566 -0.1817 -0.1914 -0.5400
 3984SOL    HW213885   8.206   3.699   4.593 -1.3797 -0.1915  0.3930
 3985SOL     OW13886   6.941   5.568   5.198 -0.6940 -0.3925 -0.6548
 3985SOL    HW113887   7.027   5.569   5.157 -0.8059 -0.0656 -0.8853
 3985SOL    HW213888   6.913   5.660   5.198 -0.7342 -0.4012  0.0718
 3986SOL     OW13889   0.222   2.952   8.690 -0.0024  0.2922  0.0580
 3986SOL    HW113890   0.219   2.877   8.631 -1.8598 -0.5516  1.1285
 3986SOL    HW213891   0.206   2.915   8.777  2.1038  1.5755  1.0618
 3987SOL     OW13892   1.242   1.943   1.704  0.7628 -0.1667 -0.2629
 3987SOL    HW113893   1.226   1.912   1.793  1.1998  0.3841  0.0128
 3987SOL    HW213894   1.335   1.965   1.703  0.2793  2.0811 -0.1349
 3988SOL     OW13895   3.088   8.476   2.273 -0.0087  0.5830  0.0620
 3988SOL    HW113896   3.014   8.498   2.217 -1.1595 -0.4227  1.1117
 3988SOL    HW213897   3.135   8.558   2.286 -1.0470  1.2725 -0.4810
 3989SOL     OW13898   8.591   8.112   6.960  0.3199  0.2176  0.1673
 3989SOL    HW113899   8.673   8.141   6.921  1.4499 -1.0332  1.5184
 3989SOL    HW213900   8.591   8.150   7.048  2.5883 -4.6352  2.6278
 3990SOL     OW13901   3.537   7.415   6.584 -0.0634 -0.2389  0.1424
 3990SOL    HW113902   3.618   7.421   6.635 -0.4985 -2.6104  1.2396
 3990SOL    HW213903   3.567   7.408   6.494  0.9998 -1.4369  0.5577
 3991SOL     OW13904   5.845   8.169   3.211 -0.6038 -0.7751 -0.8596
 3991SOL    HW113905   5.848   8.262   3.185 -0.8544  0.0028  1.6300
 3991SOL    HW213906   5.937   8.145   3.221 -0.5574 -0.1258  0.5077
 3992SOL     OW13907   1.064   6.447   4.943 -0.0998  0.4848 -0.0818
 3992SOL    HW113908   1.072   6.463   4.849 -0.7471 -1.0833 -0.4481
 3992SOL    HW213909   1.098   6.526   4.985 -2.9050  2.6651 -1.6265
 3993SOL     OW13910   5.742   2.367   0.213  0.1430 -0.4133  0.1280
 3993SOL    HW113911   5.661   2.380   0.164 -0.6817  0.0684  1.5638
 3993SOL    HW213912   5.745   2.273   0.231  0.9962 -0.7667 -1.7121
 3994SOL     OW13913   3.442   7.135   7.917  0.1663 -0.1725  0.3301
 3994SOL    HW113914   3.503   7.208   7.921  0.3279 -0.1522 -1.7472
 3994SOL    HW213915   3.465   7.081   7.993  3.0134 -0.3468 -0.5299
 3995SOL     OW13916   2.671   5.191   4.286  0.3824  0.0127 -0.0636
 3995SOL    HW113917   2.726   5.133   4.339  0.4297  0.6048  0.5599
 3995SOL    HW213918   2.727   5.219   4.214  0.6384 -0.0391  0.1144
 3996SOL     OW13919   8.104   8.574   1.274  0.2327  0.1099  0.1627
 3996SOL    HW113920   8.133   8.604   1.188 -1.5179  0.0484 -0.4834
 3996SOL    HW213921   8.158   8.623   1.336  2.0508 -0.3764 -0.9454
 3997SOL     OW13922   8.486   0.143   3.645 -0.5563 -0.1051  0.0357
 3997SOL    HW113923   8.524   0.086   3.712 -2.0195 -1.4811 -0.2504
 3997SOL    HW213924   8.556   0.205   3.624  0.8920 -1.4191  0.7933
 3998SOL     OW13925   7.730   0.453   5.611 -0.2702  0.0832 -0.4270
 3998SOL    HW113926   7.686   0.511   5.673  1.6620  0.6547  0.4915
 3998SOL    HW213927   7.734   0.368   5.656 -1.4767 -0.3124 -1.0228
 3999SOL     OW13928   0.538   5.112   8.577  0.4835 -0.6342  0.4674
 3999SOL    HW113929   0.555   5.032   8.627  0.3712 -0.0843  1.4065
 3999SOL    HW213930   0.541   5.182   8.642  0.0881  0.0720 -0.2604
 4000SOL     OW13931   7.365   5.581   0.817  0.2516  0.5755 -0.2860
 4000SOL    HW113932   7.425   5.630   0.875  0.4075  0.4022 -0.3007
 4000SOL    HW213933   7.422   5.543   0.751  0.0291  1.0833 -0.7783
 4001SOL     OW13934   1.404   1.813   2.256 -0.1185 -0.1142 -0.3995
 4001SOL    HW113935   1.479   1.869   2.276  0.5636 -0.9063 -0.7115
 4001SOL    HW213936   1.441   1.736   2.214 -1.2750  0.2986 -2.3183
 4002SOL     OW13937   8.268   2.754   3.148 -0.1908 -0.0610 -0.1693
 4002SOL    HW113938   8.244   2.811   3.075 -1.0400 -1.1836 -0.8048
 4002SOL    HW213939   8.204   2.683   3.144  0.9065 -1.1158  0.5110
 4003SOL     OW13940   0.391   0.645   3.254 -0.7237 -0.1388 -0.2901
 4003SOL    HW113941   0.313   0.687   3.217 -0.7622  1.2053  1.1974
 4003SOL    HW213942   0.454   0.716   3.265  0.3126 -1.0102 -0.4148
 4004SOL     OW13943   1.080   8.168   2.087  0.7519  0.3974 -0.3546
 4004SOL    HW113944   1.050   8.099   2.028 -1.3885  2.6768 -2.1444
 4004SOL    HW213945   1.086   8.126   2.173  0.0212 -2.0762 -1.4447
 4005SOL     OW13946   4.016   8.222   7.500 -0.3139 -0.5513 -0.0143
 4005SOL    HW113947   3.993   8.225   7.408 -1.5354 -2.1386  0.1972
 4005SOL    HW213948   3.980   8.302   7.537 -1.4510 -0.7900 -0.5796
 4006SOL     OW13949   5.026   8.871   5.397  0.3475  0.6816  0.7449
 4006SOL    HW113950   5.013   8.787   5.355  0.5264  0.3675  1.3073
 4006SOL    HW213951   4.992   8.935   5.335  0.6556  0.2325  0.1053
 4007SOL     OW13952   7.644   6.750   1.159 -0.3835  0.0542  0.8607
 4007SOL    HW113953   7.576   6.683   1.166  0.3868 -0.6284  2.1825
 4007SOL    HW213954   7.710   6.712   1.101 -0.1665 -0.1517  1.2373
 4008SOL     OW13955   0.324   6.646   0.229  0.1770 -0.2865  0.0091
 4008SOL    HW113956   0.229   6.634   0.233  0.1603  0.0289  0.5770
 4008SOL    HW213957   0.344   6.704   0.302  0.8233 -0.4341 -0.0482
 4009SOL     OW13958   1.444   5.124   8.134  0.1541 -0.0168  0.1295
 4009SOL    HW113959   1.399   5.166   8.207  0.8107 -0.1243  0.6031
 4009SOL    HW213960   1.437   5.031   8.152 -0.1948 -0.0699 -0.2596
 4010SOL     OW13961   3.163   1.754   3.980  0.4087 -0.0737 -0.6284
 4010SOL    HW113962   3.219   1.826   4.011  0.4338 -0.2512 -0.2560
 4010SOL    HW213963   3.222   1.699   3.929  0.4226  0.0939 -0.7946
 4011SOL     OW13964   2.278   5.153   2.679  0.2763  0.0150 -0.3508
 4011SOL    HW113965   2.216   5.137   2.750  0.5136 -0.0329 -0.1495
 4011SOL    HW213966   2.225   5.188   2.608  0.3039  2.0407  0.5556
 4012SOL     OW13967   5.995   1.782   4.895  0.1162 -0.0214 -0.3901
 4012SOL    HW113968   5.966   1.842   4.964  1.7392  0.0857  0.2535
 4012SOL    HW213969   6.067   1.829   4.852 -0.1008 -0.5765 -1.3882
 4013SOL     OW13970   8.117   7.530   7.746  0.2244  0.2209 -0.5171
 4013SOL    HW113971   8.087   7.503   7.659  1.3763  0.9949 -1.1710
 4013SOL    HW213972   8.046   7.502   7.805 -0.1309 -1.2015 -1.5611
 4014SOL     OW13973   7.052   0.460   2.052 -0.2124 -0.2674 -0.3744
 4014SOL    HW113974   7.082   0.542   2.013 -1.0751 -0.3201 -1.2026
 4014SOL    HW213975   6.993   0.422   1.986  0.4976 -1.7690 -0.2007
 4015SOL     OW13976   3.847   0.502   2.625  0.3839 -0.4769 -0.0128
 4015SOL    HW113977   3.826   0.409   2.624  2.1833 -0.9137 -1.2164
 4015SOL    HW213978   3.892   0.516   2.708 -3.1690  0.2263  2.0278
 4016SOL     OW13979   4.158   3.749   3.318  0.2720 -0.7301 -0.0372
 4016SOL    HW113980   4.167   3.655   3.304 -0.0938 -0.5915 -1.2731
 4016SOL    HW213981   4.245   3.777   3.346  0.9486 -1.1205 -1.6300
 4017SOL     OW13982   1.056   1.847   0.769 -0.2126 -0.1335 -0.0171
 4017SOL    HW113983   1.115   1.826   0.696  0.5047 -0.7558  0.7206
 4017SOL    HW213984   1.061   1.943   0.776 -1.3448  0.0951 -1.6216
 4018SOL     OW13985   1.178   2.703   1.435 -0.1054  0.0817 -0.2051
 4018SOL    HW113986   1.218   2.753   1.506 -0.5041 -0.3335  0.3208
 4018SOL    HW213987   1.097   2.750   1.415  0.3422  0.5924 -0.8725
 4019SOL     OW13988   8.131   3.860   7.026  0.2784 -0.0246  0.2091
 4019SOL    HW113989   8.037   3.848   7.043 -0.2432  1.9075 -1.0192
 4019SOL    HW213990   8.143   3.829   6.937  0.3600  1.5597 -0.3623
 4020SOL     OW13991   5.629   0.139   5.520 -0.0809 -0.3890  0.3944
 4020SOL    HW113992   5.547   0.116   5.563  0.4088  0.9992  2.1919
 4020SOL    HW213993   5.691   0.072   5.550 -0.7041 -2.0440 -1.7662
 4021SOL     OW13994   8.125   2.688   0.519 -0.2327  0.7701 -1.1872
 4021SOL    HW113995   8.130   2.679   0.423 -2.1620  0.0086 -1.2638
 4021SOL    HW213996   8.062   2.621   0.546  0.1426  1.0974  0.6060
 4022SOL     OW13997   8.184   6.272   7.885 -0.0929  1.0622 -0.4759
 4022SOL    HW113998   8.122   6.345   7.888  0.1427  1.3093 -1.3834
 4022SOL    HW213999   8.269   6.312   7.901 -0.0052  0.9297 -0.6107
 4023SOL     OW14000   5.020   6.733   5.074  0.0879  0.3073  0.2490
 4023SOL    HW114001   4.957   6.704   5.008  1.0962  0.0461 -0.6222
 4023SOL    HW214002   4.979   6.811   5.112 -1.1447 -0.3421  0.3102
 4024SOL     OW14003   5.322   2.004   5.513 -0.3896 -0.1268 -0.4535
 4024SOL    HW114004   5.344   1.936   5.450 -0.0006  1.0590 -1.6503
 4024SOL    HW214005   5.405   2.048   5.531 -0.3103 -1.0157  1.6358
 4025SOL     OW14006   6.691   2.286   0.799  0.1879 -0.0536 -0.1396
 4025SOL    HW114007   6.745   2.275   0.721  1.6295 -0.2820  0.8338
 4025SOL    HW214008   6.658   2.375   0.793 -0.4701 -0.3561 -1.4313
 4026SOL     OW14009   4.838   8.324   6.401  0.2972 -0.6592  0.3888
 4026SOL    HW114010   4.810   8.272   6.326 -1.0679  0.0356  0.3770
 4026SOL    HW214011   4.922   8.362   6.375 -0.8214  0.7310 -1.3936
 4027SOL     OW14012   6.254   8.725   3.684  0.3497 -0.1098 -0.1547
 4027SOL    HW114013   6.260   8.642   3.731  1.2812  0.2103  0.3084
 4027SOL    HW214014   6.163   8.728   3.653 -0.7647  0.2742  2.7833
 4028SOL     OW14015   6.434   8.391   3.207 -0.5927 -0.3436 -0.1232
 4028SOL    HW114016   6.473   8.461   3.259 -0.1873 -0.4874 -0.2290
 4028SOL    HW214017   6.371   8.436   3.150  0.6859  0.1360 -1.2107
 4029SOL     OW14018   4.639   7.229   2.767  0.8967  0.4283  0.3102
 4029SOL    HW114019   4.685   7.283   2.703  0.5990  1.7385  1.1766
 4029SOL    HW214020   4.656   7.139   2.739  0.3115  0.9644 -1.9374
 4030SOL     OW14021   1.639   5.541   3.271  0.1128  0.6452 -0.1988
 4030SOL    HW114022   1.575   5.589   3.220  0.9018  0.2839 -1.5623
 4030SOL    HW214023   1.614   5.557   3.362 -1.5095  1.0327 -0.6875
 4031SOL     OW14024   3.709   7.080   7.744 -0.0323  0.3322  0.7478
 4031SOL    HW114025   3.700   7.173   7.720 -0.0541 -0.3641 -2.3224
 4031SOL    HW214026   3.624   7.055   7.778 -0.9459  0.7948 -1.0897
 4032SOL     OW14027   3.199   4.574   8.392 -0.5806  0.0607  0.3200
 4032SOL    HW114028   3.258   4.506   8.425  1.5043  1.3643 -0.4897
 4032SOL    HW214029   3.202   4.643   8.459 -1.7331 -0.1258  0.5779
 4033SOL     OW14030   7.325   1.170   3.873 -0.2427  0.1105  0.2572
 4033SOL    HW114031   7.276   1.251   3.857 -0.0514  0.4478  1.3417
 4033SOL    HW214032   7.416   1.198   3.880 -0.4750  0.3748  4.1365
 4034SOL     OW14033   2.626   1.788   4.436 -0.2117  0.1203  0.3890
 4034SOL    HW114034   2.574   1.708   4.433  0.9514 -0.7049  1.3540
 4034SOL    HW214035   2.651   1.797   4.528 -2.0116  2.7563  0.7596
 4035SOL     OW14036   7.226   5.804   1.845  0.0236  0.2094 -0.1040
 4035SOL    HW114037   7.199   5.845   1.927 -0.8693  1.7273 -1.1085
 4035SOL    HW214038   7.190   5.861   1.777 -1.5730 -2.4552 -1.6147
 4036SOL     OW14039   3.050   7.458   8.639 -1.1026 -0.6427 -0.7802
 4036SOL    HW114040   3.097   7.456   8.555 -0.9504  0.7884 -0.7558
 4036SOL    HW214041   3.096   7.395   8.693 -1.2106 -1.6015 -1.7694
 4037SOL     OW14042   7.864   6.196   6.070 -0.4569  0.8949  1.0399
 4037SOL    HW114043   7.820   6.215   5.988  0.0582  0.4086  0.6453
 4037SOL    HW214044   7.882   6.102   6.067  0.9238  1.1325  1.0211
 4038SOL     OW14045   6.361   7.209   0.847  0.0064  0.2091  0.2912
 4038SOL    HW114046   6.384   7.119   0.871  2.5103  0.5926 -0.4328
 4038SOL    HW214047   6.351   7.207   0.752  1.4375  0.9218  0.0961
 4039SOL     OW14048   2.738   2.666   8.725 -0.6797  0.1334  0.3954
 4039SOL    HW114049   2.814   2.607   8.727 -1.3483 -0.7454  1.9726
 4039SOL    HW214050   2.716   2.674   8.632  1.3915  0.5001 -0.1000
 4040SOL     OW14051   1.767   0.727   2.196 -0.1639  0.0645 -0.4068
 4040SOL    HW114052   1.730   0.815   2.198  1.5036  0.8053 -0.0918
 4040SOL    HW214053   1.758   0.699   2.105 -1.2252  0.3155 -0.3911
 4041SOL     OW14054   1.601   1.732   0.995  0.0150  0.4039 -0.0827
 4041SOL    HW114055   1.568   1.671   1.062  0.3332  0.6216  0.2802
 4041SOL    HW214056   1.671   1.780   1.039 -1.5039  2.4327  0.2770
 4042SOL     OW14057   2.936   0.195   1.076 -0.0919 -0.3298  0.4947
 4042SOL    HW114058   2.899   0.284   1.080 -0.9945 -0.7213  1.4262
 4042SOL    HW214059   2.950   0.179   0.983 -1.3476  0.2354  0.1875
 4043SOL     OW14060   0.080   8.755   7.590 -0.3559  0.0298  0.0597
 4043SOL    HW114061   0.119   8.827   7.639  0.9904 -0.0770 -0.8064
 4043SOL    HW214062  -0.003   8.738   7.634  1.1808 -0.7107  2.9455
 4044SOL     OW14063   2.419   5.686   1.553 -0.2557 -0.4890 -0.2586
 4044SOL    HW114064   2.374   5.604   1.533 -0.4739 -0.3227 -0.4487
 4044SOL    HW214065   2.505   5.659   1.585  1.1163 -0.7475 -3.7837
 4045SOL     OW14066   5.705   7.780   3.274  0.0995 -0.0922 -0.0775
 4045SOL    HW114067   5.756   7.796   3.195 -2.0938 -0.5824 -1.7018
 4045SOL    HW214068   5.680   7.867   3.305  0.1152  0.0728 -0.5233
 4046SOL     OW14069   5.367   7.908   1.843 -0.2701 -0.0877 -0.1465
 4046SOL    HW114070   5.458   7.905   1.815 -0.5955  0.8711 -1.3962
 4046SOL    HW214071   5.349   7.820   1.878  1.0194 -0.3815 -0.1821
 4047SOL     OW14072   3.466   2.598   4.911 -0.0648  0.6251 -0.5168
 4047SOL    HW114073   3.425   2.518   4.941  3.7895 -1.6825 -0.7456
 4047SOL    HW214074   3.462   2.657   4.986 -0.5435 -0.8110  0.6377
 4048SOL     OW14075   1.399   2.080   1.973 -0.4071 -0.2213 -0.2567
 4048SOL    HW114076   1.395   2.174   1.953  0.1131  0.3182  1.9197
 4048SOL    HW214077   1.446   2.042   1.899  0.7664  1.4877 -0.4594
 4049SOL     OW14078   6.175   7.083   2.341 -0.0112 -0.2563 -0.4049
 4049SOL    HW114079   6.150   7.031   2.418 -0.3394  1.5167  0.7630
 4049SOL    HW214080   6.103   7.146   2.331  0.3980  0.0269 -1.7212
 4050SOL     OW14081   7.992   4.485   6.350  0.1622  0.2904 -0.2848
 4050SOL    HW114082   8.024   4.409   6.301 -0.3240 -0.4278  0.4773
 4050SOL    HW214083   7.983   4.554   6.284  0.9552 -0.2009 -0.9263
 4051SOL     OW14084   4.936   4.466   2.800 -0.4098 -0.1146 -0.2772
 4051SOL    HW114085   4.978   4.516   2.730 -0.5054  0.5223  0.1096
 4051SOL    HW214086   4.853   4.437   2.763  0.0183 -0.7235 -0.7879
 4052SOL     OW14087   1.920   7.503   7.287  0.1085  0.3258 -0.2632
 4052SOL    HW114088   1.964   7.423   7.256  0.9117  0.2814  0.9253
 4052SOL    HW214089   1.950   7.571   7.227  2.4226  0.4369  0.8847
 4053SOL     OW14090   8.665   5.920   1.164 -0.1935 -0.1090  0.2158
 4053SOL    HW114091   8.647   5.917   1.070 -0.5688 -0.1277  0.2898
 4053SOL    HW214092   8.756   5.951   1.169 -0.5832  1.1603 -0.1221
 4054SOL     OW14093   8.837   5.198   2.418  0.2809 -0.2103  0.5795
 4054SOL    HW114094   8.757   5.160   2.381  0.3800  0.2404 -0.1239
 4054SOL    HW214095   8.907   5.147   2.378  0.3583 -0.4407  1.0035
 4055SOL     OW14096   3.174   8.302   3.519  0.3717  0.4826 -0.7423
 4055SOL    HW114097   3.136   8.384   3.489 -0.9255 -0.3233 -1.4009
 4055SOL    HW214098   3.115   8.234   3.486 -0.0396 -0.5976  1.9562
 4056SOL     OW14099   5.455   5.076   2.149 -0.0566  0.8277  0.0731
 4056SOL    HW114100   5.469   5.070   2.243  1.8045 -2.1088 -0.2685
 4056SOL    HW214101   5.536   5.041   2.111 -1.9524 -1.0321 -2.5473
 4057SOL     OW14102   5.288   4.476   5.246 -0.0088  0.1724 -0.0613
 4057SOL    HW114103   5.289   4.491   5.341  0.9002 -3.5157  0.6945
 4057SOL    HW214104   5.198   4.494   5.219 -0.3160  1.1762  1.5150
 4058SOL     OW14105   7.199   4.278   2.881 -0.0723  0.5150  0.0558
 4058SOL    HW114106   7.238   4.215   2.820  0.6108  0.2326  0.7640
 4058SOL    HW214107   7.222   4.363   2.845  1.5553  0.3610  0.6385
 4059SOL     OW14108   4.404   3.270   7.241  0.3357  0.8767  0.4193
 4059SOL    HW114109   4.414   3.327   7.165 -0.1249  0.1022 -0.2531
 4059SOL    HW214110   4.421   3.326   7.316  1.4164  1.5191 -0.2782
 4060SOL     OW14111   1.352   3.071   0.642  0.6659  0.1823  0.3396
 4060SOL    HW114112   1.375   2.978   0.650 -1.0149 -0.3685 -0.7000
 4060SOL    HW214113   1.307   3.091   0.724  0.6124 -0.0588  0.3706
 4061SOL     OW14114   2.865   4.229   7.801  0.3375  0.0860 -0.1218
 4061SOL    HW114115   2.771   4.245   7.809  0.2165 -0.6902  0.1553
 4061SOL    HW214116   2.904   4.279   7.874  0.0747 -0.0964  0.1462
 4062SOL     OW14117   5.349   8.417   4.737 -0.1152  0.3096 -0.2868
 4062SOL    HW114118   5.407   8.362   4.790 -0.1482  1.7168  1.3128
 4062SOL    HW214119   5.308   8.477   4.800 -0.4067  1.8812 -1.8647
 4063SOL     OW14120   4.912   1.606   5.962  0.6074 -0.2474  0.3565
 4063SOL    HW114121   4.883   1.654   6.039  1.3380 -0.9151  1.0551
 4063SOL    HW214122   4.850   1.533   5.955  0.1932  0.1302 -0.0408
 4064SOL     OW14123   8.186   7.033   6.901 -0.6717  0.0692  0.1266
 4064SOL    HW114124   8.198   6.948   6.858 -0.8425 -0.8482  1.7915
 4064SOL    HW214125   8.093   7.037   6.920 -1.3085  2.1372 -2.7737
 4065SOL     OW14126   2.465   7.873   2.526 -0.0041 -0.0611  0.2054
 4065SOL    HW114127   2.486   7.966   2.525 -2.4368  0.5491  0.0068
 4065SOL    HW214128   2.550   7.829   2.533  1.3383  2.0927 -1.3699
 4066SOL     OW14129   3.061   8.822   4.232 -0.4580 -0.0218 -0.2303
 4066SOL    HW114130   3.099   8.814   4.144 -0.2498 -2.1125 -0.0114
 4066SOL    HW214131   3.111   8.891   4.274 -0.1466  0.5931 -1.5491
 4067SOL     OW14132   8.009   3.361   1.188 -0.5226 -0.1813 -0.1543
 4067SOL    HW114133   8.040   3.380   1.276 -1.3607 -2.2172  0.6334
 4067SOL    HW214134   7.940   3.424   1.172  0.1850  0.7272  0.3016
 4068SOL     OW14135   1.510   6.121   4.186 -0.2628  0.2369  0.0840
 4068SOL    HW114136   1.526   6.052   4.251  2.1335 -0.7568 -1.4000
 4068SOL    HW214137   1.452   6.080   4.122  1.3323 -0.6088 -0.9123
 4069SOL     OW14138   2.081   4.393   0.541 -0.2483 -0.5983  0.3154
 4069SOL    HW114139   2.121   4.310   0.514 -1.2549 -1.3791  1.0813
 4069SOL    HW214140   2.021   4.368   0.612 -0.7219  0.7647  0.4315
 4070SOL     OW14141   0.230   2.652   5.950  0.7204  0.0950 -0.3756
 4070SOL    HW114142   0.181   2.570   5.952  1.0474 -0.0991  2.4008
 4070SOL    HW214143   0.303   2.635   5.889  0.4637 -1.4687 -0.2709
 4071SOL     OW14144   1.136   1.126   3.206  0.5185 -0.4382 -0.6048
 4071SOL    HW114145   1.080   1.072   3.261 -1.4844 -0.1659 -2.2600
 4071SOL    HW214146   1.139   1.211   3.250 -0.0650 -0.5697 -0.3012
 4072SOL     OW14147   7.281   6.289   5.183  0.2987  0.1012 -0.1169
 4072SOL    HW114148   7.243   6.372   5.154  1.5844  1.1089  0.9371
 4072SOL    HW214149   7.267   6.229   5.110  0.0841  1.4745 -1.2463
 4073SOL     OW14150   5.138   5.342   8.835 -0.5748  0.0483 -0.3993
 4073SOL    HW114151   5.144   5.324   8.741  2.5082 -0.1613 -0.2501
 4073SOL    HW214152   5.127   5.436   8.840 -0.1761  0.1357 -0.9844
 4074SOL     OW14153   7.902   3.314   1.501  0.2713  0.4920  0.5755
 4074SOL    HW114154   7.985   3.285   1.464  0.4387  1.2214  0.3704
 4074SOL    HW214155   7.902   3.409   1.491 -0.2121  0.5868  1.3518
 4075SOL     OW14156   5.239   3.945   2.905 -0.0678  0.2923 -0.4523
 4075SOL    HW114157   5.165   4.006   2.914 -0.7052 -0.6743  1.1776
 4075SOL    HW214158   5.292   3.983   2.834 -1.1018  2.0483 -0.3509
 4076SOL     OW14159   4.824   1.443   6.308  0.3029 -0.1325  0.0458
 4076SOL    HW114160   4.730   1.452   6.292  0.0146 -2.3065  0.2668
 4076SOL    HW214161   4.843   1.507   6.377 -1.1163 -0.0251  0.3635
 4077SOL     OW14162   0.310   0.078   2.740  0.0192  0.3180 -0.2953
 4077SOL    HW114163   0.302   0.143   2.670  0.0630  0.5468 -0.0910
 4077SOL    HW214164   0.302   0.129   2.821 -0.0115  0.0592 -0.1335
 4078SOL     OW14165   4.190   2.879   1.032 -0.7109 -0.2795  0.2036
 4078SOL    HW114166   4.177   2.839   0.946  0.0082  0.6794 -0.3761
 4078SOL    HW214167   4.285   2.876   1.045 -0.3643  2.8486 -0.7276
 4079SOL     OW14168   4.641   8.567   3.358 -0.1945 -0.3140  0.4545
 4079SOL    HW114169   4.551   8.589   3.333 -0.9746 -0.2351  3.0963
 4079SOL    HW214170   4.636   8.475   3.385  0.5390 -0.3279  0.5581
 4080SOL     OW14171   6.075   2.862   4.456 -0.2278 -0.4644  0.0225
 4080SOL    HW114172   6.013   2.924   4.496  0.6499  2.8389 -3.1198
 4080SOL    HW214173   6.030   2.832   4.377  1.3388  0.4156 -1.2551
 4081SOL     OW14174   6.395   3.080   7.605 -0.0098  0.5104  0.7227
 4081SOL    HW114175   6.350   3.029   7.538  0.1911  2.1836 -0.7528
 4081SOL    HW214176   6.332   3.147   7.630  0.2712  0.4845  1.5386
 4082SOL     OW14177   8.688   5.516   3.085 -0.0137  0.3649 -0.3146
 4082SOL    HW114178   8.767   5.489   3.131 -0.0969 -0.4648 -0.6326
 4082SOL    HW214179   8.652   5.587   3.138 -0.1347 -0.5878  0.9314
 4083SOL     OW14180   6.067   2.989   7.635  0.0846 -0.1998  0.1794
 4083SOL    HW114181   6.109   2.929   7.573 -0.1997  1.2924 -1.5458
 4083SOL    HW214182   6.007   3.041   7.581  1.2205  2.4861  1.3007
 4084SOL     OW14183   1.505   0.003   3.486 -0.3914 -0.2886  0.2591
 4084SOL    HW114184   1.496   0.094   3.514  0.0610  0.3601 -1.5365
 4084SOL    HW214185   1.427  -0.041   3.520 -2.7622  1.6845 -2.1329
 4085SOL     OW14186   5.221   0.436   5.366 -0.4517 -0.0341 -0.0695
 4085SOL    HW114187   5.190   0.525   5.349 -2.6718 -1.0709 -2.1543
 4085SOL    HW214188   5.304   0.430   5.320 -0.1283  1.0324  0.3471
 4086SOL     OW14189   4.229   2.506   0.218  0.3735 -0.2283  0.3669
 4086SOL    HW114190   4.151   2.454   0.199 -0.3577  1.1672 -0.6719
 4086SOL    HW214191   4.276   2.510   0.135  1.5564 -1.0155  0.9744
 4087SOL     OW14192   0.853   2.616   5.981 -0.2475  0.3390  0.9611
 4087SOL    HW114193   0.909   2.628   5.905 -0.9433 -0.2576  0.3424
 4087SOL    HW214194   0.913   2.594   6.052  0.4079  0.9144  0.5957
 4088SOL     OW14195   5.472   3.993   7.896  0.1070 -0.4125 -0.2929
 4088SOL    HW114196   5.535   3.974   7.966  0.0626  1.3900  0.3120
 4088SOL    HW214197   5.388   4.001   7.941  0.0086  0.3565 -0.5900
 4089SOL     OW14198   4.789   0.752   3.740  0.2234  0.2894 -0.5640
 4089SOL    HW114199   4.884   0.743   3.736  0.3093  0.5119  0.5915
 4089SOL    HW214200   4.756   0.701   3.666  1.2107 -0.2778 -0.6169
 4090SOL     OW14201   6.105   3.681   8.528 -0.6058  0.2141 -0.3437
 4090SOL    HW114202   6.196   3.686   8.555 -0.2836  0.1680 -1.3607
 4090SOL    HW214203   6.089   3.588   8.515 -0.5640  0.2820 -0.9050
 4091SOL     OW14204   7.631   0.840   8.279 -0.4259 -0.0526  0.0069
 4091SOL    HW114205   7.726   0.824   8.274 -0.2126  0.6456  1.2459
 4091SOL    HW214206   7.623   0.936   8.279 -1.0445 -0.0913  0.9329
 4092SOL     OW14207   0.844   1.189   0.023 -0.0477 -0.2820 -0.6033
 4092SOL    HW114208   0.803   1.122  -0.032  0.6234  0.7630 -2.4898
 4092SOL    HW214209   0.797   1.270  -0.000  1.0171  0.3807 -0.4926
 4093SOL     OW14210   7.451   0.765   2.012 -0.3549  0.5163  0.2635
 4093SOL    HW114211   7.371   0.816   1.998 -0.8549 -0.5929 -1.1830
 4093SOL    HW214212   7.484   0.750   1.924  1.4940  0.9717  0.8472
 4094SOL     OW14213   1.933   7.719   0.653  0.3940  0.3498  0.0716
 4094SOL    HW114214   1.947   7.682   0.565 -0.5779  0.2294 -0.0458
 4094SOL    HW214215   1.883   7.651   0.699 -0.1486  0.9073  0.3241
 4095SOL     OW14216   2.776   4.943   5.814 -0.1044 -0.1664 -0.1906
 4095SOL    HW114217   2.707   5.001   5.846 -0.4078 -0.5403 -0.1559
 4095SOL    HW214218   2.794   4.884   5.887 -0.3439 -0.6061 -0.4822
 4096SOL     OW14219   2.788   8.782   6.338  0.3603 -0.4407  0.1706
 4096SOL    HW114220   2.745   8.702   6.368  0.1069 -0.2837  0.2276
 4096SOL    HW214221   2.719   8.848   6.339  1.1108  0.4357  2.7265
 4097SOL     OW14222   6.014   5.910   8.727  0.1306  0.4466 -0.1507
 4097SOL    HW114223   5.941   5.972   8.733 -0.1565  0.3562 -2.2220
 4097SOL    HW214224   5.972   5.825   8.713  0.5849 -0.0170  1.1105
 4098SOL     OW14225   3.474   0.420   7.430  0.7533 -0.3562  0.8293
 4098SOL    HW114226   3.514   0.378   7.354 -0.3979 -2.1026  1.1330
 4098SOL    HW214227   3.447   0.506   7.397 -0.9465 -1.5614 -1.1895
 4099SOL     OW14228   3.147   5.277   6.396  0.3288 -0.3902 -0.3808
 4099SOL    HW114229   3.163   5.194   6.351  0.4311 -0.9054  0.5832
 4099SOL    HW214230   3.095   5.253   6.473 -0.7754  0.6107 -0.7836
 4100SOL     OW14231   7.585   8.479   1.625 -0.5593  0.3674 -0.3948
 4100SOL    HW114232   7.584   8.572   1.647  1.9271  0.3518  0.0495
 4100SOL    HW214233   7.537   8.437   1.697 -0.5014  1.1797  0.1317
 4101SOL     OW14234   3.145   1.838   1.954 -0.0909 -0.5075  0.1763
 4101SOL    HW114235   3.164   1.825   1.861 -0.3518  1.9373 -0.2705
 4101SOL    HW214236   3.078   1.772   1.974 -0.7195 -0.4649 -1.6229
 4102SOL     OW14237   2.071   2.853   8.134 -0.4278 -0.3670  0.3001
 4102SOL    HW114238   2.063   2.777   8.191  1.3618 -0.1821  0.8651
 4102SOL    HW214239   2.142   2.830   8.074 -0.2146  0.6475  0.1426
 4103SOL     OW14240   2.360   7.516   5.937 -0.1790  0.3593 -0.2433
 4103SOL    HW114241   2.420   7.533   6.009 -0.1172  2.5831 -0.7426
 4103SOL    HW214242   2.412   7.469   5.872  0.7279  1.2790 -0.2043
 4104SOL     OW14243   2.830   7.635   6.804 -0.0059  0.1446  0.4203
 4104SOL    HW114244   2.895   7.666   6.867 -0.8081  0.0305  1.3297
 4104SOL    HW214245   2.802   7.713   6.758 -1.4972  0.7378  2.2085
 4105SOL     OW14246   3.320   1.077   1.388 -0.0650  0.1605 -0.1600
 4105SOL    HW114247   3.369   1.118   1.459 -0.8550  0.8506  0.0163
 4105SOL    HW214248   3.352   1.120   1.309  0.5001 -0.2883 -0.1743
 4106SOL     OW14249   3.528   1.809   5.126  0.1728 -0.5983 -0.1824
 4106SOL    HW114250   3.514   1.717   5.104  0.8144 -1.0131  1.0621
 4106SOL    HW214251   3.445   1.837   5.165  0.7435 -1.3450  1.6335
 4107SOL     OW14252   2.412   2.291   5.425 -0.0799  0.3783 -0.0514
 4107SOL    HW114253   2.439   2.199   5.432  1.3658  0.7376 -0.5418
 4107SOL    HW214254   2.321   2.291   5.452 -0.4117 -1.3737 -1.0128
 4108SOL     OW14255   7.010   2.752   1.890  0.1380 -0.1598 -0.2511
 4108SOL    HW114256   7.011   2.658   1.871  1.9538 -0.0858 -0.7875
 4108SOL    HW214257   7.018   2.794   1.805 -1.3987  0.5244 -0.0757
 4109SOL     OW14258   4.908   5.901   6.093  0.3243 -0.1770 -0.0437
 4109SOL    HW114259   4.960   5.905   6.173 -0.3969 -0.2755  0.4409
 4109SOL    HW214260   4.918   5.811   6.061 -1.6274 -1.0314  1.5023
 4110SOL     OW14261   1.296   3.568   3.120  0.0370 -0.1671  0.0262
 4110SOL    HW114262   1.283   3.659   3.149  1.1558  0.2801 -0.8099
 4110SOL    HW214263   1.240   3.559   3.043 -1.9570 -0.9702  1.4805
 4111SOL     OW14264   2.714   6.348   6.675  0.8144  0.4078  0.0153
 4111SOL    HW114265   2.803   6.375   6.655  0.9709 -0.1672 -0.0797
 4111SOL    HW214266   2.676   6.324   6.590  2.0041 -3.6153  0.4389
 4112SOL     OW14267   2.283   3.444   8.486 -0.5142 -0.1038 -0.5032
 4112SOL    HW114268   2.324   3.383   8.425 -0.7626 -1.2661  0.4218
 4112SOL    HW214269   2.189   3.437   8.467 -0.7231 -1.3960  0.7177
 4113SOL     OW14270   8.580   5.040   7.731  0.5519 -0.4143  0.0154
 4113SOL    HW114271   8.662   4.991   7.730  0.6466 -0.2565 -0.3406
 4113SOL    HW214272   8.584   5.095   7.652 -0.6119 -1.5959 -0.9096
 4114SOL     OW14273   6.202   7.964   4.798 -0.0110  0.2527 -0.4675
 4114SOL    HW114274   6.121   7.954   4.747 -0.2578 -0.1180 -0.0133
 4114SOL    HW214275   6.266   7.910   4.753 -0.2242 -0.0605 -0.3989
 4115SOL     OW14276   5.863   6.813   7.370  0.1987 -0.3014 -0.6406
 4115SOL    HW114277   5.862   6.765   7.287  0.0924 -1.8459  0.2179
 4115SOL    HW214278   5.770   6.832   7.388 -0.0693 -2.3789  0.4261
 4116SOL     OW14279   5.028   6.930   0.640  0.1725  0.1322 -0.1389
 4116SOL    HW114280   5.122   6.945   0.628 -0.0049  0.7474 -0.8475
 4116SOL    HW214281   5.001   6.997   0.702  0.4032 -0.7793  0.9907
 4117SOL     OW14282   3.914   3.023   0.804  0.8489  0.3036  0.4869
 4117SOL    HW114283   3.844   3.002   0.742  1.7352  0.6682 -0.6948
 4117SOL    HW214284   3.872   3.025   0.889 -0.4885  0.0981 -0.1467
 4118SOL     OW14285   3.240   6.753   3.532  0.4615  0.1255  0.4680
 4118SOL    HW114286   3.330   6.746   3.561  0.6215  1.0789  0.2443
 4118SOL    HW214287   3.232   6.843   3.499 -0.7055  0.2468  0.9931
 4119SOL     OW14288   1.015   8.347   3.881  0.5527 -0.3045 -0.1325
 4119SOL    HW114289   1.076   8.328   3.953 -0.6771 -1.2317  0.7069
 4119SOL    HW214290   1.037   8.436   3.854  3.7239 -1.3225 -1.3583
 4120SOL     OW14291   1.529   6.483   8.503 -0.8825  0.2617 -0.2988
 4120SOL    HW114292   1.508   6.392   8.482 -0.3601  0.0774 -0.0333
 4120SOL    HW214293   1.505   6.492   8.596  0.0038  0.1030 -0.0456
 4121SOL     OW14294   2.066   2.626   6.371  0.1439  0.1009 -0.3312
 4121SOL    HW114295   2.153   2.626   6.332  0.2465 -1.3133 -0.1432
 4121SOL    HW214296   2.070   2.561   6.441 -0.9571  0.2886 -0.0636
 4122SOL     OW14297   1.736   2.303   2.740  0.3449  0.5487 -0.1096
 4122SOL    HW114298   1.659   2.283   2.686 -0.9269  0.7033  1.5812
 4122SOL    HW214299   1.805   2.322   2.676 -0.2960 -2.0603 -1.7182
 4123SOL     OW14300   2.213   2.972   3.799 -0.6147  0.1014 -0.1996
 4123SOL    HW114301   2.260   2.891   3.779 -1.9395 -0.5372 -0.8364
 4123SOL    HW214302   2.143   2.976   3.734 -0.1784  2.1186 -0.6116
 4124SOL     OW14303   1.827   1.221   8.365 -0.0188  0.5380  0.6104
 4124SOL    HW114304   1.860   1.205   8.276 -0.6533  1.8776  0.1102
 4124SOL    HW214305   1.807   1.134   8.399 -1.4395  0.0846 -1.2226
 4125SOL     OW14306   8.170   5.279   7.787 -0.2754 -0.2907 -0.7074
 4125SOL    HW114307   8.134   5.294   7.874 -0.7500 -1.0112 -0.7743
 4125SOL    HW214308   8.100   5.233   7.740  0.9230 -2.2245 -0.6675
 4126SOL     OW14309   2.555   0.337   7.363  0.3373 -0.0754  0.3858
 4126SOL    HW114310   2.524   0.410   7.417 -0.1755 -0.7030  0.9482
 4126SOL    HW214311   2.650   0.338   7.375  0.2553 -0.0491  1.1024
 4127SOL     OW14312   3.413   5.178   5.136 -0.3752  0.1387 -0.6077
 4127SOL    HW114313   3.452   5.249   5.188 -0.7891 -0.1526  0.1071
 4127SOL    HW214314   3.488   5.122   5.113 -0.3250 -0.3422  0.6407
 4128SOL     OW14315   0.275   8.527   0.390  0.5232  0.3123 -0.0224
 4128SOL    HW114316   0.253   8.532   0.297 -0.6770  1.7769  0.3016
 4128SOL    HW214317   0.343   8.593   0.403  1.0066 -0.1983  0.0636
 4129SOL     OW14318   0.935   3.205   0.083 -0.1709 -0.0807  0.0748
 4129SOL    HW114319   0.893   3.242   0.161 -2.3193 -0.7270 -0.7143
 4129SOL    HW214320   0.916   3.111   0.088  0.5519 -0.2828 -0.7238
 4130SOL     OW14321   7.649   5.923   6.645  0.4214  0.2289 -0.1735
 4130SOL    HW114322   7.618   5.849   6.697 -0.2311  1.0848  0.6633
 4130SOL    HW214323   7.744   5.912   6.643  0.4214 -0.0403  0.8625
 4131SOL     OW14324   4.173   2.629   7.651 -0.4370  0.0930 -0.4207
 4131SOL    HW114325   4.265   2.605   7.656 -0.7763 -1.2073  0.0460
 4131SOL    HW214326   4.154   2.631   7.557 -0.2923 -1.1987 -0.5038
 4132SOL     OW14327   1.755   1.908   3.354 -0.8090  0.6054 -0.7950
 4132SOL    HW114328   1.811   1.975   3.394 -0.2255  0.0856 -0.7240
 4132SOL    HW214329   1.773   1.828   3.404 -2.4111  0.6507 -0.0826
 4133SOL     OW14330   0.395   6.101   3.637 -0.3557 -0.0250 -0.6578
 4133SOL    HW114331   0.325   6.121   3.699 -1.8773  1.2939 -2.6529
 4133SOL    HW214332   0.466   6.161   3.660  0.6294 -2.0205  1.9859
 4134SOL     OW14333   6.964   4.340   0.544  0.0875 -0.2730 -0.1659
 4134SOL    HW114334   7.025   4.406   0.575  0.2199  0.2467 -1.4629
 4134SOL    HW214335   7.004   4.257   0.568 -0.5320  0.0635  2.3411
 4135SOL     OW14336   5.404   3.228   7.057 -0.0788 -0.3234  0.3692
 4135SOL    HW114337   5.382   3.311   7.015  0.4383  0.4156  1.4957
 4135SOL    HW214338   5.368   3.161   6.999  0.9891  0.6112 -1.4724
 4136SOL     OW14339   1.538   2.590   5.955 -0.4017 -0.5215  0.1551
 4136SOL    HW114340   1.548   2.573   5.861  3.8826 -1.7457  0.6265
 4136SOL    HW214341   1.537   2.686   5.962 -1.4546 -0.4113 -1.1365
 4137SOL     OW14342   2.327   0.954   8.208  0.1939  0.6193 -0.0391
 4137SOL    HW114343   2.278   0.950   8.290  0.1829 -0.7426 -0.0912
 4137SOL    HW214344   2.311   1.042   8.174 -0.3721  0.9525  1.0660
 4138SOL     OW14345   1.400   6.915   1.733 -0.0538  0.0005 -0.4821
 4138SOL    HW114346   1.400   6.881   1.823 -2.6510 -1.3654 -0.8817
 4138SOL    HW214347   1.468   6.865   1.688  0.4576 -0.1451  0.4284
 4139SOL     OW14348   3.377   3.417   5.981 -0.0780  0.3200 -0.6580
 4139SOL    HW114349   3.319   3.367   6.039  1.9674 -0.0598  1.2017
 4139SOL    HW214350   3.380   3.504   6.019 -0.0600  0.5685 -1.2248
 4140SOL     OW14351   4.675   1.043   8.778  0.1077  0.0763 -0.4313
 4140SOL    HW114352   4.609   1.053   8.846 -0.0239 -1.3229 -0.3174
 4140SOL    HW214353   4.625   1.029   8.698  0.2319 -1.3534 -0.2850
 4141SOL     OW14354   2.906   4.233   1.635  0.2684  0.2334 -0.3063
 4141SOL    HW114355   2.916   4.281   1.553  2.2458  0.6036  0.1166
 4141SOL    HW214356   2.858   4.293   1.692 -0.2615  0.3493 -0.8618
 4142SOL     OW14357   5.863   7.887   5.732  0.3979 -0.1108  0.5281
 4142SOL    HW114358   5.779   7.845   5.713 -0.1912  0.8672  0.8917
 4142SOL    HW214359   5.846   7.942   5.809  1.2142  0.5589  0.2549
 4143SOL     OW14360   0.095   3.082   0.052  0.2572 -0.1177 -0.0843
 4143SOL    HW114361   0.055   3.152  -0.000  0.9044  0.3885  0.0951
 4143SOL    HW214362   0.025   3.016   0.059 -0.3700  0.5104 -0.2338
 4144SOL     OW14363   4.363   7.375   8.639  0.2743 -0.3613 -0.6142
 4144SOL    HW114364   4.333   7.459   8.673 -1.3654 -0.9060 -0.6216
 4144SOL    HW214365   4.342   7.312   8.708  0.4400 -0.9157 -1.0558
 4145SOL     OW14366   0.928   1.929   3.192  0.1275  0.1689  0.5090
 4145SOL    HW114367   0.877   1.984   3.133 -1.0214  0.2801  1.5620
 4145SOL    HW214368   0.885   1.844   3.188  2.0391 -0.7896 -1.2935
 4146SOL     OW14369   5.114   8.835   1.571 -0.4844  0.4436  0.3474
 4146SOL    HW114370   5.206   8.810   1.584 -0.3221 -0.7968 -2.3842
 4146SOL    HW214371   5.068   8.752   1.561 -1.8628  1.0668  1.3025
 4147SOL     OW14372   1.761   0.914   6.710  0.2399 -0.3796 -0.2524
 4147SOL    HW114373   1.819   0.925   6.635  0.4442  0.4946  0.0272
 4147SOL    HW214374   1.819   0.904   6.785  0.0374  0.0990 -0.0275
 4148SOL     OW14375   6.961   7.269   8.744 -0.4039  0.1785 -0.7829
 4148SOL    HW114376   7.037   7.239   8.693 -0.2080  0.0646 -0.4281
 4148SOL    HW214377   6.983   7.246   8.834  0.9502  3.5867 -0.0705
 4149SOL     OW14378   3.410   0.341   5.513 -0.2591  0.4387 -0.3468
 4149SOL    HW114379   3.340   0.313   5.571  1.0157  0.7031  1.3867
 4149SOL    HW214380   3.470   0.390   5.569  2.1468 -1.1336 -1.3965
 4150SOL     OW14381   1.152   2.141   6.952  0.1608  0.3075  0.3437
 4150SOL    HW114382   1.093   2.091   6.896  0.3816 -0.5969  0.9076
 4150SOL    HW214383   1.185   2.211   6.895 -1.5669  0.9391  0.0764
 4151SOL     OW14384   2.491   7.348   3.315 -0.2453  0.4498 -0.4185
 4151SOL    HW114385   2.479   7.255   3.296 -0.3288  0.5977 -1.1442
 4151SOL    HW214386   2.530   7.383   3.235  2.1272  0.5881  0.7298
 4152SOL     OW14387   7.619   0.306   3.870 -0.0549 -0.0070 -0.1613
 4152SOL    HW114388   7.646   0.227   3.915 -4.0118 -2.1864 -1.0734
 4152SOL    HW214389   7.591   0.365   3.940 -2.9023 -2.0003  0.5733
 4153SOL     OW14390   1.340   5.750   5.576  0.2451  0.0533 -0.3416
 4153SOL    HW114391   1.362   5.675   5.631  1.7163 -0.0335 -0.9924
 4153SOL    HW214392   1.309   5.817   5.638  1.9165 -0.0204  0.6392
 4154SOL     OW14393   3.241   0.719   3.573 -0.3399 -0.2820  0.0360
 4154SOL    HW114394   3.156   0.684   3.544 -1.0462  0.8061  0.7231
 4154SOL    HW214395   3.265   0.664   3.647 -0.3892 -0.6638 -0.2267
 4155SOL     OW14396   3.017   1.745   0.199 -0.1254 -0.6884  0.0265
 4155SOL    HW114397   2.931   1.743   0.242  0.2204 -0.3371  0.7451
 4155SOL    HW214398   3.003   1.700   0.116 -1.5581  1.2635 -0.8687
 4156SOL     OW14399   3.249   8.762   3.725  0.1296  0.3622 -0.3326
 4156SOL    HW114400   3.333   8.723   3.747  0.1980  0.8221  0.2541
 4156SOL    HW214401   3.271   8.837   3.669  0.2393  1.3660  1.0107
 4157SOL     OW14402   7.070   3.576   6.587 -0.2858 -1.1550 -0.1190
 4157SOL    HW114403   7.017   3.656   6.590  0.2354 -0.7897 -0.3789
 4157SOL    HW214404   7.054   3.534   6.671 -0.8373 -0.9519 -0.1200
 4158SOL     OW14405   5.161   7.213   0.376  0.5360 -0.2534  0.2059
 4158SOL    HW114406   5.202   7.277   0.435  0.9928 -0.8581  0.5565
 4158SOL    HW214407   5.068   7.234   0.380  0.7146  0.6403  0.0148
 4159SOL     OW14408   5.569   2.786   6.653 -0.4549 -0.2460  0.0733
 4159SOL    HW114409   5.560   2.691   6.648 -1.7751 -0.1123 -0.4798
 4159SOL    HW214410   5.509   2.819   6.586  0.6191  0.9584 -0.3272
 4160SOL     OW14411   7.179   2.097   5.450 -0.3084  0.1981 -0.1933
 4160SOL    HW114412   7.186   2.192   5.452  0.4369  0.1397  0.4297
 4160SOL    HW214413   7.113   2.079   5.383 -0.8660  1.1649  0.0792
 4161SOL     OW14414   2.776   0.892   4.487  0.8239  0.1346  0.5508
 4161SOL    HW114415   2.703   0.862   4.432 -0.6177  2.4112  1.0443
 4161SOL    HW214416   2.758   0.986   4.499  2.8031  0.3387  2.3321
 4162SOL     OW14417   8.552   0.181   4.411 -0.3176 -0.0200 -0.2503
 4162SOL    HW114418   8.524   0.267   4.441  1.8535  0.5011  0.4328
 4162SOL    HW214419   8.535   0.182   4.317  1.7388  2.0953 -0.6911
 4163SOL     OW14420   8.814   5.372   0.640 -0.2548 -0.3271 -0.0472
 4163SOL    HW114421   8.786   5.307   0.704 -1.1183 -0.4622 -0.5469
 4163SOL    HW214422   8.751   5.364   0.568 -1.0469  1.7797  0.3365
 4164SOL     OW14423   5.892   1.045   1.416  0.1182  0.2888 -0.4811
 4164SOL    HW114424   5.813   0.992   1.405 -0.7018  1.5303 -0.7436
 4164SOL    HW214425   5.946   0.995   1.478 -0.6927 -0.7572 -0.5891
 4165SOL     OW14426   2.921   0.332   4.654  0.1283  0.0732  0.5348
 4165SOL    HW114427   2.864   0.404   4.631 -1.4610 -1.7781 -1.8477
 4165SOL    HW214428   2.976   0.319   4.576  0.3612 -1.2784  0.8915
 4166SOL     OW14429   1.522   0.400   3.873 -0.0956 -0.2697 -0.0974
 4166SOL    HW114430   1.569   0.413   3.955  0.2483  0.1308 -0.3543
 4166SOL    HW214431   1.513   0.488   3.836 -1.3734 -0.2806  0.1163
 4167SOL     OW14432   1.884   4.507   8.731 -0.4203 -0.0666  0.1649
 4167SOL    HW114433   1.848   4.495   8.819  2.6287 -0.3333  1.5371
 4167SOL    HW214434   1.979   4.502   8.744  0.1570 -0.0357 -3.1644
 4168SOL     OW14435   3.807   2.542   7.558  0.2302  0.4976  0.2862
 4168SOL    HW114436   3.877   2.477   7.559  0.2488  0.5173  0.7693
 4168SOL    HW214437   3.733   2.498   7.516 -0.0903 -0.2080  1.5444
 4169SOL     OW14438   6.604   5.774   6.851  0.5071 -0.5197  0.0990
 4169SOL    HW114439   6.628   5.786   6.759 -0.4231 -0.2940 -0.1165
 4169SOL    HW214440   6.513   5.744   6.849 -0.2182  1.4742  1.0079
 4170SOL     OW14441   2.602   8.124   6.419 -0.0411  0.1117 -0.1195
 4170SOL    HW114442   2.650   8.070   6.358 -1.1688 -0.2536 -0.7173
 4170SOL    HW214443   2.587   8.067   6.495  0.9921  0.4311  0.3405
 4171SOL     OW14444   7.162   0.350   2.319 -0.2447 -0.2481  0.3440
 4171SOL    HW114445   7.089   0.411   2.307 -0.4995 -0.2736  1.5816
 4171SOL    HW214446   7.133   0.292   2.390 -0.5541 -2.6892 -1.6203
 4172SOL     OW14447   0.350   4.193   4.168 -0.1012  0.3309  0.3292
 4172SOL    HW114448   0.401   4.257   4.219  0.8476  1.4451 -1.8915
 4172SOL    HW214449   0.410   4.164   4.099 -2.1977  1.1953 -2.0035
 4173SOL     OW14450   7.118   5.737   0.722 -0.1435 -0.1788 -0.1361
 4173SOL    HW114451   7.089   5.768   0.808 -0.0897  1.9964 -0.8544
 4173SOL    HW214452   7.211   5.720   0.733  0.0180  0.7716  0.0905
 4174SOL     OW14453   4.426   4.890   2.144 -0.0897  0.0998  0.0869
 4174SOL    HW114454   4.447   4.962   2.204 -0.9495 -0.0053  0.5341
 4174SOL    HW214455   4.498   4.828   2.154 -0.6348 -0.3278  1.6796
 4175SOL     OW14456   4.307   1.056   5.876 -0.2000 -0.3213 -0.6226
 4175SOL    HW114457   4.212   1.055   5.866 -0.3879  2.4691 -0.0797
 4175SOL    HW214458   4.322   1.037   5.969 -0.1152 -1.8311 -0.9238
 4176SOL     OW14459   1.276   2.996   6.744  0.2132 -0.5812 -0.3231
 4176SOL    HW114460   1.327   2.917   6.763  2.9287  1.6295  2.8239
 4176SOL    HW214461   1.194   2.984   6.792  0.0543 -1.9113 -0.8820
 4177SOL     OW14462   1.845   0.983   0.941 -0.9318 -0.0832  0.0642
 4177SOL    HW114463   1.940   0.975   0.951 -0.7065  2.0151  0.0428
 4177SOL    HW214464   1.821   1.057   0.996 -2.1411  1.1150 -1.9544
 4178SOL     OW14465   1.399   1.637   0.007  0.1607  0.0446  0.7879
 4178SOL    HW114466   1.488   1.604   0.016  0.4175 -0.0439 -1.4829
 4178SOL    HW214467   1.365   1.595  -0.071 -2.0719 -0.2653  1.8359
 4179SOL     OW14468   0.092   2.203   1.159 -0.0138 -0.2836 -0.0726
 4179SOL    HW114469   0.149   2.176   1.087  1.6362 -0.2587  1.1657
 4179SOL    HW214470   0.070   2.294   1.140 -1.0174 -0.7636 -1.3906
 4180SOL     OW14471   7.040   5.574   7.172  0.1986 -0.4296 -0.2118
 4180SOL    HW114472   7.014   5.490   7.135 -1.6961  0.6458 -1.4791
 4180SOL    HW214473   7.055   5.630   7.096  1.6188  0.3634  0.6065
 4181SOL     OW14474   8.745   6.974   2.858 -0.0440  0.2875 -0.0196
 4181SOL    HW114475   8.805   6.902   2.839 -0.9143 -0.2483 -0.8619
 4181SOL    HW214476   8.800   7.052   2.861  0.7810 -0.2886 -0.0581
 4182SOL     OW14477   2.240   1.626   8.152 -0.5133  0.4012 -0.2198
 4182SOL    HW114478   2.270   1.706   8.197  0.9021  0.3833 -1.0816
 4182SOL    HW214479   2.297   1.557   8.186 -1.3308 -0.1536  0.0625
 4183SOL     OW14480   4.228   3.567   6.226 -0.4080  0.3238  0.0290
 4183SOL    HW114481   4.195   3.637   6.283 -0.9812  0.9837 -1.0786
 4183SOL    HW214482   4.273   3.614   6.155 -0.3960 -0.4524 -0.4870
 4184SOL     OW14483   1.961   8.572   7.596  0.1845 -0.0624 -0.2250
 4184SOL    HW114484   1.913   8.508   7.544 -1.9337  1.0121  0.3187
 4184SOL    HW214485   1.931   8.657   7.565  1.5426  0.6705  0.3518
 4185SOL     OW14486   3.130   0.204   3.748  0.9164  0.0052  0.7722
 4185SOL    HW114487   3.193   0.180   3.816  0.0932 -1.9623  0.8860
 4185SOL    HW214488   3.168   0.171   3.667  1.4279  1.4885  0.3733
 4186SOL     OW14489   3.520   4.750   0.815 -0.4326  0.3125  0.2478
 4186SOL    HW114490   3.480   4.674   0.856 -1.3934  0.3230 -0.6448
 4186SOL    HW214491   3.471   4.825   0.850  0.2806  0.5093  0.8554
 4187SOL     OW14492   5.886   6.791   6.212 -0.2224  0.7109 -0.3350
 4187SOL    HW114493   5.975   6.813   6.237 -0.3371 -0.2828  1.0492
 4187SOL    HW214494   5.894   6.706   6.169 -0.5217  0.5834 -0.1364
 4188SOL     OW14495   6.903   8.196   7.413 -0.6736 -0.2179 -0.1182
 4188SOL    HW114496   6.829   8.230   7.463 -1.3996 -0.9204 -0.6973
 4188SOL    HW214497   6.876   8.108   7.387  0.2524 -0.3723 -0.5855
 4189SOL     OW14498   6.710   8.550   4.626  0.1882  0.4909 -0.4907
 4189SOL    HW114499   6.789   8.516   4.668  0.1773  0.8325 -0.1905
 4189SOL    HW214500   6.743   8.606   4.555  0.2111  0.4717 -0.4954
 4190SOL     OW14501   1.274   1.946   4.515 -0.4520 -0.4388 -0.7301
 4190SOL    HW114502   1.359   1.917   4.482 -0.2762 -0.1100 -0.5814
 4190SOL    HW214503   1.293   1.978   4.604 -0.7366 -0.4047 -0.6815
 4191SOL     OW14504   4.625   2.493   7.917  0.3583  0.4087 -0.0270
 4191SOL    HW114505   4.715   2.499   7.886  0.4008  1.4110  0.2614
 4191SOL    HW214506   4.573   2.532   7.847  0.2444  0.7061  0.2214
 4192SOL     OW14507   4.520   6.134   8.267  0.4084  0.2714  0.1700
 4192SOL    HW114508   4.508   6.227   8.245 -1.0183  0.2242  0.6697
 4192SOL    HW214509   4.595   6.133   8.327  0.7648  1.0300 -0.2432
 4193SOL     OW14510   7.974   3.582   4.621 -0.0555  0.2990 -0.0340
 4193SOL    HW114511   7.977   3.490   4.647  0.5099 -0.1655 -1.6304
 4193SOL    HW214512   8.055   3.597   4.572  0.1269  1.8130  0.6501
 4194SOL     OW14513   0.191   1.722   0.918  0.1789 -0.5887 -0.0745
 4194SOL    HW114514   0.247   1.783   0.869  0.2775  0.1044  0.8635
 4194SOL    HW214515   0.252   1.678   0.978 -0.1398 -0.4390  0.3652
 4195SOL     OW14516   3.924   8.303   5.778 -0.0523  0.1862  0.7170
 4195SOL    HW114517   3.942   8.394   5.755  1.3222 -0.3475 -0.4289
 4195SOL    HW214518   3.904   8.305   5.872 -0.5651  1.7239  0.5967
 4196SOL     OW14519   6.768   5.601   0.354  0.3227  0.2715 -0.0470
 4196SOL    HW114520   6.829   5.644   0.414  2.2552  0.7321 -2.2274
 4196SOL    HW214521   6.771   5.653   0.274 -0.8358 -1.2724 -1.1680
 4197SOL     OW14522   3.042   7.257   2.995  0.2963  0.2474 -0.2676
 4197SOL    HW114523   3.084   7.185   2.947  0.6995 -0.2679  0.8179
 4197SOL    HW214524   3.081   7.253   3.082 -0.7114  0.9014  0.2311
 4198SOL     OW14525   1.391   6.935   7.140  0.7603 -0.7364  0.2787
 4198SOL    HW114526   1.436   6.937   7.224  0.0378  2.0767  0.6885
 4198SOL    HW214527   1.301   6.911   7.161  0.5543  0.0690  0.3593
 4199SOL     OW14528   2.498   2.501   5.585 -0.1924 -0.2077  0.4132
 4199SOL    HW114529   2.465   2.589   5.569 -1.4486 -0.3193  2.1669
 4199SOL    HW214530   2.462   2.449   5.513  1.0895  0.7535 -1.0166
 4200SOL     OW14531   0.413   2.830   6.215  0.9061 -0.3747  0.2447
 4200SOL    HW114532   0.341   2.770   6.233  0.7837 -0.0488  0.8728
 4200SOL    HW214533   0.478   2.776   6.170  0.7134 -0.9355  0.6184
 4201SOL     OW14534   3.656   5.732   0.638 -0.5104 -0.0877  0.7715
 4201SOL    HW114535   3.615   5.669   0.578  2.1246 -1.8362  0.6784
 4201SOL    HW214536   3.734   5.687   0.671  1.9866  3.3759  0.1135
 4202SOL     OW14537   1.205   1.255   8.195 -0.0660  0.0638  0.2110
 4202SOL    HW114538   1.217   1.340   8.153 -2.3072  1.6576  2.4731
 4202SOL    HW214539   1.137   1.213   8.143 -1.0742  0.9786  0.7438
 4203SOL     OW14540   7.218   6.379   3.411  0.2991 -0.3338 -0.3506
 4203SOL    HW114541   7.199   6.285   3.408 -1.0070 -0.0775 -1.3903
 4203SOL    HW214542   7.211   6.407   3.319  1.2112  0.6828 -0.1245
 4204SOL     OW14543   4.110   1.183   1.032  0.4129 -0.0529  0.4673
 4204SOL    HW114544   4.036   1.142   1.076  0.2606 -0.6730 -0.3546
 4204SOL    HW214545   4.109   1.147   0.943  0.8887  0.9559  0.0346
 4205SOL     OW14546   3.922   6.831   7.203 -0.0986 -0.3014 -0.3581
 4205SOL    HW114547   3.987   6.898   7.226  0.3817 -0.8866  0.0263
 4205SOL    HW214548   3.846   6.851   7.257 -0.1347  0.2244 -0.6031
 4206SOL     OW14549   6.556   8.054   5.380 -0.0055  0.2889 -0.1170
 4206SOL    HW114550   6.627   8.113   5.356  0.4981 -0.8507 -1.5871
 4206SOL    HW214551   6.477   8.096   5.346  0.5668 -0.7508 -2.9884
 4207SOL     OW14552   3.185   8.422   0.869  0.7231 -0.6673  0.9034
 4207SOL    HW114553   3.251   8.410   0.800 -1.4563 -0.8616 -1.3082
 4207SOL    HW214554   3.142   8.337   0.876 -2.3805  0.5443 -1.2434
 4208SOL     OW14555   0.519   1.837   3.014  0.6221 -0.0959 -0.3751
 4208SOL    HW114556   0.425   1.822   3.002  0.7660 -1.2669 -0.1952
 4208SOL    HW214557   0.527   1.930   3.034 -0.6727 -0.2988  1.3154
 4209SOL     OW14558   5.987   8.066   1.401  0.0972  0.4926 -0.3010
 4209SOL    HW114559   5.967   8.155   1.429 -1.6150  0.1133 -0.2450
 4209SOL    HW214560   5.970   8.065   1.307 -2.1393 -0.3305  0.0645
 4210SOL     OW14561   2.031   1.976   7.325  0.1201 -0.4622 -0.0246
 4210SOL    HW114562   2.013   1.889   7.361  0.5501 -0.0260  1.2854
 4210SOL    HW214563   2.051   1.959   7.232  0.0127 -1.7295  0.1586
 4211SOL     OW14564   0.899   8.691   7.947  0.0096 -0.2399 -0.2059
 4211SOL    HW114565   0.945   8.627   7.892  0.1530 -0.6550  0.3837
 4211SOL    HW214566   0.807   8.665   7.942 -0.2787  0.9082 -1.8130
 4212SOL     OW14567   2.702   2.704   6.125 -0.9936 -0.3894  0.1697
 4212SOL    HW114568   2.755   2.657   6.060 -1.2981 -0.4107 -0.0681
 4212SOL    HW214569   2.656   2.635   6.173 -0.2764 -0.4069  0.8470
 4213SOL     OW14570   6.017   2.355   3.088  0.3994  0.7905  0.3980
 4213SOL    HW114571   5.946   2.380   3.148  1.0489  0.5834  1.2724
 4213SOL    HW214572   5.986   2.274   3.047 -0.1884  1.1039  0.2100
 4214SOL     OW14573   2.342   1.067   1.858 -0.1918 -0.1120 -0.5248
 4214SOL    HW114574   2.330   0.987   1.807 -0.2417 -0.7021  0.4061
 4214SOL    HW214575   2.264   1.119   1.838 -0.6837 -0.7510 -0.3134
 4215SOL     OW14576   6.938   1.645   1.663  0.6801 -0.5540 -0.3087
 4215SOL    HW114577   6.855   1.691   1.655 -0.1503 -2.0674 -0.7671
 4215SOL    HW214578   7.002   1.704   1.623 -0.3587  0.1353 -0.9994
 4216SOL     OW14579   7.608   5.537   3.117 -0.3721  0.3323  0.7218
 4216SOL    HW114580   7.651   5.468   3.066 -2.2605  0.0025 -0.5091
 4216SOL    HW214581   7.515   5.517   3.112 -0.8609  2.1163  1.6635
 4217SOL     OW14582   5.878   8.523   1.600  0.2994 -0.2244  0.0867
 4217SOL    HW114583   5.821   8.599   1.597  0.0196 -0.1270 -6.2453
 4217SOL    HW214584   5.820   8.449   1.580  1.4780 -0.9877 -0.6473
 4218SOL     OW14585   3.573   6.282   8.672 -0.4617  0.2117 -0.3268
 4218SOL    HW114586   3.510   6.221   8.634  0.0285  0.4118 -1.5175
 4218SOL    HW214587   3.529   6.367   8.670 -0.0369  0.4227 -1.5278
 4219SOL     OW14588   6.415   5.829   0.053 -0.3076  0.4688 -0.1123
 4219SOL    HW114589   6.320   5.838   0.066 -0.3110  0.6128 -0.2378
 4219SOL    HW214590   6.440   5.908   0.005 -0.0285  0.7084  0.4273
 4220SOL     OW14591   5.990   5.505   7.337  0.4394 -0.1037 -0.7988
 4220SOL    HW114592   5.992   5.437   7.405  2.9669 -0.7694 -1.4252
 4220SOL    HW214593   5.916   5.480   7.281  0.7918 -1.9134 -0.5364
 4221SOL     OW14594   3.214   3.648   6.568  0.1118 -0.3676 -0.0018
 4221SOL    HW114595   3.181   3.733   6.598  2.2110  0.3601  0.3591
 4221SOL    HW214596   3.274   3.669   6.496 -0.2323 -1.6620 -0.7020
 4222SOL     OW14597   3.177   0.623   0.058 -0.1604 -0.3307  0.5707
 4222SOL    HW114598   3.179   0.528   0.070 -0.5227 -0.4016  0.1158
 4222SOL    HW214599   3.109   0.637  -0.008  0.1337  0.2173  0.3753
 4223SOL     OW14600   3.734   5.458   3.711 -0.1338  0.3694 -0.2983
 4223SOL    HW114601   3.677   5.380   3.710  0.7836 -0.3400 -1.8359
 4223SOL    HW214602   3.782   5.453   3.628 -0.5617  2.9782 -0.7971
 4224SOL     OW14603   4.041   0.736   7.483 -0.5735 -0.0170  0.4993
 4224SOL    HW114604   3.964   0.697   7.524 -0.8431 -0.3563 -0.3092
 4224SOL    HW214605   4.068   0.805   7.544 -3.1710  1.9829 -0.4371
 4225SOL     OW14606   1.576   0.119   8.217  0.1791  0.2294 -0.7740
 4225SOL    HW114607   1.575   0.060   8.292  1.1746  1.4203  0.2144
 4225SOL    HW214608   1.483   0.137   8.200 -0.1943 -2.0056 -1.4746
 4226SOL     OW14609   5.349   5.257   1.631  0.1712  0.2564  1.0051
 4226SOL    HW114610   5.275   5.208   1.594 -0.0707  2.1250 -1.2015
 4226SOL    HW214611   5.419   5.193   1.639 -0.7511 -0.8916  0.2162
 4227SOL     OW14612   4.840   4.077   0.606 -0.2760 -0.1340  0.4138
 4227SOL    HW114613   4.753   4.108   0.580 -0.4486  0.5443  1.6994
 4227SOL    HW214614   4.879   4.152   0.651  0.9878 -0.4301 -0.1698
 4228SOL     OW14615   3.527   2.679   8.740 -0.3722  0.3158  0.2525
 4228SOL    HW114616   3.612   2.723   8.743  0.6550 -1.6150  2.2933
 4228SOL    HW214617   3.507   2.658   8.831 -1.7144 -1.7019 -0.4198
 4229SOL     OW14618   7.585   8.138   5.530 -0.1134  0.3304 -0.7881
 4229SOL    HW114619   7.503   8.098   5.560  1.7629 -2.2611  1.2839
 4229SOL    HW214620   7.608   8.200   5.599  0.9013 -0.8067 -0.0805
 4230SOL     OW14621   1.082   5.363   2.078 -0.3454  0.1304 -0.4486
 4230SOL    HW114622   1.006   5.309   2.098 -0.9921  1.7898  2.2159
 4230SOL    HW214623   1.157   5.305   2.088 -1.1194 -0.7699  0.3059
 4231SOL     OW14624   3.104   5.913   1.008  0.1380  0.1853 -0.5117
 4231SOL    HW114625   3.029   5.892   0.952 -0.2604  0.5678 -0.1367
 4231SOL    HW214626   3.073   5.895   1.097 -0.3676  2.6356 -0.1245
 4232SOL     OW14627   5.065   5.481   6.950  0.2013 -0.0935 -0.8425
 4232SOL    HW114628   5.060   5.488   7.045  3.0166  1.3783 -0.6959
 4232SOL    HW214629   5.073   5.387   6.933 -0.5226 -0.3911  0.3448
 4233SOL     OW14630   2.649   7.901   1.781 -0.3190  0.2174 -0.4183
 4233SOL    HW114631   2.729   7.915   1.831  1.1706 -0.7373 -2.4140
 4233SOL    HW214632   2.580   7.937   1.837  1.5315  1.6171  1.1168
 4234SOL     OW14633   1.065   8.172   5.530 -0.2549 -0.3033 -0.2398
 4234SOL    HW114634   1.081   8.238   5.461 -0.8105  0.5200  0.4064
 4234SOL    HW214635   1.153   8.149   5.561 -0.0424 -0.0627 -0.6453
 4235SOL     OW14636   6.122   3.775   5.335 -0.1085 -0.2734  0.4704
 4235SOL    HW114637   6.216   3.760   5.345  0.1746  0.6407 -0.6108
 4235SOL    HW214638   6.105   3.761   5.242 -0.7305  1.1328  0.3477
 4236SOL     OW14639   3.317   6.172   1.430  0.4180 -0.5358 -0.7798
 4236SOL    HW114640   3.244   6.139   1.482  0.7968 -0.5803 -0.2656
 4236SOL    HW214641   3.327   6.108   1.359 -1.7036  0.8123 -2.4272
 4237SOL     OW14642   3.026   0.732   6.875  0.5203  0.8054  0.3202
 4237SOL    HW114643   3.070   0.665   6.821 -1.8095 -0.4580 -0.1275
 4237SOL    HW214644   3.052   0.710   6.964 -1.6341 -1.9889  0.3923
 4238SOL     OW14645   1.561   0.342   3.552  0.0578 -0.2796  0.0008
 4238SOL    HW114646   1.559   0.422   3.605  1.3667 -0.9167  1.0964
 4238SOL    HW214647   1.636   0.354   3.493 -0.9221  0.0948 -1.2056
 4239SOL     OW14648   0.814   2.141   3.060  0.6170  0.0939 -0.1127
 4239SOL    HW114649   0.847   2.190   3.135  1.3105 -0.9725  0.3009
 4239SOL    HW214650   0.719   2.137   3.073  0.8194 -0.9854  1.2917
 4240SOL     OW14651   0.083   3.970   0.370  0.3165  0.8912 -0.2088
 4240SOL    HW114652   0.045   4.009   0.449  2.2628 -1.3395  1.9697
 4240SOL    HW214653   0.059   3.878   0.375  0.0686  0.7628 -2.5715
 4241SOL     OW14654   2.073   1.977   5.426  0.2593 -0.2103 -0.1330
 4241SOL    HW114655   2.016   2.026   5.486  0.9175  0.4915 -0.0574
 4241SOL    HW214656   2.115   2.045   5.373  0.1329 -0.7911 -0.9967
 4242SOL     OW14657   3.526   1.026   4.422 -0.3018  0.1470  0.1508
 4242SOL    HW114658   3.580   1.104   4.426 -0.1438 -0.0095  1.7058
 4242SOL    HW214659   3.552   0.974   4.498 -0.8022 -1.1577 -0.5287
 4243SOL     OW14660   8.277   7.287   4.068  0.3731  0.3361 -0.3729
 4243SOL    HW114661   8.300   7.194   4.059 -1.0172 -0.2349  1.3023
 4243SOL    HW214662   8.355   7.334   4.040  1.0853 -1.3377 -1.3420
 4244SOL     OW14663   1.866   3.764   6.812  0.3640  0.1544  0.3887
 4244SOL    HW114664   1.784   3.790   6.770 -0.1220 -1.7532  0.0645
 4244SOL    HW214665   1.925   3.837   6.796 -0.9512  1.0934 -0.3319
 4245SOL     OW14666   1.002   8.064   1.689  0.3343  0.3640 -0.0465
 4245SOL    HW114667   0.988   8.015   1.769  2.9986 -1.0911 -0.3593
 4245SOL    HW214668   1.093   8.094   1.695  0.0851  1.6295 -1.7995
 4246SOL     OW14669   3.419   0.417   5.238 -0.2665  0.3462 -0.2511
 4246SOL    HW114670   3.448   0.329   5.212  1.6666  0.4427  1.3780
 4246SOL    HW214671   3.386   0.405   5.327 -1.3931  1.0271 -0.5683
 4247SOL     OW14672   0.957   1.526   8.182  0.0978 -0.0054  0.9067
 4247SOL    HW114673   1.047   1.503   8.160  0.0524 -0.1057  0.8247
 4247SOL    HW214674   0.927   1.580   8.109  0.0163 -0.1625  0.8245
 4248SOL     OW14675   1.058   2.516   3.319 -0.2631  0.3450  0.2308
 4248SOL    HW114676   1.138   2.558   3.351 -0.4654  1.0173 -0.1333
 4248SOL    HW214677   1.077   2.423   3.324  1.6052  0.4865 -2.4865
 4249SOL     OW14678   8.204   4.626   4.935  0.3007 -0.2149 -0.0707
 4249SOL    HW114679   8.170   4.703   4.889 -1.8277 -1.5469 -0.8973
 4249SOL    HW214680   8.290   4.611   4.896  0.4228  1.3067 -0.4270
 4250SOL     OW14681   2.384   0.900   6.533 -0.4146 -0.1128 -0.0540
 4250SOL    HW114682   2.300   0.943   6.521  0.6546  1.9860 -0.4281
 4250SOL    HW214683   2.427   0.950   6.603  1.3529  0.2594 -1.3263
 4251SOL     OW14684   3.841   3.172   3.510 -0.0631 -0.2008 -0.0803
 4251SOL    HW114685   3.874   3.085   3.486  0.2379  0.0685 -0.6546
 4251SOL    HW214686   3.763   3.183   3.456 -0.3153 -0.2599  0.2643
 4252SOL     OW14687   1.574   5.902   0.333  0.2643 -0.0933  0.5956
 4252SOL    HW114688   1.491   5.858   0.316  0.2382  0.3233 -0.3851
 4252SOL    HW214689   1.621   5.842   0.392  0.2646 -1.4665 -0.7480
 4253SOL     OW14690   4.146   4.863   5.041  0.5605  0.1310  0.3223
 4253SOL    HW114691   4.217   4.890   4.983  0.9589  1.1349  1.2390
 4253SOL    HW214692   4.072   4.848   4.983  1.4686 -0.7939 -0.6378
 4254SOL     OW14693   2.416   8.423   6.009  0.5453  0.0399 -0.2207
 4254SOL    HW114694   2.401   8.501   5.956  2.0454 -0.0277 -0.8003
 4254SOL    HW214695   2.507   8.430   6.037  0.3662 -0.9370  0.6666
 4255SOL     OW14696   2.797   4.328   0.787  0.1873 -0.1291  0.3517
 4255SOL    HW114697   2.788   4.411   0.741  0.3076  0.7968  1.9339
 4255SOL    HW214698   2.813   4.352   0.878 -0.9095 -1.8945  1.0702
 4256SOL     OW14699   8.184   5.304   0.174  0.2086  0.4711  0.3593
 4256SOL    HW114700   8.176   5.381   0.230 -0.3065 -1.3176  2.9199
 4256SOL    HW214701   8.095   5.273   0.164  0.5200 -0.4094  0.2770
 4257SOL     OW14702   0.088   2.497   4.474  1.0317 -0.1067 -0.2225
 4257SOL    HW114703   0.113   2.438   4.403 -0.6469  0.0532 -0.9766
 4257SOL    HW214704   0.088   2.441   4.552  2.0522 -0.4731 -0.4615
 4258SOL     OW14705   5.495   2.135   3.678 -0.6738 -0.0758 -0.6915
 4258SOL    HW114706   5.430   2.076   3.717 -0.1000  0.0244  0.4691
 4258SOL    HW214707   5.557   2.076   3.635  0.3853 -0.4538  1.2091
 4259SOL     OW14708   3.275   6.995   4.274 -0.1971  0.0046  0.1683
 4259SOL    HW114709   3.247   7.022   4.361  0.7459 -0.8259  0.7524
 4259SOL    HW214710   3.304   7.076   4.232  0.1880  0.2895  0.9581
 4260SOL     OW14711   5.959   1.482   6.189  1.0981 -0.0740  0.2754
 4260SOL    HW114712   5.983   1.493   6.280  2.7609  2.3538 -0.3728
 4260SOL    HW214713   5.868   1.451   6.192  0.6017  1.3387  2.7454
 4261SOL     OW14714   3.969   2.953   5.819 -0.0074  0.0235  0.4198
 4261SOL    HW114715   3.920   3.019   5.869  2.9685  3.0362 -0.2401
 4261SOL    HW214716   4.003   2.893   5.885 -2.2563 -0.5930  1.1153
 4262SOL     OW14717   6.525   1.320   5.567 -0.1503  0.2017 -0.6168
 4262SOL    HW114718   6.506   1.231   5.539 -0.2153 -0.0889  0.3467
 4262SOL    HW214719   6.444   1.368   5.550  0.3278  0.4379 -2.4847
 4263SOL     OW14720   5.819   2.296   8.085  0.2530 -0.5369 -0.1362
 4263SOL    HW114721   5.913   2.304   8.067  0.4146  0.9470  1.0788
 4263SOL    HW214722   5.777   2.340   8.012  0.7357  2.2505  1.1058
 4264SOL     OW14723   1.298   0.697   0.851 -0.1002 -0.1637  0.0241
 4264SOL    HW114724   1.278   0.651   0.933  2.6711  0.4293  1.1386
 4264SOL    HW214725   1.278   0.789   0.870 -2.0537 -0.3221 -0.9626
 4265SOL     OW14726   1.865   0.668   4.168  0.3371  0.2637  0.3054
 4265SOL    HW114727   1.826   0.743   4.212 -2.6290 -0.6126 -0.5315
 4265SOL    HW214728   1.832   0.674   4.078  1.5194 -1.0580 -0.2466
 4266SOL     OW14729   1.629   3.055   0.527 -0.1003 -0.1131 -0.4806
 4266SOL    HW114730   1.533   3.053   0.522 -0.2081  1.5697  0.2832
 4266SOL    HW214731   1.648   3.052   0.620  0.6613 -1.3995 -0.6554
 4267SOL     OW14732   8.541   3.783   3.656  0.7265 -0.1273  0.2580
 4267SOL    HW114733   8.508   3.872   3.668  3.2655  0.9148  0.2936
 4267SOL    HW214734   8.464   3.727   3.664 -1.1884  2.1331 -1.1576
 4268SOL     OW14735   7.341   5.934   5.964  0.0323 -0.6122 -0.3259
 4268SOL    HW114736   7.295   5.852   5.983 -0.7409 -0.0992  0.0604
 4268SOL    HW214737   7.381   5.919   5.878 -1.2185 -0.9360 -0.8772
 4269SOL     OW14738   4.146   4.249   0.795  0.2315  0.1654 -0.5027
 4269SOL    HW114739   4.196   4.186   0.846 -1.1069  1.1822  2.3132
 4269SOL    HW214740   4.140   4.326   0.851 -1.6692  1.2684 -2.0737
 4270SOL     OW14741   3.587   1.736   3.906  0.3803  0.2044 -0.7005
 4270SOL    HW114742   3.667   1.695   3.936  0.4386  0.2468 -0.7976
 4270SOL    HW214743   3.607   1.768   3.818 -0.1203 -0.8720 -1.2197
 4271SOL     OW14744   7.740   2.312   5.747 -0.2470  0.0393  0.5394
 4271SOL    HW114745   7.825   2.272   5.729 -1.3432 -3.2782  2.1294
 4271SOL    HW214746   7.698   2.317   5.661  0.1480 -1.8437  0.1897
 4272SOL     OW14747   8.195   7.208   6.279 -0.0554 -0.3790 -0.1764
 4272SOL    HW114748   8.189   7.121   6.240  1.0185 -0.6461  0.2200
 4272SOL    HW214749   8.220   7.265   6.206  0.1534 -0.5717 -0.2598
 4273SOL     OW14750   8.358   2.948   6.171  0.3166  0.4033 -0.4994
 4273SOL    HW114751   8.444   2.908   6.157  0.5011  0.8379 -0.6256
 4273SOL    HW214752   8.373   3.015   6.238 -0.1518 -0.2672  0.3077
 4274SOL     OW14753   6.088   6.659   0.353  0.2389  0.1437  0.1354
 4274SOL    HW114754   6.129   6.639   0.269  0.3673 -1.8849  0.6369
 4274SOL    HW214755   6.160   6.655   0.416 -0.2301 -0.6619  0.6410
 4275SOL     OW14756   5.813   0.252   7.632 -0.5828 -0.0555  0.1738
 4275SOL    HW114757   5.802   0.342   7.603  0.0966 -0.5952 -1.9489
 4275SOL    HW214758   5.723   0.217   7.636 -0.8153  0.5749  0.6174
 4276SOL     OW14759   1.949   3.329   5.621  0.5502 -0.5419 -0.3254
 4276SOL    HW114760   1.887   3.358   5.554 -0.6464  1.5745  1.5747
 4276SOL    HW214761   2.034   3.359   5.589 -0.3652  3.5390  0.4998
 4277SOL     OW14762   5.515   5.582   1.211  0.4013  0.4824  0.5741
 4277SOL    HW114763   5.596   5.532   1.203 -0.8252 -1.6343  0.7809
 4277SOL    HW214764   5.460   5.530   1.269 -2.5023 -0.1472 -2.4253
 4278SOL     OW14765   0.675   6.992   4.337 -0.2223 -0.4274  0.3572
 4278SOL    HW114766   0.681   6.931   4.410  2.6494 -0.6766  0.0369
 4278SOL    HW214767   0.712   7.074   4.371  0.8612 -0.4537 -0.6732
 4279SOL     OW14768   7.838   8.735   5.199  0.7605  0.5434 -0.4370
 4279SOL    HW114769   7.743   8.737   5.191  0.4737  1.7486  2.1149
 4279SOL    HW214770   7.868   8.809   5.147  0.2026  0.7582 -0.4581
 4280SOL     OW14771   5.883   4.496   5.723 -0.4967 -0.0921  0.0833
 4280SOL    HW114772   5.954   4.433   5.713  1.1795  1.7645 -0.3618
 4280SOL    HW214773   5.846   4.505   5.634 -0.0074  0.3560 -0.0770
 4281SOL     OW14774   8.377   0.685   8.746 -0.3143  0.1360  0.4070
 4281SOL    HW114775   8.401   0.670   8.838  1.1258  2.1187  0.4250
 4281SOL    HW214776   8.326   0.766   8.747 -0.1930  0.2346 -0.5517
 4282SOL     OW14777   4.606   0.804   4.925 -0.3349 -0.0165  0.0435
 4282SOL    HW114778   4.626   0.718   4.963  2.1704  0.4952  0.1076
 4282SOL    HW214779   4.572   0.855   4.998  0.6395 -0.2205  0.6607
 4283SOL     OW14780   2.282   1.079   4.708 -0.4691  0.0223  0.2221
 4283SOL    HW114781   2.238   1.164   4.708  0.7028  0.6985 -1.8412
 4283SOL    HW214782   2.252   1.036   4.788 -3.3168  1.2161 -0.0886
 4284SOL     OW14783   2.404   5.427   3.287  0.4976 -0.0683  0.0905
 4284SOL    HW114784   2.470   5.467   3.230  0.3121  0.0620 -0.0348
 4284SOL    HW214785   2.324   5.427   3.234  0.9126 -2.3281 -0.6398
 4285SOL     OW14786   5.548   0.230   0.911  0.4902 -0.4339 -0.4799
 4285SOL    HW114787   5.626   0.276   0.880  0.9942 -0.4730  0.6800
 4285SOL    HW214788   5.496   0.298   0.954  1.2329 -0.8911  1.2339
 4286SOL     OW14789   8.292   2.545   3.653 -0.5796 -0.0871 -0.2316
 4286SOL    HW114790   8.213   2.495   3.673 -3.2406  3.1017 -1.7724
 4286SOL    HW214791   8.314   2.520   3.563 -0.4189 -0.2844 -0.1370
 4287SOL     OW14792   0.525   3.705   2.120  0.0700 -0.3474 -0.5367
 4287SOL    HW114793   0.503   3.777   2.060  0.2274  0.4762  0.3753
 4287SOL    HW214794   0.531   3.628   2.063  0.2352  0.4185 -1.5857
 4288SOL     OW14795   3.242   2.153   1.817 -0.5339  0.6135  0.3973
 4288SOL    HW114796   3.312   2.192   1.765 -0.8509  1.8379  0.8397
 4288SOL    HW214797   3.266   2.173   1.908 -0.7391 -0.2043  0.6386
 4289SOL     OW14798   0.478   4.477   5.003  0.0610 -0.2112  0.3221
 4289SOL    HW114799   0.388   4.445   5.013 -0.1892  0.8296  1.8582
 4289SOL    HW214800   0.517   4.420   4.937 -1.7976 -0.5336 -0.5600
 4290SOL     OW14801   7.918   7.616   1.941 -0.0714 -0.1112 -0.3592
 4290SOL    HW114802   7.881   7.557   1.874 -0.1042  0.4381 -0.8356
 4290SOL    HW214803   7.974   7.676   1.891  2.7800 -1.8870  0.5133
 4291SOL     OW14804   0.525   1.193   4.431  0.5672  0.4045 -0.2523
 4291SOL    HW114805   0.613   1.231   4.428  0.0674  1.5654 -0.8308
 4291SOL    HW214806   0.524   1.140   4.511  1.0226  2.3229  1.0773
 4292SOL     OW14807   2.606   0.511   3.969 -0.0694 -0.0726  0.5102
 4292SOL    HW114808   2.642   0.576   3.908  0.5319 -2.1523 -1.5059
 4292SOL    HW214809   2.679   0.493   4.028  0.0438  0.4226  0.5335
 4293SOL     OW14810   5.784   6.895   8.706 -0.0367 -0.1061 -0.1470
 4293SOL    HW114811   5.872   6.930   8.694 -0.5348  0.7369 -1.4740
 4293SOL    HW214812   5.768   6.841   8.628 -0.8370  0.0570 -0.1068
 4294SOL     OW14813   7.216   2.908   6.900 -0.1241  0.6177 -0.2315
 4294SOL    HW114814   7.300   2.869   6.877 -0.4168  0.1704 -0.5773
 4294SOL    HW214815   7.234   2.963   6.976  0.5502  0.8225 -0.5371
 4295SOL     OW14816   5.171   0.213   0.054 -0.0886  0.0611 -0.1371
 4295SOL    HW114817   5.185   0.278   0.123 -0.8143 -1.1784  1.2114
 4295SOL    HW214818   5.259   0.191   0.024  0.3837 -0.8869  1.8347
 4296SOL     OW14819   2.203   3.453   5.614 -0.0561  0.3808 -0.0254
 4296SOL    HW114820   2.208   3.471   5.708 -0.6080  1.0351 -0.1105
 4296SOL    HW214821   2.284   3.489   5.578 -0.1865  0.8009  0.0993
 4297SOL     OW14822   1.318   3.657   1.876 -0.1106  0.1018  0.0278
 4297SOL    HW114823   1.350   3.585   1.930  0.1153  0.7918  0.8311
 4297SOL    HW214824   1.370   3.651   1.796  0.4608 -0.1519  0.4062
 4298SOL     OW14825   3.305   5.666   7.154  0.5828 -0.2261  0.2278
 4298SOL    HW114826   3.276   5.593   7.100  1.0040 -0.5763  0.4674
 4298SOL    HW214827   3.323   5.737   7.092 -0.8274  0.0308  0.0808
 4299SOL     OW14828   3.550   8.394   0.977 -0.3757 -0.2537  1.1029
 4299SOL    HW114829   3.521   8.481   1.003 -0.4947  0.1213 -0.2232
 4299SOL    HW214830   3.534   8.339   1.054  1.2852  1.2073  2.5670
 4300SOL     OW14831   2.564   3.621   6.179  0.2879  0.3551  0.1451
 4300SOL    HW114832   2.638   3.563   6.197 -0.6986 -1.8381 -2.2401
 4300SOL    HW214833   2.535   3.651   6.266  3.0315  0.1597  1.2157
 4301SOL     OW14834   4.127   0.991   1.246 -0.1555  0.5724  0.0455
 4301SOL    HW114835   4.075   0.941   1.309 -1.5222  0.5408 -1.0585
 4301SOL    HW214836   4.114   0.946   1.163 -0.6706  2.2095 -0.8055
 4302SOL     OW14837   4.727   1.885   2.764  0.6680  0.2852  0.1089
 4302SOL    HW114838   4.707   1.792   2.749  0.7461  0.0357  1.4351
 4302SOL    HW214839   4.795   1.884   2.830 -0.3345  1.3201  1.1935
 4303SOL     OW14840   8.272   1.215   2.935 -0.2352  0.1845  0.3684
 4303SOL    HW114841   8.321   1.266   2.870  0.9522 -0.8031  0.4427
 4303SOL    HW214842   8.337   1.194   3.002 -0.8263 -0.9256  0.6137
 4304SOL     OW14843   8.616   8.039   8.384 -0.1165 -0.2299  0.2901
 4304SOL    HW114844   8.620   8.122   8.336 -0.0152  0.4172  1.3705
 4304SOL    HW214845   8.637   7.972   8.319  2.1137  0.7686 -0.1284
 4305SOL     OW14846   0.598   7.425   2.821  0.0212  0.2610  0.6079
 4305SOL    HW114847   0.602   7.346   2.767 -0.9786  0.1487  0.6861
 4305SOL    HW214848   0.565   7.492   2.762  0.6867  0.5877  0.5953
 4306SOL     OW14849   7.155   5.137   0.038  0.3272 -0.5515 -0.0572
 4306SOL    HW114850   7.135   5.155   0.130  0.2307 -0.6367 -0.0615
 4306SOL    HW214851   7.242   5.174   0.025  0.6096 -1.1025  0.2375
 4307SOL     OW14852   5.829   5.793   3.155  0.0237 -0.1838  0.0464
 4307SOL    HW114853   5.893   5.734   3.115 -1.8436 -1.8832 -0.6043
 4307SOL    HW214854   5.791   5.840   3.080  0.6498  0.9972  0.4509
 4308SOL     OW14855   3.572   1.532   7.856  0.3785  0.1117  0.0513
 4308SOL    HW114856   3.504   1.590   7.821 -1.5034 -1.2257  1.3000
 4308SOL    HW214857   3.596   1.571   7.940 -2.3018 -1.7039  1.8587
 4309SOL     OW14858   7.668   0.361   1.733 -0.2000  0.0147  0.0053
 4309SOL    HW114859   7.627   0.308   1.801 -1.3884 -0.1904 -0.8476
 4309SOL    HW214860   7.738   0.409   1.779  0.0967 -1.3376  1.0396
 4310SOL     OW14861   7.790   0.807   2.673 -0.3846 -0.3800 -0.1410
 4310SOL    HW114862   7.815   0.854   2.594  3.5913  1.2052  1.7877
 4310SOL    HW214863   7.758   0.875   2.732 -0.5171 -1.0715  0.6033
 4311SOL     OW14864   4.747   5.067   4.188 -0.2558 -0.0150 -0.1886
 4311SOL    HW114865   4.694   4.987   4.195  1.4132 -1.4187 -2.0863
 4311SOL    HW214866   4.827   5.046   4.237  0.6401  0.0255 -1.5740
 4312SOL     OW14867   5.742   3.720   7.910  0.0297  0.3942 -0.1571
 4312SOL    HW114868   5.734   3.812   7.937 -1.0295  0.5457 -0.8921
 4312SOL    HW214869   5.652   3.688   7.911 -0.1164  0.3798 -3.2655
 4313SOL     OW14870   5.863   4.666   8.776  0.1571 -0.2338 -0.0422
 4313SOL    HW114871   5.883   4.608   8.703  0.3875 -0.8046  0.4685
 4313SOL    HW214872   5.924   4.739   8.767  0.7220 -0.6928  0.0324
 4314SOL     OW14873   3.799   3.832   1.825  0.3446 -0.1353  0.6013
 4314SOL    HW114874   3.818   3.872   1.740  0.4474 -0.8390  0.2916
 4314SOL    HW214875   3.745   3.897   1.871  1.8303  1.0693  0.7310
 4315SOL     OW14876   3.093   2.585   0.358 -0.1988  0.1904 -0.2621
 4315SOL    HW114877   3.102   2.608   0.450  0.0973 -1.0587  0.0427
 4315SOL    HW214878   2.999   2.594   0.340 -0.0314  2.2431 -0.3695
 4316SOL     OW14879   5.752   2.054   6.774  0.1675  0.4426 -0.6103
 4316SOL    HW114880   5.846   2.064   6.760  1.0248 -2.6534  1.7771
 4316SOL    HW214881   5.735   1.961   6.756 -2.1251  0.5953  0.4764
 4317SOL     OW14882   3.953   6.544   7.145  0.6657  0.5132 -0.3579
 4317SOL    HW114883   3.921   6.628   7.176 -2.7793 -1.4088  1.9635
 4317SOL    HW214884   3.923   6.539   7.054  1.2310  1.8630 -0.6422
 4318SOL     OW14885   3.421   1.314   4.583  0.3628  0.8061 -0.3200
 4318SOL    HW114886   3.499   1.323   4.528 -0.4779  1.5139 -1.4469
 4318SOL    HW214887   3.375   1.397   4.573  0.4335  1.1847  1.9207
 4319SOL     OW14888   5.208   8.491   0.177  0.4393 -0.5074  0.0632
 4319SOL    HW114889   5.236   8.512   0.088  2.8908 -1.2996  0.5837
 4319SOL    HW214890   5.161   8.569   0.206 -0.6212 -0.3174 -1.9581
 4320SOL     OW14891   0.125   8.772   1.760 -0.7332  0.4110 -0.2443
 4320SOL    HW114892   0.178   8.715   1.816 -0.1607  0.6813 -0.5018
 4320SOL    HW214893   0.063   8.814   1.820  0.5108  1.4367  0.3651
 4321SOL     OW14894   4.552   5.614   4.757 -0.3556 -0.2156 -0.9483
 4321SOL    HW114895   4.641   5.637   4.730 -0.6331  0.5088 -1.2819
 4321SOL    HW214896   4.498   5.639   4.682 -0.9614  0.3733 -0.3293
 4322SOL     OW14897   6.771   3.292   4.754  0.0416 -0.4477  0.2537
 4322SOL    HW114898   6.709   3.285   4.682  0.1846  2.6595 -0.3060
 4322SOL    HW214899   6.790   3.386   4.761  2.1438 -0.9253  2.5676
 4323SOL     OW14900   5.357   3.739   2.278  0.1931 -0.3322  0.0762
 4323SOL    HW114901   5.342   3.698   2.193 -1.6202 -0.4460  0.4123
 4323SOL    HW214902   5.270   3.743   2.318  0.3652  3.1004  0.4053
 4324SOL     OW14903   8.762   1.720   8.324 -0.9580  0.2006 -0.6124
 4324SOL    HW114904   8.758   1.654   8.254 -1.6556 -0.0010 -0.3914
 4324SOL    HW214905   8.676   1.762   8.321 -0.3188  1.5041 -1.1331
 4325SOL     OW14906   2.761   7.673   8.359 -0.3783 -0.3731 -0.1647
 4325SOL    HW114907   2.754   7.592   8.410 -1.1315 -1.0382 -1.2815
 4325SOL    HW214908   2.673   7.687   8.324 -1.2081  2.8187  2.7177
 4326SOL     OW14909   6.031   0.793   0.127  0.2410 -0.1142 -0.1571
 4326SOL    HW114910   5.953   0.763   0.080 -1.1117 -1.0720  2.5184
 4326SOL    HW214911   6.022   0.889   0.130 -2.4375 -0.3039  2.4638
 4327SOL     OW14912   4.497   6.563   5.316  0.0903  0.7017 -0.2427
 4327SOL    HW114913   4.435   6.633   5.332 -0.1605  0.5952 -0.7131
 4327SOL    HW214914   4.571   6.582   5.374  0.0032  1.3223 -0.3263
 4328SOL     OW14915   7.712   2.804   3.270 -0.2630  0.7957 -0.5121
 4328SOL    HW114916   7.677   2.732   3.322 -0.7940  1.0082 -0.5708
 4328SOL    HW214917   7.634   2.851   3.239  0.0789  1.3712 -0.5014
 4329SOL     OW14918   2.218   8.682   4.601  0.5331 -0.5621 -0.1454
 4329SOL    HW114919   2.262   8.597   4.608 -0.7851 -1.1722  1.3927
 4329SOL    HW214920   2.229   8.722   4.687  1.3375  0.9580 -0.9256
 4330SOL     OW14921   0.416   7.660   2.377  0.7375  0.5900  0.6216
 4330SOL    HW114922   0.460   7.631   2.298 -0.4541  0.7424 -0.1148
 4330SOL    HW214923   0.323   7.658   2.356  0.4647  2.0196  1.5319
 4331SOL     OW14924   0.983   7.502   1.154 -0.3054 -0.8724  0.6097
 4331SOL    HW114925   1.077   7.521   1.151 -0.1588 -1.4869  1.2459
 4331SOL    HW214926   0.976   7.415   1.192 -1.0502 -1.5471 -0.9652
 4332SOL     OW14927   5.899   7.389   0.456 -0.2609  0.4840  0.1619
 4332SOL    HW114928   5.965   7.432   0.401 -0.4128 -1.2880 -1.5258
 4332SOL    HW214929   5.946   7.367   0.537  0.7971  0.6194 -0.4003
 4333SOL     OW14930   1.756   8.549   5.577 -0.0341  0.1348  0.5353
 4333SOL    HW114931   1.778   8.475   5.634  1.5392  0.8347  0.8807
 4333SOL    HW214932   1.785   8.523   5.490  0.7554  0.4337  0.7039
 4334SOL     OW14933   6.838   2.974   4.753 -0.3259 -0.4960  0.3987
 4334SOL    HW114934   6.836   2.879   4.751  1.1775 -0.5642 -2.1279
 4334SOL    HW214935   6.762   3.001   4.701  0.2378 -0.3826 -0.3807
 4335SOL     OW14936   8.871   6.953   4.548  0.1136 -0.0718  0.7833
 4335SOL    HW114937   8.964   6.955   4.527  0.4675  2.7675  2.2287
 4335SOL    HW214938   8.861   6.878   4.607  1.2150 -1.1023 -0.2920
 4336SOL     OW14939   4.612   7.163   4.581 -0.1465  0.1132 -0.2900
 4336SOL    HW114940   4.641   7.076   4.607  2.5866  1.0585  0.1074
 4336SOL    HW214941   4.562   7.195   4.657  1.8748  0.1972  1.0844
 4337SOL     OW14942   0.671   0.029   7.569  0.1576 -0.0494 -0.3618
 4337SOL    HW114943   0.723  -0.037   7.614 -1.1581 -0.2129  0.9734
 4337SOL    HW214944   0.582  -0.005   7.571 -0.6744  2.0105  0.9405
 4338SOL     OW14945   2.533   1.643   4.126 -0.3430 -0.2415  0.0068
 4338SOL    HW114946   2.596   1.615   4.191 -1.6161 -2.1129  0.5259
 4338SOL    HW214947   2.586   1.673   4.052  1.1185  0.9337  1.4665
 4339SOL     OW14948   0.570   6.385   6.630  0.8542 -0.2696 -0.0078
 4339SOL    HW114949   0.602   6.442   6.560  0.7873 -0.0873  0.1095
 4339SOL    HW214950   0.584   6.435   6.710  0.7140 -0.3824  0.0874
 4340SOL     OW14951   0.837   2.765   4.415 -0.0023  0.6737  0.0288
 4340SOL    HW114952   0.745   2.789   4.424 -0.2479 -0.6081  1.4585
 4340SOL    HW214953   0.871   2.767   4.505  1.1956  0.4688 -0.3936
 4341SOL     OW14954   8.465   8.411   5.520 -0.2940  0.1792 -0.1100
 4341SOL    HW114955   8.437   8.502   5.535  0.4626  0.1769  1.6374
 4341SOL    HW214956   8.393   8.358   5.554 -1.3626  0.0534 -2.4011
 4342SOL     OW14957   5.131   8.786   4.603 -0.3675  0.5747  0.2719
 4342SOL    HW114958   5.065   8.728   4.641 -1.9730  1.6034 -0.8890
 4342SOL    HW214959   5.201   8.788   4.669 -1.6820 -0.1621  1.7488
 4343SOL     OW14960   7.744   3.519   5.537 -0.0736 -0.2700  0.0408
 4343SOL    HW114961   7.788   3.577   5.600 -0.4061  0.7616 -0.6405
 4343SOL    HW214962   7.726   3.440   5.587  0.1122  0.3267  1.1073
 4344SOL     OW14963   3.656   5.410   7.245  0.5033 -0.4610 -0.7698
 4344SOL    HW114964   3.633   5.499   7.270 -0.3201 -0.8247 -0.1777
 4344SOL    HW214965   3.749   5.413   7.226  0.3661  0.6509 -1.3345
 4345SOL     OW14966   4.897   5.098   1.085  0.2574 -0.3265 -0.4210
 4345SOL    HW114967   4.976   5.069   1.038 -0.5127 -0.6940 -1.5194
 4345SOL    HW214968   4.874   5.181   1.044 -0.7324 -0.9099 -1.0985
 4346SOL     OW14969   4.312   8.267   7.465  0.1085  0.2751 -0.2794
 4346SOL    HW114970   4.242   8.206   7.443  0.1707  0.4675 -1.0561
 4346SOL    HW214971   4.285   8.307   7.547  0.3267 -1.1799  0.5268
 4347SOL     OW14972   0.234   2.051   5.173  0.1412  0.1393 -0.2018
 4347SOL    HW114973   0.167   2.056   5.106  0.2590 -1.5357 -0.4871
 4347SOL    HW214974   0.316   2.071   5.127  0.1460 -0.3954 -0.4321
 4348SOL     OW14975   0.988   1.860   4.558 -0.1572 -0.0513  0.8391
 4348SOL    HW114976   1.080   1.885   4.550  0.0200 -0.3810  1.7991
 4348SOL    HW214977   0.951   1.881   4.472  0.5592  1.0975  0.7900
 4349SOL     OW14978   4.401   8.277   6.396 -0.0334  0.4126  0.4471
 4349SOL    HW114979   4.415   8.206   6.333 -1.5563 -0.4315  0.9913
 4349SOL    HW214980   4.410   8.235   6.482 -2.0453  0.5815  0.7857
 4350SOL     OW14981   3.399   2.324   0.017 -0.3240 -0.1609  0.0057
 4350SOL    HW114982   3.465   2.276  -0.032  1.0004  0.4564  1.1229
 4350SOL    HW214983   3.340   2.256   0.051 -0.2501 -0.7229 -0.9530
 4351SOL     OW14984   6.022   0.084   3.598 -0.2266 -0.4317  0.2420
 4351SOL    HW114985   6.029   0.179   3.612 -1.0828 -0.0595 -1.5558
 4351SOL    HW214986   6.017   0.047   3.686 -2.8202  1.4534  1.0076
 4352SOL     OW14987   5.805   4.861   2.595  0.1317  0.1891 -0.2665
 4352SOL    HW114988   5.733   4.878   2.654 -1.4368 -1.8204 -1.4603
 4352SOL    HW214989   5.800   4.931   2.529  1.1181  1.7053  1.2069
 4353SOL     OW14990   7.472   5.084   1.907  0.4378 -0.2047  0.3224
 4353SOL    HW114991   7.528   5.015   1.873  0.1632  0.1090 -0.8044
 4353SOL    HW214992   7.529   5.132   1.968  1.6531  0.5185 -1.2908
 4354SOL     OW14993   3.552   4.760   6.050  0.3266  0.0651 -0.1136
 4354SOL    HW114994   3.495   4.832   6.076  1.2386  1.0002 -0.6239
 4354SOL    HW214995   3.496   4.682   6.053 -0.9330  0.9281 -0.4737
 4355SOL     OW14996   5.342   0.385   2.607 -0.5103 -0.0971 -0.0063
 4355SOL    HW114997   5.323   0.386   2.513  0.3152 -2.1962 -0.2378
 4355SOL    HW214998   5.256   0.393   2.648 -0.9209  0.4293 -0.9279
 4356SOL     OW14999   5.860   8.869   7.859  0.4380  0.6185  0.6729
 4356SOL    HW115000   5.798   8.799   7.876 -1.2073  1.1587 -2.3342
 4356SOL    HW215001   5.825   8.945   7.905  0.0118  0.4276  0.6629
 4357SOL     OW15002   8.160   5.804   0.995  0.6202 -0.0972  0.4294
 4357SOL    HW115003   8.111   5.772   0.919  1.7527  0.9072 -0.7767
 4357SOL    HW215004   8.142   5.898   0.998  0.4148 -0.1528  1.5721
 4358SOL     OW15005   8.722   2.585   4.728  0.0760 -0.0024 -0.3419
 4358SOL    HW115006   8.804   2.577   4.679 -0.8122  1.0019 -2.1048
 4358SOL    HW215007   8.699   2.495   4.750  0.6700 -0.4712 -1.5263
 4359SOL     OW15008   3.005   8.429   0.504 -0.0698 -0.0390  0.1188
 4359SOL    HW115009   3.034   8.351   0.552 -0.5893  0.7158  1.7399
 4359SOL    HW215010   2.912   8.438   0.528  0.0757  1.2664  0.2160
 4360SOL     OW15011   6.098   3.038   4.751  0.1348  0.6619  0.1541
 4360SOL    HW115012   6.032   2.978   4.715  1.3343 -0.9222  0.4761
 4360SOL    HW215013   6.110   3.104   4.682  0.3080 -0.6813 -1.1618
 4361SOL     OW15014   4.860   2.866   8.473 -0.3432 -1.0531  0.5052
 4361SOL    HW115015   4.806   2.863   8.395  0.2032 -0.7442  0.1074
 4361SOL    HW215016   4.817   2.930   8.530  0.3045  0.1745 -0.3531
 4362SOL     OW15017   8.509   6.568   3.184  0.9017  0.3768 -0.6441
 4362SOL    HW115018   8.435   6.580   3.124 -0.5415  1.4164  1.2576
 4362SOL    HW215019   8.496   6.633   3.253  2.3130 -0.9652  0.9882
 4363SOL     OW15020   4.732   1.745   6.706 -0.2853  0.8758 -0.4958
 4363SOL    HW115021   4.728   1.745   6.802 -0.2991 -1.0770 -0.4472
 4363SOL    HW215022   4.643   1.765   6.678 -0.5077  0.5136 -0.0710
 4364SOL     OW15023   4.851   1.260   3.295  0.1264  0.3101  0.0553
 4364SOL    HW115024   4.788   1.271   3.224 -0.2142 -0.0417  0.2970
 4364SOL    HW215025   4.800   1.220   3.366  0.9270 -1.2790 -0.2160
 4365SOL     OW15026   7.739   8.047   2.388 -0.0086 -0.5491  0.1230
 4365SOL    HW115027   7.815   8.069   2.442  0.0234 -0.3680  0.0050
 4365SOL    HW215028   7.753   7.956   2.364 -0.2652 -0.7802  0.8184
 4366SOL     OW15029   3.538   7.578   7.104  0.9097  0.1720  0.4323
 4366SOL    HW115030   3.566   7.651   7.159 -0.3429  0.3820  0.8205
 4366SOL    HW215031   3.558   7.500   7.155 -1.5685  0.4010  1.9159
 4367SOL     OW15032   7.042   0.079   8.107  0.1370 -0.3017 -0.3223
 4367SOL    HW115033   6.971   0.099   8.168 -0.3523  0.8251 -1.2247
 4367SOL    HW215034   7.018  -0.006   8.070 -0.3685 -0.2580 -0.1007
 4368SOL     OW15035   7.545   1.577   6.516 -0.2586  0.0691  0.0093
 4368SOL    HW115036   7.539   1.596   6.610 -1.4051 -0.0286 -0.0350
 4368SOL    HW215037   7.486   1.640   6.474  1.9032  1.6179 -0.8923
 4369SOL     OW15038   6.181   2.149   7.270 -0.5746 -0.3229 -0.0337
 4369SOL    HW115039   6.095   2.166   7.233 -0.5511 -0.1536 -0.0111
 4369SOL    HW215040   6.212   2.235   7.299 -1.0863 -0.6347  1.4791
 4370SOL     OW15041   7.337   5.995   4.243  0.1036  0.1461  0.1447
 4370SOL    HW115042   7.264   6.038   4.288  1.4394  1.8389  0.8064
 4370SOL    HW215043   7.404   5.987   4.310  0.5251 -1.4595 -0.4329
 4371SOL     OW15044   5.880   0.637   3.202  0.0808  0.2306 -0.4703
 4371SOL    HW115045   5.951   0.654   3.264 -0.3029  1.6153 -0.3691
 4371SOL    HW215046   5.904   0.687   3.124 -0.2486 -0.1778 -0.8369
 4372SOL     OW15047   6.069   3.217   0.889 -0.3318  0.1338  0.5420
 4372SOL    HW115048   6.028   3.140   0.927  0.0228  0.3219  1.3159
 4372SOL    HW215049   6.031   3.223   0.801 -1.8761  0.2228  1.1774
 4373SOL     OW15050   4.040   4.736   4.386  0.7091 -0.2757 -0.4386
 4373SOL    HW115051   3.966   4.675   4.377  1.1673 -0.7010 -1.5562
 4373SOL    HW215052   4.036   4.790   4.307  0.6178  0.8256  0.2995
 4374SOL     OW15053   7.436   3.905   5.477 -0.2455  0.1647  0.3415
 4374SOL    HW115054   7.513   3.875   5.429 -0.5402  1.0584 -0.7433
 4374SOL    HW215055   7.362   3.877   5.423 -0.5777  1.2695  0.1947
 4375SOL     OW15056   1.558   3.595   5.958  0.1744  0.2950  0.0137
 4375SOL    HW115057   1.570   3.503   5.931 -3.3933 -0.6093  0.9767
 4375SOL    HW215058   1.521   3.590   6.046 -1.9759  2.5149 -0.6443
 4376SOL     OW15059   5.416   3.587   2.892  0.1340  0.0083  0.2077
 4376SOL    HW115060   5.452   3.513   2.844  0.4591 -0.3038  0.9141
 4376SOL    HW215061   5.493   3.633   2.926 -0.0897  0.2222  0.4270
 4377SOL     OW15062   4.171   5.215   1.441  0.2002 -0.2355  0.3213
 4377SOL    HW115063   4.199   5.133   1.401 -0.5877 -0.7848  0.8606
 4377SOL    HW215064   4.084   5.232   1.403  1.2546  1.5619 -1.5147
 4378SOL     OW15065   2.212   8.804   8.750 -0.5225  0.4091  0.0131
 4378SOL    HW115066   2.289   8.856   8.725 -0.7355  0.3866 -0.7380
 4378SOL    HW215067   2.190   8.755   8.670 -2.3621  1.7262 -0.3703
 4379SOL     OW15068   3.455   5.030   3.522 -0.0343  0.2094 -0.5915
 4379SOL    HW115069   3.444   5.124   3.508  0.5751  0.2369 -0.9525
 4379SOL    HW215070   3.493   4.998   3.440 -1.6632 -0.6296 -1.0537
 4380SOL     OW15071   0.324   4.820   2.868 -0.2130 -0.0113  0.1594
 4380SOL    HW115072   0.330   4.878   2.792 -1.0630  0.2518  0.2862
 4380SOL    HW215073   0.328   4.732   2.831  3.6461 -0.0027  0.1308
 4381SOL     OW15074   3.382   3.072   5.880 -1.1139 -0.2295  0.2583
 4381SOL    HW115075   3.450   3.136   5.861 -3.0383  1.8200 -0.2324
 4381SOL    HW215076   3.386   3.009   5.809 -0.2237  0.2792 -0.1493
 4382SOL     OW15077   2.988   1.037   4.304 -0.1947  0.0778  0.2850
 4382SOL    HW115078   3.058   0.990   4.350 -0.9364 -0.1374  1.2154
 4382SOL    HW215079   2.935   1.076   4.373  1.1132  3.4927 -0.4311
 4383SOL     OW15080   0.488   0.688   2.812  0.4807 -0.3893 -1.0028
 4383SOL    HW115081   0.486   0.777   2.848 -0.3615 -0.5744 -0.5497
 4383SOL    HW215082   0.504   0.701   2.719  1.3269  0.1788 -0.7908
 4384SOL     OW15083   3.980   5.584   4.551 -0.3945 -0.3012 -0.4409
 4384SOL    HW115084   4.065   5.590   4.594 -0.3223 -0.1317 -0.6045
 4384SOL    HW215085   4.000   5.552   4.463 -0.4921 -0.1906 -0.5040
 4385SOL     OW15086   3.329   2.049   5.582 -0.4986  0.4901 -0.3645
 4385SOL    HW115087   3.250   2.000   5.561 -0.6996  0.8452 -0.4198
 4385SOL    HW215088   3.396   2.013   5.523  0.1103 -1.8211  1.5558
 4386SOL     OW15089   8.238   7.281   4.735 -0.8660 -0.0976  0.1374
 4386SOL    HW115090   8.282   7.229   4.667  0.2924 -0.2132  0.9368
 4386SOL    HW215091   8.145   7.270   4.718 -0.6536 -2.3177  0.1928
 4387SOL     OW15092   3.894   2.762   7.247 -0.4367 -0.0687 -0.5950
 4387SOL    HW115093   3.980   2.803   7.240 -0.5622 -0.0069 -1.9707
 4387SOL    HW215094   3.862   2.789   7.333  0.9155 -0.0992 -0.0675
 4388SOL     OW15095   0.886   1.080   1.738 -0.2986  0.1646 -0.2291
 4388SOL    HW115096   0.963   1.084   1.794  0.0137 -0.3422 -0.6119
 4388SOL    HW215097   0.819   1.040   1.794 -0.3659  0.8559  0.1895
 4389SOL     OW15098   1.577   4.033   7.757 -0.0775  0.2001 -0.2540
 4389SOL    HW115099   1.636   3.960   7.774  1.5896  1.9666  2.1340
 4389SOL    HW215100   1.529   4.046   7.839  0.2677  2.2467 -0.3084
 4390SOL     OW15101   0.408   1.779   4.791 -0.0444 -0.1927 -0.1461
 4390SOL    HW115102   0.415   1.800   4.884 -2.5298  1.6201 -0.2699
 4390SOL    HW215103   0.358   1.698   4.789  2.6535 -2.0178  0.0723
 4391SOL     OW15104   8.798   1.112   0.221 -0.0899  0.5795 -0.7124
 4391SOL    HW115105   8.752   1.033   0.191 -0.2375  0.4914 -0.2606
 4391SOL    HW215106   8.757   1.132   0.306  0.6845  0.5199 -0.3208
 4392SOL     OW15107   4.516   1.337   2.703 -0.9863  0.5601 -0.1788
 4392SOL    HW115108   4.459   1.402   2.662 -2.7353 -0.1866  0.9392
 4392SOL    HW215109   4.537   1.276   2.633 -2.8786  0.0046 -0.3213
 4393SOL     OW15110   3.035   5.026   0.735 -0.3307 -0.2201  0.0010
 4393SOL    HW115111   3.084   5.100   0.699  1.8611 -1.3980  0.3432
 4393SOL    HW215112   3.094   4.989   0.801 -1.4634 -2.0905  0.0285
 4394SOL     OW15113   8.108   2.374   3.764 -0.3691 -0.6908  0.2860
 4394SOL    HW115114   8.187   2.323   3.784 -1.0208 -1.5227  0.8119
 4394SOL    HW215115   8.048   2.311   3.726 -0.0599  0.3577 -2.0903
 4395SOL     OW15116   0.907   6.328   4.093 -0.0027 -0.5017  0.1251
 4395SOL    HW115117   0.814   6.340   4.073  0.5429  1.3939 -1.5968
 4395SOL    HW215118   0.916   6.356   4.184 -1.0308 -0.2193  0.1561
 4396SOL     OW15119   5.533   4.934   7.206 -0.3686  0.4039  0.7751
 4396SOL    HW115120   5.513   5.014   7.157  1.1580  0.0574 -0.4688
 4396SOL    HW215121   5.615   4.902   7.168  0.1111 -0.6679  2.6105
 4397SOL     OW15122   5.636   0.420   6.389 -0.2014 -0.1748  0.2447
 4397SOL    HW115123   5.550   0.433   6.349  0.1297 -0.8744 -0.7416
 4397SOL    HW215124   5.697   0.461   6.327  0.2732 -0.7362  0.3362
 4398SOL     OW15125   8.872   5.397   2.240 -0.3575 -0.1125  0.0428
 4398SOL    HW115126   8.829   5.344   2.308 -2.5184  0.1798 -0.9941
 4398SOL    HW215127   8.830   5.483   2.248  1.8227  0.9616  0.5329
 4399SOL     OW15128   2.968   5.684   2.998  0.3807  0.0944 -0.4002
 4399SOL    HW115129   2.909   5.757   3.017 -0.0943 -0.2066 -0.7042
 4399SOL    HW215130   2.925   5.637   2.926  1.0513 -0.0600 -0.7000
 4400SOL     OW15131   1.322   6.036   0.912  0.3798  0.1175  0.1287
 4400SOL    HW115132   1.232   6.064   0.925  0.9638  1.8196  0.8198
 4400SOL    HW215133   1.325   5.947   0.947 -1.4043 -0.6640 -1.5397
 4401SOL     OW15134   5.039   6.654   7.083  0.5703 -0.4755  0.1703
 4401SOL    HW115135   5.066   6.569   7.117  2.5543 -0.1678 -0.5159
 4401SOL    HW215136   4.973   6.634   7.016  0.9926 -1.4636  0.0392
 4402SOL     OW15137   4.207   6.140   6.374  0.0374  0.1243  0.4142
 4402SOL    HW115138   4.217   6.045   6.384 -0.9042  0.0225  0.4151
 4402SOL    HW215139   4.205   6.154   6.279 -2.4242 -0.1670  0.3622
 4403SOL     OW15140   5.456   8.278   8.260 -0.3424 -0.1971  0.0422
 4403SOL    HW115141   5.397   8.307   8.191 -0.9954 -0.3962  0.5091
 4403SOL    HW215142   5.428   8.325   8.338  0.1729 -0.2241  0.2481
 4404SOL     OW15143   8.017   7.457   5.769 -0.0147  0.2644  0.3789
 4404SOL    HW115144   8.096   7.505   5.795  0.9319 -1.0387 -0.0297
 4404SOL    HW215145   7.952   7.483   5.834  0.8537  1.0470  0.9697
 4405SOL     OW15146   8.163   1.297   7.814 -0.0985  0.2741 -0.1345
 4405SOL    HW115147   8.150   1.235   7.742  0.4463  0.7706 -0.6753
 4405SOL    HW215148   8.177   1.381   7.770  0.7780  0.4894  0.5407
 4406SOL     OW15149   8.131   3.329   2.692  0.0599 -0.3121  0.0609
 4406SOL    HW115150   8.113   3.237   2.675  1.1720 -0.3435 -1.0901
 4406SOL    HW215151   8.211   3.348   2.643  0.1026  1.1587  0.6279
 4407SOL     OW15152   7.569   3.351   6.740 -0.2142  0.1875 -0.2668
 4407SOL    HW115153   7.483   3.393   6.737  0.9086  2.6218 -1.1019
 4407SOL    HW215154   7.561   3.276   6.680 -1.6212  0.6019 -0.6391
 4408SOL     OW15155   3.630   8.233   5.128  0.1735 -0.0415  0.3591
 4408SOL    HW115156   3.640   8.145   5.092  2.2814  0.3868 -0.1985
 4408SOL    HW215157   3.538   8.236   5.157  0.0628 -2.4256  0.4720
 4409SOL     OW15158   7.223   3.283   5.068 -0.8882  0.5792  0.4761
 4409SOL    HW115159   7.253   3.312   5.154 -2.4044  0.6902  0.9929
 4409SOL    HW215160   7.250   3.354   5.009 -0.7098  0.9701  1.0175
 4410SOL     OW15161   5.585   1.545   1.475 -0.1378 -0.5023  0.2164
 4410SOL    HW115162   5.619   1.568   1.389 -0.3337 -1.3626 -0.0948
 4410SOL    HW215163   5.655   1.494   1.516 -0.1289 -0.2768  0.4901
 4411SOL     OW15164   5.734   3.150   1.832 -0.3745  0.1055 -0.6021
 4411SOL    HW115165   5.738   3.245   1.823 -2.2136  0.4254  1.2592
 4411SOL    HW215166   5.820   3.125   1.866 -0.2790  1.2483  0.0216
 4412SOL     OW15167   7.196   3.378   7.119  0.4846  0.2009 -0.0184
 4412SOL    HW115168   7.265   3.323   7.082  1.2102  0.6458  0.6705
 4412SOL    HW215169   7.133   3.387   7.047 -0.2700 -2.5174  0.1898
 4413SOL     OW15170   2.844   4.066   5.056  0.5744  0.1614 -0.0470
 4413SOL    HW115171   2.842   3.999   4.988  3.3372  0.0559 -0.1158
 4413SOL    HW215172   2.872   4.145   5.011  1.2609  0.3755  0.7337
 4414SOL     OW15173   2.857   2.836   2.396 -0.0238  0.4159 -0.5361
 4414SOL    HW115174   2.945   2.828   2.433 -0.0624 -2.0911 -0.8434
 4414SOL    HW215175   2.870   2.822   2.302 -0.8375 -1.0414 -0.4561
 4415SOL     OW15176   0.132   4.546   8.277  0.0503 -0.1192 -0.1525
 4415SOL    HW115177   0.047   4.503   8.270 -1.2117  2.2433 -0.2495
 4415SOL    HW215178   0.158   4.532   8.368 -0.4049 -0.9023 -0.1356
 4416SOL     OW15179   0.753   4.872   8.566  0.5598  0.2654 -0.0185
 4416SOL    HW115180   0.716   4.784   8.553  1.4559 -0.0566 -0.4604
 4416SOL    HW215181   0.722   4.898   8.653  1.5604 -1.1494  0.8133
 4417SOL     OW15182   5.441   0.941   1.712  0.7882  0.1607  0.5184
 4417SOL    HW115183   5.509   0.963   1.649  0.5469  0.1325  0.2451
 4417SOL    HW215184   5.366   0.994   1.686  0.9698  0.8338  1.3371
 4418SOL     OW15185   3.718   7.135   1.667 -0.9293  0.0531 -0.0822
 4418SOL    HW115186   3.690   7.216   1.626 -3.3207  0.0721  1.4508
 4418SOL    HW215187   3.789   7.103   1.610  0.8126  3.6499 -0.1837
 4419SOL     OW15188   0.516   2.905   6.867 -0.3405  0.3441 -0.0999
 4419SOL    HW115189   0.545   2.974   6.927 -2.8961  0.3907  1.1680
 4419SOL    HW215190   0.456   2.949   6.807  1.3371  0.0642 -2.1078
 4420SOL     OW15191   5.470   7.377   5.518  1.1263  0.6008 -0.0053
 4420SOL    HW115192   5.536   7.398   5.452  0.3567  1.4052 -0.5451
 4420SOL    HW215193   5.416   7.311   5.477  0.5580  1.2080 -0.2535
 4421SOL     OW15194   5.389   2.171   5.866  0.1808 -0.0416  0.1717
 4421SOL    HW115195   5.356   2.218   5.789 -1.2546 -1.1609  0.0708
 4421SOL    HW215196   5.396   2.237   5.934 -3.5817  0.0960  0.5947
 4422SOL     OW15197   1.544   5.299   6.348 -0.1498  0.6520  0.0874
 4422SOL    HW115198   1.618   5.358   6.332 -0.7545  0.8547 -2.4213
 4422SOL    HW215199   1.479   5.323   6.282 -1.4388 -1.1817  0.5986
 4423SOL     OW15200   4.966   3.296   8.714  0.3167  0.1183  0.1323
 4423SOL    HW115201   4.932   3.265   8.630 -1.0116  2.8387 -0.4532
 4423SOL    HW215202   4.999   3.384   8.695  0.6513  0.5073  2.3217
 4424SOL     OW15203   8.578   3.079   5.340 -0.3041  0.5585  0.2824
 4424SOL    HW115204   8.641   3.047   5.405 -0.4001  0.1977  0.2049
 4424SOL    HW215205   8.632   3.115   5.269 -0.1449 -0.5409 -0.1863
 4425SOL     OW15206   5.764   1.192   2.391 -0.5570  0.5059 -0.5792
 4425SOL    HW115207   5.762   1.099   2.369  0.2330  0.4876 -0.5915
 4425SOL    HW215208   5.848   1.205   2.435 -0.8531  1.1240 -0.1702
 4426SOL     OW15209   1.826   0.748   7.645 -0.3542 -0.0057 -0.4354
 4426SOL    HW115210   1.782   0.704   7.718  0.1138  0.0311 -0.1193
 4426SOL    HW215211   1.756   0.775   7.587 -0.6999 -0.4994 -0.2552
 4427SOL     OW15212   2.940   4.330   3.570 -0.2160  0.0780 -0.3139
 4427SOL    HW115213   2.870   4.342   3.634  0.2163 -1.3042  0.4485
 4427SOL    HW215214   2.940   4.411   3.520 -0.5782  1.2052  1.4205
 4428SOL     OW15215   4.930   5.887   0.953  0.0837  0.5117 -0.8436
 4428SOL    HW115216   4.956   5.901   1.044  0.7090  0.6489 -1.0378
 4428SOL    HW215217   4.863   5.953   0.936  0.3932  0.8763 -0.6559
 4429SOL     OW15218   5.750   3.072   4.202  0.4945  0.2803 -0.8767
 4429SOL    HW115219   5.693   3.087   4.127  0.5775  0.0521 -0.9856
 4429SOL    HW215220   5.808   3.002   4.174 -1.0991 -1.6191  0.2677
 4430SOL     OW15221   8.649   0.302   6.361  0.1582  0.3353  0.0014
 4430SOL    HW115222   8.691   0.238   6.303 -1.9394 -1.5050  0.3958
 4430SOL    HW215223   8.582   0.343   6.307 -0.6513 -0.1585  0.5930
 4431SOL     OW15224   3.230   3.981   4.955 -0.2635  0.6222  0.6070
 4431SOL    HW115225   3.309   3.996   4.903 -0.0478  1.6716  1.2057
 4431SOL    HW215226   3.247   4.028   5.037 -1.3540  0.5251  0.8938
 4432SOL     OW15227   4.150   3.580   3.573  0.0839 -0.5182  0.5227
 4432SOL    HW115228   4.197   3.564   3.491 -1.2935  0.9680 -0.5929
 4432SOL    HW215229   4.058   3.571   3.550 -0.4095  1.6568  1.4811
 4433SOL     OW15230   1.264   8.862   7.287 -1.0981  0.3633  0.4247
 4433SOL    HW115231   1.171   8.869   7.266 -0.5641 -0.8047 -2.8682
 4433SOL    HW215232   1.274   8.774   7.323 -1.0528 -0.1075 -0.7169
 4434SOL     OW15233   4.581   7.717   1.789 -0.0575 -0.2695 -0.0137
 4434SOL    HW115234   4.643   7.776   1.831  0.6078 -0.9723  0.0031
 4434SOL    HW215235   4.595   7.632   1.832 -2.6050  0.0199  1.6224
 4435SOL     OW15236   1.779   7.181   0.062 -0.1502  0.6060 -0.0278
 4435SOL    HW115237   1.867   7.218   0.072 -0.0268  1.2611 -2.6969
 4435SOL    HW215238   1.727   7.254   0.028 -1.5741  0.0080  0.7694
 4436SOL     OW15239   1.225   2.441   7.157 -0.1676  0.1886  0.6322
 4436SOL    HW115240   1.244   2.524   7.201 -1.1871 -0.0162  1.5181
 4436SOL    HW215241   1.302   2.387   7.173  0.2723  0.7689  0.5182
 4437SOL     OW15242   6.808   6.490   0.975  0.5205  0.1390  0.2712
 4437SOL    HW115243   6.826   6.512   1.066  0.5181  0.7322  0.1330
 4437SOL    HW215244   6.728   6.436   0.979  1.0792 -0.6723  0.6930
 4438SOL     OW15245   5.367   6.550   4.148  0.5736  0.1294 -0.3127
 4438SOL    HW115246   5.327   6.607   4.082  1.0538  0.3774 -0.4008
 4438SOL    HW215247   5.343   6.462   4.121 -0.1276  0.2856 -0.2114
 4439SOL     OW15248   8.788   8.324   0.360 -0.3076 -0.1348 -0.3039
 4439SOL    HW115249   8.843   8.331   0.282  0.1423 -1.0834 -0.0952
 4439SOL    HW215250   8.771   8.414   0.385  1.4870  0.2168 -0.1624
 4440SOL     OW15251   2.755   3.062   2.557  0.0695  0.4018  0.5256
 4440SOL    HW115252   2.782   2.993   2.497 -1.5781 -1.2535  1.5727
 4440SOL    HW215253   2.664   3.040   2.579  0.4927  1.1054  3.3698
 4441SOL     OW15254   7.839   4.670   3.978 -0.1726 -0.5646 -0.1869
 4441SOL    HW115255   7.760   4.678   3.924  1.0910  0.3549 -2.0155
 4441SOL    HW215256   7.887   4.596   3.939 -0.7415 -2.0628  1.8056
 4442SOL     OW15257   2.790   6.478   4.259 -0.2658  0.5364  0.3953
 4442SOL    HW115258   2.734   6.552   4.284  0.4564  0.4498  2.4504
 4442SOL    HW215259   2.773   6.411   4.326  0.7270 -0.3093 -0.1634
 4443SOL     OW15260   4.983   3.147   0.591 -0.9323 -0.1534  0.1261
 4443SOL    HW115261   5.039   3.070   0.606 -0.8713 -0.7819 -2.7143
 4443SOL    HW215262   5.012   3.211   0.656 -2.1640 -3.0071  3.8520
 4444SOL     OW15263   1.194   4.976   2.153 -0.4585  0.2153 -0.1142
 4444SOL    HW115264   1.252   4.921   2.101  0.7463  1.8403 -0.5642
 4444SOL    HW215265   1.251   5.047   2.185 -1.6350  0.4240  1.6316
 4445SOL     OW15266   6.341   7.352   7.698 -0.5054 -0.4087 -0.2189
 4445SOL    HW115267   6.269   7.342   7.636 -1.8686 -0.3119  1.2714
 4445SOL    HW215268   6.389   7.429   7.667 -0.5489 -0.9384 -1.6774
 4446SOL     OW15269   8.660   3.207   8.613  0.3547  0.0972 -0.2480
 4446SOL    HW115270   8.716   3.212   8.690  0.2577 -2.7025  0.1015
 4446SOL    HW215271   8.587   3.265   8.632  2.3254  2.7062 -0.0915
 4447SOL     OW15272   5.110   3.672   1.131 -0.0922 -0.1730  0.1476
 4447SOL    HW115273   5.151   3.759   1.136  0.8435 -0.5866 -0.0316
 4447SOL    HW215274   5.081   3.655   1.221 -1.0272  0.6582  0.0211
 4448SOL     OW15275   6.809   0.753   3.422  0.2299 -0.2818 -0.4074
 4448SOL    HW115276   6.884   0.714   3.467  0.5861  0.3285 -0.4566
 4448SOL    HW215277   6.818   0.847   3.438 -1.3470 -0.2981  0.8595
 4449SOL     OW15278   2.800   2.931   5.370  0.6408  0.2094 -0.8643
 4449SOL    HW115279   2.832   3.016   5.340  1.4008 -0.1061 -0.9827
 4449SOL    HW215280   2.777   2.884   5.289  1.2190 -0.0747 -0.8694
 4450SOL     OW15281   5.482   0.830   8.754 -0.1606  0.1592 -0.1485
 4450SOL    HW115282   5.439   0.789   8.679 -0.4823  2.3094 -1.1978
 4450SOL    HW215283   5.412   0.876   8.799  0.2617 -0.0994  0.7974
 4451SOL     OW15284   4.998   4.270   0.149  0.3200  0.1208  0.5554
 4451SOL    HW115285   4.955   4.347   0.185 -1.2842 -1.3020  1.9015
 4451SOL    HW215286   5.000   4.208   0.221  1.6443 -1.0913 -0.4542
 4452SOL     OW15287   3.744   7.549   4.448  0.0027 -0.4925 -0.9796
 4452SOL    HW115288   3.734   7.611   4.520 -1.2889 -1.6555 -0.1158
 4452SOL    HW215289   3.768   7.604   4.373  0.8429  0.8102  0.1735
 4453SOL     OW15290   3.066   2.894   4.575  0.1976 -0.0085  0.4161
 4453SOL    HW115291   2.974   2.902   4.552  0.2936  0.2952  0.1375
 4453SOL    HW215292   3.111   2.882   4.492  0.4981  0.6826  0.4727
 4454SOL     OW15293   7.102   0.209   5.702  0.2296 -0.2364  0.4072
 4454SOL    HW115294   7.011   0.183   5.715  0.6942 -1.6445  1.1240
 4454SOL    HW215295   7.108   0.231   5.609 -0.6037 -1.1570  0.1201
 4455SOL     OW15296   8.131   1.447   1.323  0.0357  0.3852 -0.2880
 4455SOL    HW115297   8.139   1.475   1.414 -0.3992  0.0438 -0.1431
 4455SOL    HW215298   8.171   1.360   1.321 -1.0952 -0.1434 -0.1510
 4456SOL     OW15299   3.303   5.492   3.299 -0.2945  0.0899  0.3257
 4456SOL    HW115300   3.246   5.505   3.223 -0.7615 -0.5934  0.5533
 4456SOL    HW215301   3.308   5.578   3.341 -0.0435  0.4658 -0.4660
 4457SOL     OW15302   8.595   4.265   0.851 -0.0253 -0.0284  0.4183
 4457SOL    HW115303   8.523   4.294   0.907 -0.7857  1.5828 -1.2752
 4457SOL    HW215304   8.633   4.346   0.818  1.7974 -0.8901  0.2816
 4458SOL     OW15305   4.646   7.113   3.193 -0.2369  0.1389  0.1293
 4458SOL    HW115306   4.717   7.155   3.146  0.0027  0.9116  1.1501
 4458SOL    HW215307   4.671   7.021   3.197  0.2358  0.2412 -0.3451
 4459SOL     OW15308   6.340   6.936   8.676  0.2198  0.6214  0.1222
 4459SOL    HW115309   6.296   7.018   8.655 -2.0063 -0.5211  0.0582
 4459SOL    HW215310   6.275   6.868   8.659  2.0624 -1.2063 -0.0547
 4460SOL     OW15311   0.967   0.814   6.921  0.2917  0.1297  0.2005
 4460SOL    HW115312   0.970   0.910   6.919 -0.5539  0.1911  0.8582
 4460SOL    HW215313   1.000   0.791   7.008 -0.0256 -0.1368  0.2550
 4461SOL     OW15314   2.457   5.546   2.733 -0.1188 -0.3844  0.0782
 4461SOL    HW115315   2.381   5.556   2.676  0.1697 -1.0451 -0.4468
 4461SOL    HW215316   2.525   5.599   2.692 -0.3221  0.2994  0.6106
 4462SOL     OW15317   6.903   5.523   7.581  0.3087 -0.0177  0.5269
 4462SOL    HW115318   6.934   5.582   7.513 -0.8851 -0.5476 -0.5220
 4462SOL    HW215319   6.981   5.477   7.610  0.8508  0.2518 -0.4591
 4463SOL     OW15320   1.461   1.884   2.685 -0.0537  0.5259 -0.0144
 4463SOL    HW115321   1.366   1.872   2.686 -0.2167  1.5605  1.5932
 4463SOL    HW215322   1.473   1.976   2.660  0.5352  0.3667 -0.3320
 4464SOL     OW15323   3.172   5.179   2.008  0.1939  0.2745  0.2994
 4464SOL    HW115324   3.129   5.264   2.006 -1.6068 -0.5902 -0.9540
 4464SOL    HW215325   3.108   5.121   2.049  0.2294 -1.0189 -1.3837
 4465SOL     OW15326   4.719   7.587   4.786 -0.0383 -0.6417  0.2625
 4465SOL    HW115327   4.742   7.495   4.777 -1.2992 -0.9465 -0.0145
 4465SOL    HW215328   4.793   7.635   4.750  0.2333 -1.5674 -0.4188
 4466SOL     OW15329   0.783   6.455   0.737  0.0314 -0.2254 -0.4683
 4466SOL    HW115330   0.742   6.541   0.734 -1.5263 -0.3751  5.0300
 4466SOL    HW215331   0.713   6.394   0.715 -0.5376 -0.1998  1.1701
 4467SOL     OW15332   2.124   2.267   0.679 -0.3577 -0.2325  0.4144
 4467SOL    HW115333   2.070   2.198   0.718  0.9149 -0.8924  1.0668
 4467SOL    HW215334   2.196   2.279   0.741  1.4671 -0.9557 -1.4504
 4468SOL     OW15335   4.449   3.367   3.400  0.7948  0.4135  0.5010
 4468SOL    HW115336   4.493   3.296   3.353  0.1276  0.5955 -0.4039
 4468SOL    HW215337   4.498   3.374   3.483  1.4230 -0.4947  0.2214
 4469SOL     OW15338   7.580   5.173   2.143  0.5345 -0.0655  0.4022
 4469SOL    HW115339   7.495   5.136   2.168  0.0772  0.5628 -0.1834
 4469SOL    HW215340   7.635   5.160   2.221  0.0850 -1.0052  0.5829
 4470SOL     OW15341   1.745   3.397   1.556 -1.0043 -0.3791 -0.4292
 4470SOL    HW115342   1.680   3.356   1.500  0.6306 -1.7439 -1.4294
 4470SOL    HW215343   1.764   3.332   1.624 -0.7424  0.0195 -0.1153
 4471SOL     OW15344   3.246   6.029   5.276  0.1705 -0.6034  0.2032
 4471SOL    HW115345   3.330   6.032   5.322 -0.7020 -0.1995  1.8164
 4471SOL    HW215346   3.208   6.116   5.290 -1.1951 -1.2768  0.7925
 4472SOL     OW15347   7.623   0.022   3.497 -0.1232  0.1144  0.8495
 4472SOL    HW115348   7.594  -0.025   3.418  0.8753 -1.0654  1.1516
 4472SOL    HW215349   7.668   0.100   3.464  0.1770 -0.3067  0.2488
 4473SOL     OW15350   7.048   0.390   1.541 -0.1779 -0.3814  0.0534
 4473SOL    HW115351   6.962   0.407   1.501 -0.1350 -0.0186  0.1090
 4473SOL    HW215352   7.068   0.299   1.518  1.8260  0.9400 -4.5416
 4474SOL     OW15353   0.398   3.452   3.246  0.5182 -0.4325 -0.4007
 4474SOL    HW115354   0.399   3.391   3.172  2.2575  0.2440 -0.9906
 4474SOL    HW215355   0.354   3.405   3.316  0.5054 -1.8016 -1.2991
 4475SOL     OW15356   5.848   4.193   6.206  0.1597 -0.5505  0.3718
 4475SOL    HW115357   5.841   4.109   6.161 -1.2687 -0.4602  0.3920
 4475SOL    HW215358   5.839   4.259   6.137  0.8129 -0.4094  0.4172
 4476SOL     OW15359   3.167   2.699   8.604  0.8181 -0.5905  0.0567
 4476SOL    HW115360   3.183   2.762   8.675  1.5225  1.6843 -1.9811
 4476SOL    HW215361   3.233   2.631   8.618  1.1572 -0.0321  1.3941
 4477SOL     OW15362   1.705   7.419   2.778 -0.7371 -0.1420  0.4482
 4477SOL    HW115363   1.722   7.344   2.721 -2.7888  0.4125 -1.0513
 4477SOL    HW215364   1.660   7.382   2.854  2.7785 -1.0084  2.3113
 4478SOL     OW15365   6.445   4.666   5.769  0.4691 -0.2837 -0.0736
 4478SOL    HW115366   6.523   4.610   5.770 -0.4883 -1.6781 -0.7595
 4478SOL    HW215367   6.373   4.606   5.751 -0.5644  1.2205 -1.1505
 4479SOL     OW15368   0.091   4.629   4.595 -0.2799  0.0716  0.2098
 4479SOL    HW115369   0.183   4.618   4.569 -0.5026  0.1995 -0.6520
 4479SOL    HW215370   0.076   4.562   4.661  0.1967 -0.4988 -0.2574
 4480SOL     OW15371   2.677   8.594   7.640 -0.4404  0.0281 -0.2837
 4480SOL    HW115372   2.757   8.640   7.667  0.3233 -1.4496  0.1094
 4480SOL    HW215373   2.681   8.511   7.687 -1.4250 -0.7235 -1.4685
 4481SOL     OW15374   4.159   0.407   2.203 -0.0055  0.3286  0.3177
 4481SOL    HW115375   4.152   0.421   2.297 -0.0154 -0.8130  0.4984
 4481SOL    HW215376   4.253   0.400   2.187 -0.0813 -1.6248  0.5914
 4482SOL     OW15377   4.951   2.525   4.937  0.0956 -0.4557 -0.0471
 4482SOL    HW115378   4.994   2.566   5.012 -1.4730  1.9050 -0.3329
 4482SOL    HW215379   4.870   2.488   4.972 -0.2065 -0.1547 -0.4216
 4483SOL     OW15380   2.376   5.830   4.636  0.0745  0.0936  0.7647
 4483SOL    HW115381   2.450   5.832   4.575 -0.3608  0.1293  0.2343
 4483SOL    HW215382   2.371   5.739   4.665 -0.6369 -0.2685 -0.4053
 4484SOL     OW15383   3.074   1.950   5.802 -0.1900 -0.5117  0.1919
 4484SOL    HW115384   3.027   1.880   5.757 -0.2045 -0.2774 -0.1535
 4484SOL    HW215385   3.026   2.029   5.781  0.1134 -0.3286  0.1815
 4485SOL     OW15386   1.928   7.884   4.736  0.9535  0.0044 -0.7151
 4485SOL    HW115387   1.976   7.860   4.656  0.4830 -1.2845 -0.6329
 4485SOL    HW215388   1.878   7.961   4.711 -0.4273 -1.2816 -2.2104
 4486SOL     OW15389   4.256   5.448   7.791  0.4272 -0.2410 -0.6659
 4486SOL    HW115390   4.225   5.524   7.741 -0.2911  0.3003  0.5513
 4486SOL    HW215391   4.189   5.381   7.776 -0.4312  0.3253  0.5072
 4487SOL     OW15392   8.541   6.340   2.340  0.3214  0.2537 -0.3971
 4487SOL    HW115393   8.574   6.428   2.320  0.3344  0.1298 -0.9428
 4487SOL    HW215394   8.457   6.355   2.383 -1.4937  0.5502 -3.6793
 4488SOL     OW15395   6.299   3.152   4.175 -0.0779  0.4114 -0.4634
 4488SOL    HW115396   6.359   3.181   4.107 -0.7740 -0.0616 -1.3169
 4488SOL    HW215397   6.335   3.068   4.205  0.1845  0.5785 -0.3124
 4489SOL     OW15398   5.755   6.961   0.311 -0.0773  0.3737 -0.2697
 4489SOL    HW115399   5.847   6.937   0.301  0.8313  3.4290 -0.2241
 4489SOL    HW215400   5.722   6.966   0.222 -0.2240 -0.6497 -0.2901
 4490SOL     OW15401   3.059   4.750   0.348 -0.1086 -0.0290 -0.3031
 4490SOL    HW115402   3.062   4.819   0.414  0.9555  0.7993 -1.1793
 4490SOL    HW215403   3.131   4.691   0.371 -1.4918 -1.3119  0.8945
 4491SOL     OW15404   7.449   8.562   0.636  0.1006 -0.6174 -0.0318
 4491SOL    HW115405   7.385   8.633   0.643  0.3287 -0.5070  1.1777
 4491SOL    HW215406   7.504   8.572   0.714  1.6331 -0.6862 -1.0613
 4492SOL     OW15407   6.283   4.797   5.265  0.3424  0.5814  0.2564
 4492SOL    HW115408   6.324   4.792   5.352  0.1178 -0.2915  0.3216
 4492SOL    HW215409   6.252   4.708   5.248 -0.6635  1.0057 -0.2132
 4493SOL     OW15410   1.598   2.378   8.194 -0.0869 -0.4030  0.2006
 4493SOL    HW115411   1.593   2.372   8.099  0.6771  0.5008  0.0855
 4493SOL    HW215412   1.615   2.471   8.211 -0.9992 -0.4117  1.2613
 4494SOL     OW15413   3.966   1.277   5.781 -0.1496 -0.3223 -0.8165
 4494SOL    HW115414   3.897   1.274   5.714  1.5634  0.4336 -2.7457
 4494SOL    HW215415   4.033   1.217   5.748  0.2961 -0.7418  0.8044
 4495SOL     OW15416   1.093   1.326   5.615  0.1841  0.2177 -0.2059
 4495SOL    HW115417   1.110   1.418   5.598 -0.1224  0.0883 -1.2853
 4495SOL    HW215418   1.053   1.293   5.534 -2.6079 -0.1459  1.1932
 4496SOL     OW15419   3.791   7.822   3.841 -0.6643 -0.3942  0.4142
 4496SOL    HW115420   3.731   7.754   3.810 -1.0169 -0.7990  1.8950
 4496SOL    HW215421   3.789   7.814   3.937  1.7347 -0.4200  0.5193
 4497SOL     OW15422   5.278   3.245   5.017 -0.8749  0.4170 -0.2865
 4497SOL    HW115423   5.261   3.329   5.060 -2.5724  0.0956 -0.2565
 4497SOL    HW215424   5.298   3.185   5.089 -0.1883  0.6597 -0.2655
 4498SOL     OW15425   2.714   5.636   7.622  0.0153 -0.2270 -0.2309
 4498SOL    HW115426   2.738   5.566   7.683 -0.2249 -0.1966 -0.1044
 4498SOL    HW215427   2.736   5.600   7.536 -1.5056 -1.0561 -0.3047
 4499SOL     OW15428   1.002   2.197   5.680 -0.1016  0.1907  0.0526
 4499SOL    HW115429   0.916   2.156   5.676  0.0177 -0.3493  1.8762
 4499SOL    HW215430   0.983   2.290   5.696 -0.3500  0.1622 -0.0760
 4500SOL     OW15431   5.690   1.906   5.302 -0.3426  0.0652 -0.5587
 4500SOL    HW115432   5.752   1.908   5.375 -0.7006  2.1758 -0.2643
 4500SOL    HW215433   5.636   1.984   5.313 -0.0579  0.7694 -3.3655
 4501SOL     OW15434   3.385   5.069   6.142  0.5106 -0.1613  0.0023
 4501SOL    HW115435   3.294   5.050   6.162  0.2192 -0.1920 -1.2643
 4501SOL    HW215436   3.391   5.061   6.047  1.5379  1.0993 -0.0712
 4502SOL     OW15437   8.828   8.755   2.028 -0.8511 -0.3675 -0.0293
 4502SOL    HW115438   8.748   8.772   1.978 -1.1206 -2.2914 -0.3171
 4502SOL    HW215439   8.800   8.696   2.098 -0.0316  0.4944  1.0572
 4503SOL     OW15440   5.215   1.649   7.668  0.1412 -0.0580  0.3960
 4503SOL    HW115441   5.284   1.623   7.607 -0.1777  1.1730 -0.5404
 4503SOL    HW215442   5.252   1.722   7.717 -0.1779  0.0297  0.5111
 4504SOL     OW15443   4.436   2.883   5.538  0.5699  0.0685 -0.0405
 4504SOL    HW115444   4.415   2.870   5.446  1.2413  0.2266 -0.2185
 4504SOL    HW215445   4.355   2.917   5.576  0.0217 -0.8088 -0.3854
 4505SOL     OW15446   7.321   5.038   7.090 -0.2888  0.2474  0.5676
 4505SOL    HW115447   7.351   5.039   6.999  1.6739 -1.4292  1.1107
 4505SOL    HW215448   7.297   4.946   7.107  0.2285  0.3383  1.9619
 4506SOL     OW15449   4.959   6.691   6.024  0.0178 -0.2518  0.2901
 4506SOL    HW115450   4.994   6.647   5.947  4.5522  4.0404 -0.5209
 4506SOL    HW215451   4.886   6.744   5.991 -1.9921 -2.7580  0.3411
 4507SOL     OW15452   0.167   1.840   1.966 -0.0270 -0.1030 -0.7761
 4507SOL    HW115453   0.128   1.919   2.003 -1.0800 -0.5576 -0.8655
 4507SOL    HW215454   0.201   1.792   2.042  2.2279  1.2127 -0.8520
 4508SOL     OW15455   6.766   0.068   7.523  0.1831 -0.2781  0.1156
 4508SOL    HW115456   6.743   0.145   7.471  0.4118 -0.3922 -0.1591
 4508SOL    HW215457   6.684   0.019   7.531  0.8015 -2.1235 -3.2293
 4509SOL     OW15458   1.228   5.038   0.575  0.6327  0.5912  0.4523
 4509SOL    HW115459   1.315   5.008   0.549  0.1445 -0.6189  0.1271
 4509SOL    HW215460   1.174   5.027   0.496 -0.5868 -1.9504  1.5173
 4510SOL     OW15461   0.671   3.365   3.725 -0.8122  0.3946 -0.3168
 4510SOL    HW115462   0.718   3.290   3.760  0.0457  0.4646 -1.2622
 4510SOL    HW215463   0.624   3.330   3.649 -0.4629  0.7921 -0.7226
 4511SOL     OW15464   5.063   0.149   1.764  0.7946  0.0559 -0.2188
 4511SOL    HW115465   5.115   0.139   1.844 -2.3745 -0.3526  1.9941
 4511SOL    HW215466   5.098   0.083   1.704  0.6891 -2.5939  2.4111
 4512SOL     OW15467   2.269   3.518   4.777  0.0657  0.3404  0.2102
 4512SOL    HW115468   2.304   3.602   4.747  3.2294 -1.5409 -1.8432
 4512SOL    HW215469   2.306   3.506   4.864  0.3180  0.6596  0.1466
 4513SOL     OW15470   5.189   2.585   8.336 -0.5034 -0.5766 -0.0559
 4513SOL    HW115471   5.274   2.557   8.369 -0.8857 -0.8372  0.7435
 4513SOL    HW215472   5.151   2.636   8.408 -0.3986  0.8312 -0.9623
 4514SOL     OW15473   2.056   4.735   5.935  0.1632  0.3221  0.1823
 4514SOL    HW115474   2.007   4.798   5.988 -0.3164 -0.9512  1.3123
 4514SOL    HW215475   2.054   4.771   5.846 -1.3617  1.1406  0.5245
 4515SOL     OW15476   1.057   5.979   3.917 -0.1867  0.3129 -0.3862
 4515SOL    HW115477   1.082   5.896   3.957  0.7284  0.4398 -0.6796
 4515SOL    HW215478   1.014   6.028   3.988 -1.5900 -0.7585 -0.4538
 4516SOL     OW15479   5.305   4.339   4.038  0.3116  0.2094  0.0138
 4516SOL    HW115480   5.363   4.288   3.981 -1.5066 -0.6365 -1.1826
 4516SOL    HW215481   5.292   4.284   4.115 -1.2065 -1.0034 -1.0321
 4517SOL     OW15482   6.370   2.764   1.699  0.5242 -0.2305  0.1182
 4517SOL    HW115483   6.319   2.768   1.618  2.1407 -2.7258 -1.1650
 4517SOL    HW215484   6.429   2.839   1.694 -0.2841  0.3906 -0.3352
 4518SOL     OW15485   0.129   2.685   8.223  0.0901 -0.4344 -0.0052
 4518SOL    HW115486   0.179   2.681   8.305 -0.7061  0.2175  0.5238
 4518SOL    HW215487   0.093   2.597   8.213  0.1252 -0.4954  0.3861
 4519SOL     OW15488   4.276   0.270   7.692  0.3884 -0.7628  0.1198
 4519SOL    HW115489   4.280   0.231   7.780 -1.4182 -1.8996 -0.2345
 4519SOL    HW215490   4.227   0.351   7.705 -0.4088 -1.2232  0.1167
 4520SOL     OW15491   0.581   6.717   0.152 -0.0168 -0.3957  0.1633
 4520SOL    HW115492   0.488   6.700   0.165 -0.4357  1.2891 -0.4821
 4520SOL    HW215493   0.611   6.754   0.235  0.0318 -0.6579  0.2665
 4521SOL     OW15494   4.689   2.169   3.465 -0.5269  0.1619 -0.1418
 4521SOL    HW115495   4.703   2.264   3.468  0.8734 -0.0259  0.7605
 4521SOL    HW215496   4.774   2.133   3.439 -0.6996 -0.8897  0.6496
 4522SOL     OW15497   0.925   1.858   5.626 -0.0732  0.2885 -0.2425
 4522SOL    HW115498   0.838   1.817   5.635  0.1806 -0.1823  0.1595
 4522SOL    HW215499   0.917   1.941   5.673  0.2426 -0.6368  1.5355
 4523SOL     OW15500   5.681   6.754   0.091  0.1188  0.1371  0.5849
 4523SOL    HW115501   5.759   6.748   0.035  0.1794  2.4692  0.2986
 4523SOL    HW215502   5.631   6.826   0.052 -2.7778 -1.9987  0.0905
 4524SOL     OW15503   3.662   2.751   1.571 -0.2648  0.1436 -0.0489
 4524SOL    HW115504   3.606   2.687   1.616  0.0768 -0.3698 -0.3391
 4524SOL    HW215505   3.601   2.814   1.534 -0.5458  0.6896  1.2863
 4525SOL     OW15506   5.301   4.047   5.061 -0.0238 -0.6381 -0.3680
 4525SOL    HW115507   5.277   3.956   5.077  0.5803 -1.0557 -1.6668
 4525SOL    HW215508   5.365   4.067   5.129 -0.5165 -1.0228  0.2156
 4526SOL     OW15509   1.679   5.025   4.779 -0.6692  0.2498  0.2356
 4526SOL    HW115510   1.630   4.957   4.733 -0.0091 -0.5209  0.6558
 4526SOL    HW215511   1.768   4.990   4.786 -0.0420  1.6194 -0.4991
 4527SOL     OW15512   1.477   7.569   7.844  0.0097 -0.5123  0.2914
 4527SOL    HW115513   1.510   7.643   7.894  0.0419 -0.0445 -0.4092
 4527SOL    HW215514   1.403   7.536   7.895  1.6267 -1.7065  2.0009
 4528SOL     OW15515   1.872   4.763   7.215  0.4598 -0.0438 -0.7739
 4528SOL    HW115516   1.886   4.754   7.121  1.7571 -1.1457 -0.5107
 4528SOL    HW215517   1.959   4.755   7.253 -0.0095  0.6858  0.5112
 4529SOL     OW15518   7.690   7.489   3.876 -0.1474 -0.1716  0.6463
 4529SOL    HW115519   7.744   7.479   3.954  0.4445 -0.1010  0.2485
 4529SOL    HW215520   7.749   7.469   3.803  0.3282  3.2081 -0.0429
 4530SOL     OW15521   5.927   8.078   5.212 -0.0975  0.2868  0.8674
 4530SOL    HW115522   5.943   8.149   5.275  0.7645  0.5538  0.3531
 4530SOL    HW215523   6.003   8.021   5.220  1.1022  1.4290 -1.4109
 4531SOL     OW15524   4.607   0.807   1.704 -0.3601 -0.6228 -0.3551
 4531SOL    HW115525   4.700   0.786   1.703  0.0643  0.6517  2.6583
 4531SOL    HW215526   4.567   0.739   1.757 -0.6323  0.3924  0.7791
 4532SOL     OW15527   5.353   8.715   4.263 -0.1873 -0.1567  0.2086
 4532SOL    HW115528   5.327   8.806   4.279 -0.1312 -0.2464  0.8686
 4532SOL    HW215529   5.419   8.698   4.330 -0.6927 -0.8929  0.5375
 4533SOL     OW15530   1.054   6.922   3.577  0.3819 -0.4199 -0.0193
 4533SOL    HW115531   1.136   6.903   3.531  0.3142 -1.0402  0.1023
 4533SOL    HW215532   1.032   7.011   3.552  0.7908 -0.4556 -0.5191
 4534SOL     OW15533   4.409   6.626   6.156  0.3584  0.5334 -0.1202
 4534SOL    HW115534   4.414   6.701   6.097 -0.8379  0.4384 -0.3592
 4534SOL    HW215535   4.481   6.569   6.128  1.2080  1.5143 -0.0129
 4535SOL     OW15536   7.738   1.676   0.070  0.0553  0.4604 -0.3070
 4535SOL    HW115537   7.723   1.625   0.150 -1.4109 -0.4503 -1.1223
 4535SOL    HW215538   7.787   1.753   0.100 -0.1164 -0.0495  1.4054
 4536SOL     OW15539   3.908   6.273   7.180  0.0761 -0.2797  0.4733
 4536SOL    HW115540   3.912   6.276   7.275 -1.6235  1.8691  0.5466
 4536SOL    HW215541   3.936   6.360   7.152 -0.7708 -0.4167 -0.8990
 4537SOL     OW15542   1.780   7.964   0.402  0.2885 -0.0710  0.0368
 4537SOL    HW115543   1.821   7.958   0.488  0.7054  1.9611  0.0291
 4537SOL    HW215544   1.829   8.033   0.357 -1.2488  0.3580 -1.0561
 4538SOL     OW15545   2.801   1.098   6.195  0.4053  0.7352  0.5901
 4538SOL    HW115546   2.723   1.049   6.170  0.7901 -0.0338  0.8685
 4538SOL    HW215547   2.829   1.059   6.278  1.7977  0.1552 -0.1160
 4539SOL     OW15548   5.689   5.186   8.192  0.3110 -0.3056 -0.6179
 4539SOL    HW115549   5.673   5.275   8.222 -2.3158 -1.1903  0.9420
 4539SOL    HW215550   5.606   5.141   8.205  1.8244 -3.2648 -0.3033
 4540SOL     OW15551   2.617   0.054   0.652  0.0343 -0.0401  0.4419
 4540SOL    HW115552   2.634  -0.001   0.576  1.5354  0.1657  0.5938
 4540SOL    HW215553   2.609  -0.007   0.725 -2.8474 -0.3638 -0.0140
 4541SOL     OW15554   7.937   6.889   0.894 -0.0276 -0.5834  0.2069
 4541SOL    HW115555   7.989   6.932   0.827  0.9302 -1.1308  0.5683
 4541SOL    HW215556   7.887   6.959   0.935  0.0589 -0.1182 -0.4783
 4542SOL     OW15557   5.321   7.614   7.125  0.1851 -0.4540  0.2379
 4542SOL    HW115558   5.261   7.592   7.196 -0.3551 -0.2847 -0.1588
 4542SOL    HW215559   5.373   7.687   7.159  0.0515 -0.4960  0.5301
 4543SOL     OW15560   5.604   2.242   2.369 -0.2674 -0.4030  0.1497
 4543SOL    HW115561   5.694   2.211   2.367 -0.3015 -0.6841  1.7203
 4543SOL    HW215562   5.591   2.274   2.459 -1.1040  1.5625 -0.6109
 4544SOL     OW15563   4.878   8.654   0.790  0.3310  0.5625  0.0817
 4544SOL    HW115564   4.944   8.598   0.749  1.2628  1.3858  0.3919
 4544SOL    HW215565   4.921   8.739   0.798 -0.1636  0.7015  1.8333
 4545SOL     OW15566   4.010   7.150   6.282 -0.3767  0.8102 -0.3861
 4545SOL    HW115567   3.947   7.222   6.277  0.8276  1.8497 -1.9839
 4545SOL    HW215568   4.094   7.193   6.293  0.3142 -0.3915 -0.7704
 4546SOL     OW15569   7.294   3.063   1.222 -0.2982 -0.1915  0.2686
 4546SOL    HW115570   7.217   3.033   1.270 -1.6101  0.1051 -1.5408
 4546SOL    HW215571   7.286   3.158   1.220 -0.6322 -0.2253 -1.0487
 4547SOL     OW15572   0.929   2.122   3.607 -0.3791  0.1818  0.1226
 4547SOL    HW115573   0.837   2.096   3.619 -1.1957  1.9859 -1.6323
 4547SOL    HW215574   0.971   2.045   3.568 -0.3210 -1.7388  3.5644
 4548SOL     OW15575   7.669   3.199   4.063 -0.3403 -0.2646 -0.0837
 4548SOL    HW115576   7.574   3.195   4.056 -0.4040 -0.3611  0.7042
 4548SOL    HW215577   7.692   3.125   4.119  0.0594  0.5781  0.9065
 4549SOL     OW15578   7.199   3.180   2.088 -0.3709 -0.1166  0.0627
 4549SOL    HW115579   7.152   3.099   2.070  1.6724 -1.0130 -1.7386
 4549SOL    HW215580   7.151   3.247   2.038  0.4166 -1.0970 -2.1558
 4550SOL     OW15581   4.446   2.840   0.356  0.2290  0.2089  1.3003
 4550SOL    HW115582   4.352   2.824   0.361 -0.0494  1.7190  1.3268
 4550SOL    HW215583   4.465   2.896   0.432  1.1917 -0.2506  1.4174
 4551SOL     OW15584   6.215   1.894   4.821  0.0849 -0.3298  0.0538
 4551SOL    HW115585   6.237   1.885   4.914 -0.2162  0.5754  0.2343
 4551SOL    HW215586   6.225   1.988   4.804 -0.7380 -0.3484 -0.5936
 4552SOL     OW15587   5.739   5.612   4.895 -0.3625  0.3862 -0.1710
 4552SOL    HW115588   5.730   5.605   4.800 -0.1932 -1.1134 -0.1004
 4552SOL    HW215589   5.707   5.528   4.929  0.0461  0.7002  1.0610
 4553SOL     OW15590   3.193   1.904   6.646 -0.6042  0.3745 -0.2292
 4553SOL    HW115591   3.177   1.888   6.553  0.2084 -0.0382 -0.3126
 4553SOL    HW215592   3.144   1.984   6.666 -1.5489 -0.0525 -0.7775
 4554SOL     OW15593   4.220   3.391   7.980  0.1348  0.0569  0.2081
 4554SOL    HW115594   4.292   3.434   8.026  1.9676  0.1866 -2.5606
 4554SOL    HW215595   4.238   3.297   7.990  1.0342  0.0913 -0.8923
 4555SOL     OW15596   7.777   8.569   3.837  0.0699  0.0276 -0.0171
 4555SOL    HW115597   7.711   8.608   3.779  0.1396 -0.5905 -0.5315
 4555SOL    HW215598   7.774   8.475   3.815 -2.0218 -0.7669  3.0303
 4556SOL     OW15599   2.505   8.366   3.370  0.4987 -0.5836 -0.3966
 4556SOL    HW115600   2.561   8.403   3.301  1.0704 -0.1422  0.2976
 4556SOL    HW215601   2.428   8.423   3.369  1.2238  0.4511  0.4264
 4557SOL     OW15602   6.145   2.979   5.689  0.0865 -0.0252 -0.2499
 4557SOL    HW115603   6.204   2.923   5.740 -0.0033  1.0566  1.1050
 4557SOL    HW215604   6.202   3.021   5.624  0.2965 -1.0192 -0.7348
 4558SOL     OW15605   8.721   0.624   3.649  0.0163 -0.4479 -0.3865
 4558SOL    HW115606   8.715   0.695   3.714  1.1823  0.6663 -1.4427
 4558SOL    HW215607   8.649   0.643   3.588  0.0007 -0.4832 -0.3788
 4559SOL     OW15608   6.745   2.327   2.873 -0.1298  0.2894  0.1697
 4559SOL    HW115609   6.838   2.350   2.872  0.0539 -0.4060  0.8360
 4559SOL    HW215610   6.725   2.314   2.965 -0.3657 -1.6712 -0.1316
 4560SOL     OW15611   6.646   2.033   7.180  0.4702  0.1925 -0.1565
 4560SOL    HW115612   6.659   1.941   7.201 -0.1274  0.3801  1.1311
 4560SOL    HW215613   6.727   2.059   7.135  1.8893 -0.2349  1.9992
 4561SOL     OW15614   2.405   4.937   5.691  0.0841  0.3336  0.0883
 4561SOL    HW115615   2.318   4.897   5.698  0.2524  0.1139  1.0936
 4561SOL    HW215616   2.464   4.864   5.676  0.1125  0.4732 -0.4926
 4562SOL     OW15617   0.888   1.745   0.183  0.4501  0.6544 -0.0917
 4562SOL    HW115618   0.946   1.747   0.107 -0.3409 -0.0262 -0.7422
 4562SOL    HW215619   0.888   1.653   0.210  0.5291  0.8479  0.5889
 4563SOL     OW15620   8.001   3.244   4.431  0.0380 -0.8241  0.4185
 4563SOL    HW115621   7.943   3.262   4.506 -0.3998 -1.5677  0.2579
 4563SOL    HW215622   7.947   3.262   4.354  0.6486  0.4684  0.2512
 4564SOL     OW15623   2.944   3.832   7.163  0.2513  0.2814  0.2404
 4564SOL    HW115624   2.945   3.739   7.185  2.1925  0.6460  1.9947
 4564SOL    HW215625   2.888   3.872   7.230  2.2461  0.7624  1.7187
 4565SOL     OW15626   4.573   0.507   6.781  0.4716  0.0009 -0.4231
 4565SOL    HW115627   4.523   0.577   6.739 -0.3598 -1.2869 -1.6838
 4565SOL    HW215628   4.507   0.444   6.810  1.1720 -0.0582  1.1528
 4566SOL     OW15629   4.783   6.808   2.174  0.0851  0.6452  0.1393
 4566SOL    HW115630   4.841   6.753   2.227 -0.7795 -0.3688  0.0682
 4566SOL    HW215631   4.796   6.896   2.208  0.2715  0.1581  1.3911
 4567SOL     OW15632   3.198   0.496   4.972  0.7708  0.1340  0.0371
 4567SOL    HW115633   3.228   0.430   4.910 -1.4105  1.4220 -2.6182
 4567SOL    HW215634   3.121   0.535   4.930  0.5832  2.7764  2.5124
 4568SOL     OW15635   5.101   3.412   1.558  0.7312  0.3552  0.0715
 4568SOL    HW115636   5.098   3.428   1.652  0.8916  0.1595  0.1123
 4568SOL    HW215637   5.195   3.407   1.538  0.6959 -0.1987  0.0087
 4569SOL     OW15638   5.380   8.269   6.243  0.2549  0.1008  0.0424
 4569SOL    HW115639   5.438   8.278   6.167 -1.6241  2.1518 -1.2716
 4569SOL    HW215640   5.418   8.326   6.310 -0.0270  1.1828 -0.6970
 4570SOL     OW15641   0.438   8.759   6.702  0.2873  0.0433 -0.4345
 4570SOL    HW115642   0.384   8.681   6.689  0.4846 -0.0446 -0.7178
 4570SOL    HW215643   0.483   8.771   6.619  1.6341 -0.5801  0.1836
 4571SOL     OW15644   0.192   0.150   1.919 -0.3116 -0.3899  0.1168
 4571SOL    HW115645   0.179   0.105   2.002  0.6075 -1.1122 -0.1153
 4571SOL    HW215646   0.279   0.124   1.890 -1.2097 -1.4730 -1.8649
 4572SOL     OW15647   5.835   7.619   4.752  0.1948 -0.5538  0.0141
 4572SOL    HW115648   5.876   7.693   4.707 -0.0399 -0.1977  0.3732
 4572SOL    HW215649   5.741   7.638   4.749  0.2379  0.1792  1.8085
 4573SOL     OW15650   7.030   3.764   1.961  0.3451 -0.6157 -0.4226
 4573SOL    HW115651   7.120   3.738   1.946  0.3732 -1.7178  1.4071
 4573SOL    HW215652   6.977   3.695   1.921  0.2586  0.2307 -1.8496
 4574SOL     OW15653   3.293   5.911   3.654 -0.1443  0.1557 -0.2344
 4574SOL    HW115654   3.270   6.003   3.645 -0.6357 -0.0881 -1.5718
 4574SOL    HW215655   3.383   5.913   3.687  0.1063  1.1186 -0.9278
 4575SOL     OW15656   2.926   8.434   8.527 -0.2888 -0.1151 -0.2591
 4575SOL    HW115657   2.927   8.525   8.498  0.0905  0.7557  2.2960
 4575SOL    HW215658   3.018   8.408   8.528 -0.3834 -0.5192 -0.8208
 4576SOL     OW15659   4.645   5.655   5.165  0.0970  0.7610 -0.2185
 4576SOL    HW115660   4.572   5.601   5.196 -0.8716  2.3835  0.4575
 4576SOL    HW215661   4.605   5.719   5.107  0.5751  2.9587  1.7084
 4577SOL     OW15662   5.632   5.709   4.537 -0.2078 -0.1251  0.2577
 4577SOL    HW115663   5.707   5.729   4.481 -1.4103  0.4648 -1.2137
 4577SOL    HW215664   5.613   5.792   4.581 -2.2681  0.8481 -2.2503
 4578SOL     OW15665   1.119   4.963   7.121  0.6349  0.0669 -0.0062
 4578SOL    HW115666   1.099   4.911   7.199 -1.7468  3.3751  1.8656
 4578SOL    HW215667   1.213   4.981   7.128  0.7811 -1.0217  1.2368
 4579SOL     OW15668   8.630   5.068   5.161 -0.2871 -0.3813 -0.7572
 4579SOL    HW115669   8.659   5.005   5.094 -1.6732 -0.8094 -0.9791
 4579SOL    HW215670   8.579   5.016   5.222  1.0148  0.0001  0.7173
 4580SOL     OW15671   4.254   2.368   1.497 -0.0193  0.1053  0.2016
 4580SOL    HW115672   4.321   2.389   1.561 -0.5540 -0.7372  1.0636
 4580SOL    HW215673   4.292   2.299   1.444 -0.3167 -0.6230  0.9153
 4581SOL     OW15674   7.263   8.301   1.064  0.4050 -0.1166 -0.1073
 4581SOL    HW115675   7.187   8.342   1.024  1.2734  0.7631 -0.9260
 4581SOL    HW215676   7.333   8.312   0.999  1.6286  0.4747  1.2434
 4582SOL     OW15677   2.409   0.590   7.723 -0.0491 -0.0695  0.6314
 4582SOL    HW115678   2.420   0.610   7.630  0.6629 -0.5747  0.6001
 4582SOL    HW215679   2.328   0.540   7.727  0.2940 -0.6727  0.1823
 4583SOL     OW15680   6.696   7.745   8.477  0.4320  0.0739 -0.0531
 4583SOL    HW115681   6.774   7.799   8.469 -0.3107  1.3903  1.1376
 4583SOL    HW215682   6.632   7.801   8.520 -0.9263 -1.2265 -0.2799
 4584SOL     OW15683   4.038   1.801   2.578 -0.0306  0.9971 -0.5150
 4584SOL    HW115684   4.001   1.713   2.580 -2.1294  1.8267  1.2678
 4584SOL    HW215685   4.086   1.808   2.661  0.2815  1.4904 -0.7309
 4585SOL     OW15686   0.171   7.017   1.373 -0.0737 -0.5682 -0.0562
 4585SOL    HW115687   0.098   6.956   1.381  1.2688 -2.2664 -0.2407
 4585SOL    HW215688   0.208   6.998   1.287  0.9928 -0.1989  0.3149
 4586SOL     OW15689   1.177   6.600   8.250  0.2546  1.3514 -0.0805
 4586SOL    HW115690   1.171   6.525   8.310  1.5274  1.3885  0.1321
 4586SOL    HW215691   1.091   6.642   8.255  0.4916  1.6855  2.1752
 4587SOL     OW15692   6.756   1.161   6.029 -0.6731  0.1629  0.1739
 4587SOL    HW115693   6.770   1.231   6.093 -0.6336 -0.6462  1.0632
 4587SOL    HW215694   6.802   1.191   5.950  0.8317  0.3515  1.0886
 4588SOL     OW15695   6.336   5.184   7.020 -0.1050 -0.8804 -0.3068
 4588SOL    HW115696   6.358   5.252   7.084  1.1130 -2.5541  1.1865
 4588SOL    HW215697   6.248   5.206   6.991 -0.9947 -0.3446  2.4578
 4589SOL     OW15698   1.890   2.037   7.579  0.6121 -0.3171  0.5682
 4589SOL    HW115699   1.949   2.044   7.504  1.1052  0.7561  1.0359
 4589SOL    HW215700   1.805   2.014   7.541  0.8330  0.3089 -0.3253
 4590SOL     OW15701   5.007   6.867   7.479 -0.0435  0.0670 -0.0163
 4590SOL    HW115702   5.078   6.854   7.415 -0.1967  0.1250 -0.2010
 4590SOL    HW215703   4.928   6.839   7.432 -0.1364 -0.0386  0.2041
 4591SOL     OW15704   6.553   7.078   4.731 -0.4789  0.1827 -0.0572
 4591SOL    HW115705   6.635   7.030   4.743  0.6288  1.6902 -1.1728
 4591SOL    HW215706   6.486   7.021   4.768  0.5261 -2.9607 -2.6236
 4592SOL     OW15707   3.440   1.312   5.242 -0.2900 -0.3845 -0.6555
 4592SOL    HW115708   3.358   1.289   5.199 -1.1915  0.4792  0.5238
 4592SOL    HW215709   3.413   1.353   5.325  1.3041 -4.6137  2.3297
 4593SOL     OW15710   4.770   6.995   0.258  0.0835  0.3030  0.5241
 4593SOL    HW115711   4.821   6.923   0.294 -0.7893  0.6914  2.7196
 4593SOL    HW215712   4.679   6.973   0.280 -0.2231  1.8748  0.9793
 4594SOL     OW15713   6.081   3.589   0.528 -0.0737  0.3752  0.3220
 4594SOL    HW115714   6.078   3.656   0.459  1.1602  0.2337  0.1005
 4594SOL    HW215715   6.049   3.634   0.606  0.4269  1.1471  0.0999
 4595SOL     OW15716   4.778   2.296   8.549 -0.0227  0.3383 -0.0547
 4595SOL    HW115717   4.725   2.269   8.624 -0.2907  2.2752  0.5151
 4595SOL    HW215718   4.778   2.392   8.553  0.9016  0.4598 -1.8893
 4596SOL     OW15719   8.799   8.800   2.803 -0.1539 -0.2200  0.0304
 4596SOL    HW115720   8.786   8.736   2.733  1.5561 -0.1193 -0.4159
 4596SOL    HW215721   8.841   8.874   2.760  0.3413  0.0927  1.0337
 4597SOL     OW15722   2.359   7.151   6.390  0.0654 -0.4594 -0.1363
 4597SOL    HW115723   2.340   7.151   6.484 -1.6551  0.3021 -0.4524
 4597SOL    HW215724   2.414   7.229   6.377 -1.5969  0.7847 -0.0624
 4598SOL     OW15725   5.660   7.528   2.862 -0.1269  0.1992 -0.3285
 4598SOL    HW115726   5.669   7.606   2.918  0.0685 -0.1082  0.0746
 4598SOL    HW215727   5.692   7.456   2.916 -1.9016 -0.4421 -0.0610
 4599SOL     OW15728   8.534   7.663   3.559 -0.3007 -0.3626  0.0145
 4599SOL    HW115729   8.530   7.673   3.464  1.0008 -1.3614 -0.1689
 4599SOL    HW215730   8.582   7.740   3.590  0.1941 -0.5548 -0.2602
 4600SOL     OW15731   0.069   6.157   2.502 -0.2381 -0.0511 -0.2586
 4600SOL    HW115732   0.073   6.251   2.486 -0.8572  0.1953  0.9608
 4600SOL    HW215733   0.095   6.118   2.418  0.0720  1.1913 -0.7683
 4601SOL     OW15734   7.358   3.669   1.625 -0.7025 -0.0664  0.4700
 4601SOL    HW115735   7.374   3.755   1.587  0.4714  0.1607  1.4108
 4601SOL    HW215736   7.263   3.665   1.639 -0.6174  1.7141  1.8611
 4602SOL     OW15737   8.696   3.981   7.132 -0.4509 -0.0021  0.6044
 4602SOL    HW115738   8.624   3.919   7.119  0.0406 -0.3222 -0.9017
 4602SOL    HW215739   8.721   3.971   7.224 -1.1618 -1.1790  0.6898
 4603SOL     OW15740   7.777   5.125   3.119 -0.2119 -0.2967  0.0095
 4603SOL    HW115741   7.871   5.129   3.100 -0.9147 -0.3444 -4.4052
 4603SOL    HW215742   7.753   5.034   3.102 -1.1589 -0.1786  0.6400
 4604SOL     OW15743   8.520   7.067   5.404 -0.2604 -0.0430 -0.5127
 4604SOL    HW115744   8.612   7.085   5.382 -0.2220 -0.5185 -0.7563
 4604SOL    HW215745   8.523   6.983   5.450 -0.2702  1.1683  1.8408
 4605SOL     OW15746   6.606   7.314   6.609 -0.3260  0.1512  0.2810
 4605SOL    HW115747   6.701   7.308   6.624 -0.2102 -1.4482 -0.8852
 4605SOL    HW215748   6.570   7.237   6.653 -1.1481  0.8624  0.9022
 4606SOL     OW15749   1.571   1.314   3.568 -0.1115 -0.4266  0.0350
 4606SOL    HW115750   1.503   1.380   3.553 -1.2400 -1.5583 -0.0008
 4606SOL    HW215751   1.584   1.315   3.663 -0.9892 -0.9820  0.1632
 4607SOL     OW15752   4.252   3.446   0.556  0.1593  0.5043 -0.1217
 4607SOL    HW115753   4.233   3.470   0.647  0.0219  0.1506 -0.0558
 4607SOL    HW215754   4.283   3.527   0.516 -0.2239  0.7743  0.1182
 4608SOL     OW15755   3.685   0.929   5.047 -0.2793  0.2987 -0.2951
 4608SOL    HW115756   3.682   1.001   5.109  0.7410  1.3130 -1.3658
 4608SOL    HW215757   3.770   0.888   5.062 -0.4649 -0.1021 -0.3249
 4609SOL     OW15758   1.874   0.320   1.447  0.5866  0.0819  0.4308
 4609SOL    HW115759   1.928   0.294   1.372 -0.1255 -0.2640  0.0315
 4609SOL    HW215760   1.878   0.416   1.448 -1.0702  0.2267 -1.3340
 4610SOL     OW15761   5.837   3.404   4.823 -0.0956  0.1840  0.0039
 4610SOL    HW115762   5.874   3.491   4.837 -0.4187  0.4599 -0.8240
 4610SOL    HW215763   5.825   3.398   4.728 -1.1865 -0.3054  0.1625
 4611SOL     OW15764   6.309   4.570   1.584 -0.3751 -0.5584  0.0180
 4611SOL    HW115765   6.392   4.534   1.554  0.6032  0.6181  1.1810
 4611SOL    HW215766   6.307   4.551   1.678 -1.4845 -0.6949 -0.0212
 4612SOL     OW15767   1.530   4.816   4.666 -0.2583 -1.5144  0.1351
 4612SOL    HW115768   1.499   4.751   4.729  1.0787 -1.9348  0.3963
 4612SOL    HW215769   1.493   4.787   4.582 -2.5586 -0.5984  0.7795
 4613SOL     OW15770   4.657   7.794   7.693  0.1026  1.2955  0.2976
 4613SOL    HW115771   4.683   7.884   7.672  1.4291  0.1792 -3.7323
 4613SOL    HW215772   4.737   7.754   7.727  0.0322  1.1903  0.3393
 4614SOL     OW15773   6.705   3.472   3.912  0.0058  0.0874 -0.3310
 4614SOL    HW115774   6.670   3.551   3.953  1.6260  0.5794  0.1502
 4614SOL    HW215775   6.727   3.498   3.822  0.0238  0.0163 -0.3478
 4615SOL     OW15776   2.449   5.094   4.457  0.1054  0.2364  0.2536
 4615SOL    HW115777   2.528   5.059   4.496  0.5725 -1.6321 -2.1263
 4615SOL    HW215778   2.476   5.124   4.370 -1.6743  0.0628 -0.4064
 4616SOL     OW15779   7.164   6.855   4.493  0.4192  0.7096 -0.4182
 4616SOL    HW115780   7.241   6.830   4.543  0.3492  2.1599  0.4895
 4616SOL    HW215781   7.155   6.949   4.508  0.7306  1.3999 -3.6498
 4617SOL     OW15782   4.255   8.064   2.960  0.4382  0.2349  0.3710
 4617SOL    HW115783   4.189   8.085   2.894  1.0753  2.2370  0.2829
 4617SOL    HW215784   4.315   8.004   2.917  0.1687  0.5532 -0.4632
 4618SOL     OW15785   5.199   1.662   8.088  0.1846  0.5099 -0.3266
 4618SOL    HW115786   5.210   1.572   8.057 -0.3719  0.5740 -0.7353
 4618SOL    HW215787   5.216   1.716   8.011  0.5735  0.7586 -0.0676
 4619SOL     OW15788   6.006   6.124   7.677  0.8429 -0.3214 -0.4610
 4619SOL    HW115789   5.955   6.050   7.645 -0.3217  1.3319 -2.6640
 4619SOL    HW215790   6.097   6.102   7.654  0.6081 -1.3265 -0.4713
 4620SOL     OW15791   7.349   4.953   1.148 -0.0702 -0.0697  0.2019
 4620SOL    HW115792   7.346   4.862   1.121 -1.3685 -0.1701  0.6013
 4620SOL    HW215793   7.342   4.950   1.244 -0.5682  0.4620  0.1865
 4621SOL     OW15794   7.380   7.769   4.557 -0.6386  0.2936  0.0118
 4621SOL    HW115795   7.423   7.710   4.618  1.5956  0.8672 -0.8831
 4621SOL    HW215796   7.439   7.772   4.481 -1.4751  2.4100 -0.6307
 4622SOL     OW15797   4.096   4.518   3.219 -0.9578  0.3446  0.1238
 4622SOL    HW115798   4.056   4.605   3.224  0.6496  1.0351  2.6396
 4622SOL    HW215799   4.147   4.520   3.138  0.0058  2.2219  0.7155
 4623SOL     OW15800   1.656   1.485   4.706 -0.7204  0.2414 -0.1257
 4623SOL    HW115801   1.564   1.478   4.680 -0.4560  2.0061 -1.6709
 4623SOL    HW215802   1.689   1.395   4.701 -2.6659 -0.7180  1.9294
 4624SOL     OW15803   8.226   0.230   8.793 -0.3632 -0.0203 -0.0726
 4624SOL    HW115804   8.157   0.248   8.857 -0.4391  0.3751 -0.2654
 4624SOL    HW215805   8.289   0.300   8.805  0.5603 -0.9724  0.8518
 4625SOL     OW15806   8.110   0.649   5.857 -0.2043  0.1668 -0.4967
 4625SOL    HW115807   8.064   0.576   5.897 -0.9646  0.0953 -1.4485
 4625SOL    HW215808   8.054   0.674   5.783  0.8641  0.6387 -1.1653
 4626SOL     OW15809   5.236   2.928   2.738 -0.1666  0.2445 -0.1083
 4626SOL    HW115810   5.189   2.891   2.664  1.1521 -0.5059 -0.6017
 4626SOL    HW215811   5.263   3.015   2.707  0.2061  0.0145 -0.4324
 4627SOL     OW15812   2.745   3.223   3.191 -0.1705  0.4270  0.4188
 4627SOL    HW115813   2.687   3.273   3.134 -2.8112 -0.0996  2.4402
 4627SOL    HW215814   2.788   3.289   3.246 -0.3174  0.7083  0.1980
 4628SOL     OW15815   6.127   6.533   6.692 -0.1587  0.0091  0.2629
 4628SOL    HW115816   6.158   6.609   6.741  1.9943  0.0638 -1.0302
 4628SOL    HW215817   6.141   6.458   6.751 -0.4188  0.3866  0.8105
 4629SOL     OW15818   6.751   1.691   4.714  0.0814  0.2611  0.3780
 4629SOL    HW115819   6.727   1.761   4.773 -0.2117  0.9627 -0.5531
 4629SOL    HW215820   6.702   1.615   4.745  1.4699  0.0573  2.2551
 4630SOL     OW15821   8.839   4.473   3.300  0.7999 -0.4639 -0.5755
 4630SOL    HW115822   8.813   4.525   3.377  1.3944 -1.4426  0.3052
 4630SOL    HW215823   8.845   4.538   3.229  0.5055  0.5061  0.2530
 4631SOL     OW15824   3.482   2.310   6.599 -0.4144  0.2115  0.0155
 4631SOL    HW115825   3.487   2.404   6.612 -2.5764  0.4055 -0.1713
 4631SOL    HW215826   3.491   2.273   6.687  3.7510  0.2709 -0.1858
 4632SOL     OW15827   3.134   6.392   1.437  0.0528  0.3313  0.3659
 4632SOL    HW115828   3.211   6.336   1.447 -0.2381 -0.0058  0.7720
 4632SOL    HW215829   3.168   6.474   1.402  0.3160 -0.5259 -1.5102
 4633SOL     OW15830   4.970   7.010   1.757  0.3584 -0.1494  0.1628
 4633SOL    HW115831   4.919   7.089   1.771  0.4654 -0.3592  1.9067
 4633SOL    HW215832   4.924   6.942   1.805 -0.4927 -1.5224 -2.3994
 4634SOL     OW15833   6.201   7.189   4.105  0.5501  0.1581 -0.0627
 4634SOL    HW115834   6.128   7.156   4.053  0.9589  0.5153 -0.8896
 4634SOL    HW215835   6.178   7.169   4.195 -0.8279  0.7826 -0.2646
 4635SOL     OW15836   1.389   4.079   6.907 -0.1041 -0.4027  0.4042
 4635SOL    HW115837   1.428   4.160   6.873  2.6768 -0.8248  2.2799
 4635SOL    HW215838   1.295   4.097   6.911  0.3930  2.6336  0.4967
 4636SOL     OW15839   6.446   4.081   4.443 -0.1659  0.4423  0.1386
 4636SOL    HW115840   6.486   4.017   4.502  0.1163 -0.0769 -0.5869
 4636SOL    HW215841   6.358   4.048   4.428  0.3938 -0.5112 -1.2469
 4637SOL     OW15842   2.146   3.993   6.960 -0.3943 -0.3497  0.4730
 4637SOL    HW115843   2.123   3.938   7.036 -0.7190 -0.4421  0.3074
 4637SOL    HW215844   2.101   3.952   6.887 -1.1347  0.4957  0.4481
 4638SOL     OW15845   2.720   0.774   4.741  0.7580 -0.0670 -0.1943
 4638SOL    HW115846   2.761   0.833   4.805 -0.5042 -1.2423  1.8251
 4638SOL    HW215847   2.718   0.825   4.660  1.7685  1.7926  0.8583
 4639SOL     OW15848   6.549   8.539   3.894 -0.1186  0.0427  0.1329
 4639SOL    HW115849   6.590   8.603   3.952  0.7834  0.2225 -0.6719
 4639SOL    HW215850   6.606   8.462   3.898 -0.7298 -0.3985  0.4356
 4640SOL     OW15851   3.219   1.715   2.240  0.3878  0.5587  0.0494
 4640SOL    HW115852   3.216   1.669   2.324 -2.3336 -1.0062 -0.7962
 4640SOL    HW215853   3.132   1.751   2.228  0.6974  0.7190 -2.1255
 4641SOL     OW15854   5.299   3.378   7.511  0.1223 -0.1146  0.3904
 4641SOL    HW115855   5.258   3.318   7.449 -0.2561  0.8911 -0.3649
 4641SOL    HW215856   5.380   3.406   7.469 -0.7978  1.6453 -0.3327
 4642SOL     OW15857   5.596   6.803   1.943 -0.3023  0.1421 -0.1989
 4642SOL    HW115858   5.601   6.708   1.958  1.9415  0.2789  0.1904
 4642SOL    HW215859   5.541   6.835   2.015  2.3800 -0.4088  2.2705
 4643SOL     OW15860   5.669   2.620   4.954  0.1064  0.7378 -0.2495
 4643SOL    HW115861   5.740   2.673   4.991  0.9504 -0.7625  0.3397
 4643SOL    HW215862   5.713   2.551   4.904 -0.8994 -0.6380  0.6924
 4644SOL     OW15863   5.870   6.047   3.602  0.2641 -0.4552 -0.2117
 4644SOL    HW115864   5.826   5.965   3.623  2.0001 -0.9123  2.0123
 4644SOL    HW215865   5.903   6.034   3.513 -1.3912 -1.2437 -0.7581
 4645SOL     OW15866   4.498   4.088   2.171 -0.1086  0.2529  0.6540
 4645SOL    HW115867   4.497   4.184   2.168 -0.1427  0.2484  0.5567
 4645SOL    HW215868   4.430   4.066   2.235  1.5948  0.3893  2.6268
 4646SOL     OW15869   6.093   8.234   2.368 -0.0776 -0.0308  0.1793
 4646SOL    HW115870   6.045   8.299   2.316  1.2127  0.2216 -0.7423
 4646SOL    HW215871   6.049   8.152   2.349 -0.3736  0.2469 -0.3741
 4647SOL     OW15872   8.758   6.459   7.855 -0.1352 -0.5748 -0.7905
 4647SOL    HW115873   8.665   6.441   7.871  0.3931 -2.3306  0.5898
 4647SOL    HW215874   8.785   6.392   7.792  0.1829  0.0148 -1.2968
 4648SOL     OW15875   0.882   3.359   0.735 -0.4001  0.3593 -0.2369
 4648SOL    HW115876   0.953   3.417   0.763 -0.3357  0.2837 -0.2443
 4648SOL    HW215877   0.803   3.407   0.757 -0.3482  0.9112 -1.1968
 4649SOL     OW15878   7.658   8.396   0.514  0.1544 -0.6081 -0.2755
 4649SOL    HW115879   7.611   8.468   0.558 -0.5995 -1.9907  1.3059
 4649SOL    HW215880   7.718   8.363   0.581 -1.6693 -3.3845  0.1453
 4650SOL     OW15881   1.689   0.684   7.405 -0.4081  0.2847 -0.7832
 4650SOL    HW115882   1.658   0.743   7.336 -1.6769  1.9814  1.1439
 4650SOL    HW215883   1.612   0.668   7.460  0.7162 -0.4735  0.6492
 4651SOL     OW15884   4.371   6.523   3.391  0.4908 -0.0122  0.2927
 4651SOL    HW115885   4.285   6.516   3.433  0.9334  0.5007  1.3153
 4651SOL    HW215886   4.372   6.611   3.354  0.0071 -0.5429 -1.0667
 4652SOL     OW15887   8.627   2.199   4.166  0.0635  0.0487  0.2478
 4652SOL    HW115888   8.683   2.257   4.218 -0.7504  0.4395  0.7078
 4652SOL    HW215889   8.542   2.244   4.163 -0.0620 -0.2185 -0.9793
 4653SOL     OW15890   8.122   0.916   3.615  0.4848  0.1716  0.2249
 4653SOL    HW115891   8.201   0.964   3.635  1.4024 -1.4064  0.5919
 4653SOL    HW215892   8.057   0.948   3.678  1.6251 -0.4475  1.7798
 4654SOL     OW15893   5.300   0.125   3.727 -0.8664  0.4763  0.4228
 4654SOL    HW115894   5.364   0.103   3.659 -1.1606  1.1505 -0.0811
 4654SOL    HW215895   5.215   0.109   3.685 -1.0569  1.3897  0.4599
 4655SOL     OW15896   4.133   2.501   1.848 -0.2075 -0.3930  0.1538
 4655SOL    HW115897   4.070   2.450   1.797 -1.0482 -0.4100  1.1757
 4655SOL    HW215898   4.096   2.589   1.851 -0.1684 -0.3932  0.7283
 4656SOL     OW15899   0.372   0.537   3.492 -0.0259 -0.5704 -0.0673
 4656SOL    HW115900   0.376   0.568   3.402 -1.3415  0.1613  0.0987
 4656SOL    HW215901   0.279   0.541   3.515  0.4882  1.7952  2.1838
 4657SOL     OW15902   5.612   7.901   3.856  0.2201  0.3403 -0.3729
 4657SOL    HW115903   5.670   7.931   3.926  0.1592 -0.6116  0.0989
 4657SOL    HW215904   5.545   7.849   3.901 -0.2341  0.3147 -1.0608
 4658SOL     OW15905   5.397   8.678   1.772 -0.4560  0.6287  0.4424
 4658SOL    HW115906   5.338   8.653   1.843 -0.5717  2.7107  1.1413
 4658SOL    HW215907   5.366   8.627   1.697 -0.8953 -0.9433  1.6330
 4659SOL     OW15908   4.690   4.233   6.230  0.3660  0.0986 -0.5002
 4659SOL    HW115909   4.759   4.173   6.203  0.8041 -0.4365  1.5997
 4659SOL    HW215910   4.736   4.306   6.272 -0.2820 -1.0632  2.4719
 4660SOL     OW15911   8.019   1.813   2.517 -0.0479  0.3743  0.6033
 4660SOL    HW115912   8.097   1.792   2.467  0.2396  0.5452  0.9788
 4660SOL    HW215913   8.051   1.851   2.599 -0.4474 -1.8726  1.8746
 4661SOL     OW15914   5.810   2.413   4.806 -0.2984 -0.4213  0.5201
 4661SOL    HW115915   5.778   2.338   4.856  1.0298 -0.9903  0.5485
 4661SOL    HW215916   5.823   2.379   4.718  0.1611 -0.1876  0.4968
 4662SOL     OW15917   1.981   3.354   8.637 -0.4224 -0.2291  0.1018
 4662SOL    HW115918   2.063   3.329   8.680 -0.2334 -0.3689 -0.3434
 4662SOL    HW215919   1.938   3.410   8.701  0.1061  0.0022  0.2656
 4663SOL     OW15920   6.481   3.041   8.420 -0.1974 -0.2067  0.6482
 4663SOL    HW115921   6.412   3.105   8.439 -0.6342 -0.8505  1.3328
 4663SOL    HW215922   6.451   2.961   8.464  2.1408  0.1205  3.0411
 4664SOL     OW15923   2.539   7.887   7.449 -0.2841  0.1985 -0.2127
 4664SOL    HW115924   2.552   7.797   7.479 -3.9410 -0.6471 -0.7316
 4664SOL    HW215925   2.592   7.894   7.370  0.2601 -1.4109 -0.0242
 4665SOL     OW15926   4.934   5.135   3.656  0.4989  0.1294  0.1483
 4665SOL    HW115927   4.971   5.220   3.633  0.4948 -0.0272 -0.4732
 4665SOL    HW215928   4.911   5.142   3.749  0.4527  0.8181  0.0879
 4666SOL     OW15929   3.493   1.994   1.711  0.2461 -0.1884  0.0561
 4666SOL    HW115930   3.558   1.965   1.647 -0.4499 -1.5229 -0.0820
 4666SOL    HW215931   3.472   2.083   1.685 -0.3526 -0.8412 -1.8902
 4667SOL     OW15932   0.315   6.186   3.885 -0.4514  0.2719 -0.0351
 4667SOL    HW115933   0.373   6.231   3.946  0.6055  1.7583 -2.0069
 4667SOL    HW215934   0.259   6.131   3.941  2.2116 -0.5760  2.0409
 4668SOL     OW15935   2.273   2.097   7.412  0.2462 -0.0371 -0.2432
 4668SOL    HW115936   2.190   2.068   7.374  0.0635  0.8806 -0.5655
 4668SOL    HW215937   2.325   2.016   7.422 -0.7415 -0.6431  0.1372
 4669SOL     OW15938   6.431   1.855   7.800 -0.3864  0.1294 -0.1447
 4669SOL    HW115939   6.395   1.807   7.726  0.2448  1.5914 -1.4706
 4669SOL    HW215940   6.407   1.946   7.784  1.5720  0.7783  0.3200
 4670SOL     OW15941   3.208   3.033   2.151  0.3380 -0.0846 -0.1068
 4670SOL    HW115942   3.131   3.076   2.187 -0.6461 -0.4852 -1.6132
 4670SOL    HW215943   3.259   3.104   2.112  0.2657  0.0752  0.0908
 4671SOL     OW15944   1.252   6.563   3.426 -0.1068  0.3800  0.8925
 4671SOL    HW115945   1.294   6.481   3.453 -0.0508  0.2790  0.5078
 4671SOL    HW215946   1.199   6.589   3.501 -1.4897 -0.9228  0.4199
 4672SOL     OW15947   5.091   2.764   7.659  0.4092 -0.0880 -0.1579
 4672SOL    HW115948   5.032   2.688   7.662 -0.3014  0.3200 -2.3124
 4672SOL    HW215949   5.164   2.735   7.605  1.4870 -0.0783  1.2394
 4673SOL     OW15950   7.268   0.802   2.503  0.5187 -0.0150 -0.4150
 4673SOL    HW115951   7.196   0.851   2.544  1.6542  1.3990 -0.0056
 4673SOL    HW215952   7.277   0.842   2.417  1.7446  0.8528  0.0876
 4674SOL     OW15953   5.243   0.722   2.280 -0.1981  0.0156 -0.2814
 4674SOL    HW115954   5.199   0.801   2.247 -0.2288 -0.3954 -1.2708
 4674SOL    HW215955   5.174   0.671   2.322  0.0512  1.0847  1.5429
 4675SOL     OW15956   7.173   8.080   8.424  0.4791  0.2473 -0.0960
 4675SOL    HW115957   7.243   8.102   8.485  0.0932 -0.1055  0.4759
 4675SOL    HW215958   7.139   8.165   8.395  2.3368  0.5024 -1.8169
 4676SOL     OW15959   2.588   0.002   8.403 -0.6199  0.8801 -0.1521
 4676SOL    HW115960   2.649  -0.037   8.465  0.0584  0.4929 -1.0415
 4676SOL    HW215961   2.644   0.044   8.338 -1.1847 -1.3833 -2.2346
 4677SOL     OW15962   6.546   7.610   0.807 -0.5201 -0.0167 -0.3760
 4677SOL    HW115963   6.538   7.602   0.713 -0.0606 -1.4620 -0.3130
 4677SOL    HW215964   6.571   7.523   0.837 -1.3718  0.2253  1.1655
 4678SOL     OW15965   0.622   6.523   8.292 -0.0036 -0.2881 -0.5781
 4678SOL    HW115966   0.585   6.514   8.380 -0.3521 -0.5522 -0.7460
 4678SOL    HW215967   0.559   6.577   8.245 -0.1739 -0.7232 -0.8605
 4679SOL     OW15968   3.447   0.606   0.849  0.3281 -0.3121  0.2189
 4679SOL    HW115969   3.513   0.673   0.865  0.1321 -0.0191 -0.1801
 4679SOL    HW215970   3.394   0.604   0.929 -0.8409  1.3584 -0.4660
 4680SOL     OW15971   2.840   6.361   7.911  0.0960 -0.5215 -0.1565
 4680SOL    HW115972   2.811   6.316   7.990 -1.4513 -0.7085 -0.7856
 4680SOL    HW215973   2.832   6.454   7.931 -0.8162 -0.5720 -0.2610
 4681SOL     OW15974   3.240   7.297   6.269  0.7632 -0.1692 -0.2998
 4681SOL    HW115975   3.236   7.264   6.359 -0.8357  1.0090  0.1074
 4681SOL    HW215976   3.267   7.222   6.217 -1.8089 -1.9193  0.7013
 4682SOL     OW15977   8.267   7.370   6.082  0.0537  0.0740 -0.4725
 4682SOL    HW115978   8.229   7.446   6.126  0.4774 -0.4307  0.7971
 4682SOL    HW215979   8.311   7.407   6.005  0.4103  1.1448  0.2214
 4683SOL     OW15980   4.554   0.684   0.055  0.0883  0.3230 -0.0750
 4683SOL    HW115981   4.520   0.705  -0.032  0.3607  1.6724  0.1301
 4683SOL    HW215982   4.648   0.701   0.048  0.4560 -1.4519 -0.0546
 4684SOL     OW15983   3.311   0.144   3.975  0.1219 -0.1070  0.3039
 4684SOL    HW115984   3.299   0.052   3.996  0.8931  0.0025  1.2880
 4684SOL    HW215985   3.403   0.152   3.951  0.2933  0.5645  1.1392
 4685SOL     OW15986   2.228   6.255   1.312  0.0463  0.1702  0.5620
 4685SOL    HW115987   2.159   6.252   1.379  0.7417 -2.1893  1.2785
 4685SOL    HW215988   2.309   6.245   1.361  0.7593  0.7943 -0.4601
 4686SOL     OW15989   4.799   6.721   4.022 -0.1920  0.0789  0.0505
 4686SOL    HW115990   4.843   6.741   3.939  0.1245  0.3807  0.2872
 4686SOL    HW215991   4.750   6.641   4.005 -0.2409  0.2171 -0.4711
 4687SOL     OW15992   4.651   3.338   5.268 -0.2045  0.1583 -0.3256
 4687SOL    HW115993   4.734   3.368   5.306 -0.9546  1.1926  0.5584
 4687SOL    HW215994   4.625   3.408   5.208 -1.5415  0.9793  1.1147
 4688SOL     OW15995   3.019   2.062   1.031 -0.3016  0.3348 -0.3115
 4688SOL    HW115996   3.038   2.156   1.032  2.4481 -0.0768 -2.0535
 4688SOL    HW215997   2.924   2.056   1.044 -0.2667  3.1763  2.1427
 4689SOL     OW15998   4.738   7.195   1.403  0.8597  0.1233 -0.0483
 4689SOL    HW115999   4.789   7.114   1.400  0.6413  0.0054 -0.8876
 4689SOL    HW216000   4.804   7.265   1.409  1.0194 -0.1429  2.0682
 4690SOL     OW16001   8.563   5.918   4.023 -0.1839  0.0966  0.1033
 4690SOL    HW116002   8.604   5.833   4.042 -0.2468 -0.3046 -1.4263
 4690SOL    HW216003   8.606   5.947   3.943 -1.0813  0.9071 -0.0954
 4691SOL     OW16004   3.725   0.871   3.801 -0.1652 -0.3054 -0.0624
 4691SOL    HW116005   3.801   0.864   3.859  0.6630  2.3843 -0.6943
 4691SOL    HW216006   3.762   0.880   3.714 -1.2846 -0.3628 -0.5651
 4692SOL     OW16007   2.283   8.524   3.273  0.2904  0.4762 -0.6828
 4692SOL    HW116008   2.199   8.569   3.286 -0.2532 -0.7564  0.2200
 4692SOL    HW216009   2.266   8.459   3.205  0.0110 -0.9307  0.6687
 4693SOL     OW16010   6.558   3.687   3.163  0.2132  0.7229 -0.1941
 4693SOL    HW116011   6.471   3.672   3.125 -0.1875 -0.0282  0.9673
 4693SOL    HW216012   6.584   3.773   3.130 -0.4179  0.4014 -1.5731
 4694SOL     OW16013   2.999   6.102   6.389 -0.0281 -0.6195 -0.2464
 4694SOL    HW116014   2.906   6.118   6.375 -0.4595 -1.2193  1.5784
 4694SOL    HW216015   3.035   6.188   6.412 -0.2281 -0.4709 -0.4904
 4695SOL     OW16016   6.962   8.073   1.188  0.0053 -0.1613  0.5411
 4695SOL    HW116017   6.938   8.157   1.227 -1.4243 -0.5384  0.5156
 4695SOL    HW216018   7.048   8.089   1.150 -0.6999  1.6477 -0.4599
 4696SOL     OW16019   5.864   2.063   0.895 -0.6821  0.0771  0.0029
 4696SOL    HW116020   5.933   2.128   0.885 -0.0477 -0.7552 -1.2859
 4696SOL    HW216021   5.820   2.088   0.976  1.2953  0.4704  1.0314
 4697SOL     OW16022   0.549   1.292   2.459  0.3338 -0.0428 -0.6794
 4697SOL    HW116023   0.606   1.268   2.532  0.8583  0.5404 -0.8915
 4697SOL    HW216024   0.550   1.388   2.458 -2.5515  0.1214  0.8138
 4698SOL     OW16025   1.747   6.884   7.883 -0.2713 -0.1148  0.6010
 4698SOL    HW116026   1.749   6.962   7.938  0.3870 -0.3947  0.9888
 4698SOL    HW216027   1.714   6.815   7.941  1.0110 -0.5492  0.8533
 4699SOL     OW16028   4.528   3.357   8.780  0.4635 -0.1480 -0.4801
 4699SOL    HW116029   4.505   3.321   8.695  1.0052 -0.6841 -0.4029
 4699SOL    HW216030   4.538   3.281   8.838 -0.9122  0.2503  0.3358
 4700SOL     OW16031   7.416   2.043   2.532 -0.7071 -0.2219 -0.7387
 4700SOL    HW116032   7.506   2.025   2.557 -0.2153 -0.5737 -2.6086
 4700SOL    HW216033   7.369   1.960   2.545 -0.1182 -0.8388 -2.3021
 4701SOL     OW16034   8.603   6.293   4.771 -0.5774  0.1676 -0.7726
 4701SOL    HW116035   8.568   6.205   4.784  0.1627  0.0281  0.3717
 4701SOL    HW216036   8.528   6.351   4.783 -0.9415 -0.2679 -0.9259
 4702SOL     OW16037   3.615   8.848   0.678  0.3851  0.5691  0.0486
 4702SOL    HW116038   3.560   8.775   0.648  1.4949 -0.6710  0.9745
 4702SOL    HW216039   3.696   8.838   0.629  1.1281  0.2383  1.3170
 4703SOL     OW16040   1.621   3.450   0.085  0.5954 -0.0618  0.0125
 4703SOL    HW116041   1.691   3.385   0.082 -0.5210 -1.4105  1.4559
 4703SOL    HW216042   1.574   3.438   0.003  0.4297 -1.0820  0.2414
 4704SOL     OW16043   2.849   5.480   8.240  0.3154 -0.7478 -0.3778
 4704SOL    HW116044   2.935   5.447   8.269 -0.0357 -2.1738 -0.8585
 4704SOL    HW216045   2.868   5.529   8.161  1.1595  2.3498  1.5695
 4705SOL     OW16046   3.859   2.998   2.079 -0.8025  0.3763  0.2490
 4705SOL    HW116047   3.814   2.930   2.027  0.1785  0.9794 -1.4744
 4705SOL    HW216048   3.797   3.071   2.079 -0.4059  0.7445 -1.0158
 4706SOL     OW16049   6.196   8.089   4.176  0.1163  0.0378 -0.1829
 4706SOL    HW116050   6.289   8.071   4.193 -0.3538 -1.3473  1.0848
 4706SOL    HW216051   6.155   8.085   4.262 -1.5049 -1.7500 -0.9850
 4707SOL     OW16052   2.960   1.276   2.330  0.4323  0.7943  0.1071
 4707SOL    HW116053   2.975   1.365   2.299  1.1983  1.1940  1.5432
 4707SOL    HW216054   2.963   1.283   2.425 -1.6736 -0.4086  0.3111
 4708SOL     OW16055   5.093   1.288   5.443  0.2971  0.0931  0.3647
 4708SOL    HW116056   5.030   1.314   5.511  0.9092 -0.5741  1.2069
 4708SOL    HW216057   5.169   1.257   5.492  0.6877 -0.5659 -0.6362
 4709SOL     OW16058   0.653   5.840   6.281 -0.3910  0.3789  0.4338
 4709SOL    HW116059   0.686   5.836   6.191  0.2572 -1.0563  0.7022
 4709SOL    HW216060   0.575   5.895   6.276 -1.5008 -1.2344 -1.3731
 4710SOL     OW16061   4.715   0.425   2.481  0.1759 -0.4103 -0.4053
 4710SOL    HW116062   4.696   0.393   2.569 -2.1277 -0.8025 -0.9975
 4710SOL    HW216063   4.762   0.507   2.495 -2.1351  0.7340  1.2710
 4711SOL     OW16064   1.992   7.177   5.550  0.9091  0.3903  0.0706
 4711SOL    HW116065   2.082   7.147   5.565  1.0575  0.7814 -0.0283
 4711SOL    HW216066   1.991   7.205   5.458  0.1861 -1.3595 -0.4943
 4712SOL     OW16067   1.734   8.362   3.908  0.2223  0.2003  0.2435
 4712SOL    HW116068   1.813   8.343   3.858 -0.1124  0.7706 -0.5213
 4712SOL    HW216069   1.691   8.432   3.860  1.2322  2.7132  2.7243
 4713SOL     OW16070   4.780   0.844   7.460 -0.0424  0.2229  0.5844
 4713SOL    HW116071   4.769   0.859   7.366 -0.6627  1.3705  0.8169
 4713SOL    HW216072   4.716   0.775   7.481  2.8274 -3.0364 -0.5076
 4714SOL     OW16073   2.941   5.101   6.902 -0.4857 -0.0676 -0.7940
 4714SOL    HW116074   2.868   5.118   6.961  0.1279  1.2211 -0.3577
 4714SOL    HW216075   2.909   5.034   6.842 -1.1604 -1.3635  0.9464
 4715SOL     OW16076   5.162   0.007   1.978  0.1825 -0.0196 -0.2981
 4715SOL    HW116077   5.117   0.017   2.061  0.4048 -0.1824 -0.1570
 4715SOL    HW216078   5.131  -0.076   1.943  1.3126 -0.7654  0.3950
 4716SOL     OW16079   7.324   5.254   5.907  0.6159  0.9618  0.2203
 4716SOL    HW116080   7.252   5.197   5.880  0.1674  1.8112 -0.4192
 4716SOL    HW216081   7.338   5.231   5.999  0.9712 -0.7088 -0.2127
 4717SOL     OW16082   7.692   4.436   3.734 -0.4400  0.4370  0.5836
 4717SOL    HW116083   7.704   4.474   3.647  0.3748  0.3919  0.6648
 4717SOL    HW216084   7.603   4.400   3.733 -1.2279  2.2567  0.4797
 4718SOL     OW16085   0.600   0.099   0.757 -0.2171 -0.5492  1.0435
 4718SOL    HW116086   0.522   0.125   0.806  0.1141 -1.2992  1.9953
 4718SOL    HW216087   0.672   0.144   0.801  0.2873 -2.5269  2.3305
 4719SOL     OW16088   4.170   1.545   3.691  0.1582  0.1530  0.3407
 4719SOL    HW116089   4.100   1.494   3.650  0.0318 -1.6375  2.5637
 4719SOL    HW216090   4.187   1.617   3.630  0.4930 -2.6048 -3.1360
 4720SOL     OW16091   3.313   2.062   3.806  0.0990  0.2613 -0.0629
 4720SOL    HW116092   3.226   2.028   3.785  0.3678  0.0361 -0.8398
 4720SOL    HW216093   3.336   2.018   3.888 -1.0810  1.3678  0.9283
 4721SOL     OW16094   4.718   2.806   1.656 -0.4460  0.0000 -0.3718
 4721SOL    HW116095   4.660   2.882   1.660  0.2948  0.6697 -1.6205
 4721SOL    HW216096   4.707   2.762   1.740  0.3236  2.4019  1.0492
 4722SOL     OW16097   4.083   4.436   8.715 -0.2954  0.0443 -0.2869
 4722SOL    HW116098   4.079   4.342   8.733  1.6432 -0.2213 -0.9930
 4722SOL    HW216099   4.022   4.448   8.641 -0.3761 -0.6974 -0.3532
 4723SOL     OW16100   3.896   6.599   3.959  0.0116 -0.1315  0.3349
 4723SOL    HW116101   3.933   6.650   4.031 -0.4708 -0.3730  0.7607
 4723SOL    HW216102   3.828   6.655   3.923  1.1930  0.5963 -0.8841
 4724SOL     OW16103   5.624   7.079   3.751  0.3744  0.3411 -0.9803
 4724SOL    HW116104   5.586   7.082   3.838  1.2918 -0.7819 -0.5100
 4724SOL    HW216105   5.589   7.156   3.706 -0.8245  0.4430  0.0707
 4725SOL     OW16106   6.601   4.489   2.220 -1.1753  0.0631  0.2321
 4725SOL    HW116107   6.512   4.524   2.231 -0.0865  2.6935  1.7233
 4725SOL    HW216108   6.625   4.457   2.306 -1.4356 -2.8807 -0.6957
 4726SOL     OW16109   7.205   1.657   7.399  0.1637 -0.0740  0.2658
 4726SOL    HW116110   7.241   1.731   7.352  1.2569 -0.0728  1.0496
 4726SOL    HW216111   7.110   1.667   7.393  0.1699 -0.8647 -3.1339
 4727SOL     OW16112   3.609   7.567   8.356  0.4784  0.0225  0.0283
 4727SOL    HW116113   3.581   7.657   8.375  1.1662  0.1527  0.4397
 4727SOL    HW216114   3.588   7.519   8.437  0.1007 -0.1980 -0.1954
 4728SOL     OW16115   4.911   1.310   2.265  0.6900 -0.3320  0.3792
 4728SOL    HW116116   4.852   1.385   2.276  0.8970 -0.4928  3.5940
 4728SOL    HW216117   4.998   1.346   2.281  1.0984 -0.7827 -0.7545
 4729SOL     OW16118   0.178   0.760   5.526  0.0061 -0.1393 -0.1477
 4729SOL    HW116119   0.169   0.782   5.619  0.4750 -1.2094  0.1642
 4729SOL    HW216120   0.115   0.689   5.512 -0.1349  0.0870 -0.6757
 4730SOL     OW16121   0.756   7.000   1.204  0.0278  0.2210 -0.3242
 4730SOL    HW116122   0.840   6.956   1.215 -0.0749 -0.0513 -0.6122
 4730SOL    HW216123   0.702   6.965   1.275 -0.1334 -0.3169 -0.7049
 4731SOL     OW16124   5.227   6.319   0.003 -0.7490  0.1151  0.0000
 4731SOL    HW116125   5.141   6.343  -0.030  0.0154  2.4258 -0.4814
 4731SOL    HW216126   5.277   6.296  -0.075 -1.1777 -2.2704  0.3692
 4732SOL     OW16127   7.339   8.179   2.154 -0.8973 -0.3083 -0.2124
 4732SOL    HW116128   7.429   8.163   2.126 -0.9290 -0.3092 -0.3146
 4732SOL    HW216129   7.342   8.262   2.201 -0.3964 -1.4267  1.8536
 4733SOL     OW16130   6.953   7.451   2.361  0.6480 -0.7784  0.2467
 4733SOL    HW116131   6.927   7.440   2.452 -0.8127  1.2753  0.1453
 4733SOL    HW216132   7.018   7.522   2.363  0.0364 -0.1822 -0.3578
 4734SOL     OW16133   1.170   5.465   6.590 -0.4073 -0.3289  0.5288
 4734SOL    HW116134   1.094   5.441   6.537 -0.2263 -0.6731  0.4233
 4734SOL    HW216135   1.155   5.424   6.675 -0.4841 -0.1494  0.6008
 4735SOL     OW16136   1.147   5.491   4.103 -0.4059  0.3178 -0.3363
 4735SOL    HW116137   1.159   5.458   4.192  0.0164 -2.1769 -1.2248
 4735SOL    HW216138   1.076   5.437   4.067  0.2713  0.4013 -1.8797
 4736SOL     OW16139   4.392   1.763   4.551 -0.0273 -0.3902  0.4766
 4736SOL    HW116140   4.351   1.788   4.468  0.6248 -1.6158 -0.2525
 4736SOL    HW216141   4.485   1.781   4.538 -0.1923  2.0361  1.9887
 4737SOL     OW16142   6.604   4.952   4.373 -0.3312  0.5461 -0.2149
 4737SOL    HW116143   6.515   4.919   4.388  0.0337 -0.6866 -0.6315
 4737SOL    HW216144   6.643   4.888   4.314  0.2926  1.9798 -1.4367
 4738SOL     OW16145   2.263   4.726   2.484 -0.1584  0.4585  0.3841
 4738SOL    HW116146   2.300   4.639   2.497 -0.0439  0.2145 -1.2965
 4738SOL    HW216147   2.239   4.756   2.572  0.4937 -0.9464  1.0719
 4739SOL     OW16148   3.134   1.814   1.327  0.4533  0.1673  0.5027
 4739SOL    HW116149   3.197   1.770   1.270 -0.5742  0.1897 -0.6967
 4739SOL    HW216150   3.165   1.904   1.331  1.9955 -0.3600  2.1508
 4740SOL     OW16151   6.519   2.064   6.783  0.0871 -0.2056  0.5636
 4740SOL    HW116152   6.446   2.121   6.807 -0.3529  0.5099 -2.1120
 4740SOL    HW216153   6.596   2.109   6.818 -0.4859  0.7577  0.6354
 4741SOL     OW16154   7.968   3.532   0.502  0.1179 -0.1622  0.2877
 4741SOL    HW116155   7.955   3.601   0.567 -1.5081  0.2801 -0.4601
 4741SOL    HW216156   7.940   3.452   0.545  0.0645 -0.0443  0.4739
 4742SOL     OW16157   1.483   7.390   5.232 -0.0391 -0.0605 -0.6592
 4742SOL    HW116158   1.566   7.433   5.217  0.3375  0.0554  1.4367
 4742SOL    HW216159   1.422   7.461   5.251 -0.4723 -0.1889 -1.5307
 4743SOL     OW16160   7.008   6.515   6.377  0.2659 -0.8248 -0.3619
 4743SOL    HW116161   7.103   6.522   6.385  0.2827 -1.0279 -0.3792
 4743SOL    HW216162   6.994   6.457   6.302  0.1305 -0.8479 -0.3194
 4744SOL     OW16163   3.982   5.432   1.925  0.0211  0.1348  0.6220
 4744SOL    HW116164   4.066   5.418   1.968  0.3939 -1.3428 -0.5084
 4744SOL    HW216165   3.995   5.402   1.835 -1.5629  0.3917  0.2670
 4745SOL     OW16166   3.306   1.295   7.012  0.1700 -0.0066  0.0342
 4745SOL    HW116167   3.386   1.292   7.065  0.1977  1.5879  0.1316
 4745SOL    HW216168   3.304   1.384   6.977 -0.5042 -0.6384 -1.6430
 4746SOL     OW16169   1.007   7.146   1.025  0.0185 -0.1365 -0.4012
 4746SOL    HW116170   1.077   7.084   1.006 -0.4427 -0.4683 -1.0487
 4746SOL    HW216171   0.970   7.115   1.108  0.7000  0.1076  0.0039
 4747SOL     OW16172   8.846   2.041   4.092  0.0458 -0.1501  0.3940
 4747SOL    HW116173   8.766   2.081   4.124  1.5420  1.7290  2.0437
 4747SOL    HW216174   8.874   1.983   4.163 -0.1506 -1.2778 -0.4256
 4748SOL     OW16175   5.373   6.008   2.036 -0.3927 -0.5883 -0.6056
 4748SOL    HW116176   5.322   5.933   2.005  0.6871 -2.0652  0.9281
 4748SOL    HW216177   5.342   6.022   2.126  0.3390 -0.0857 -0.4178
 4749SOL     OW16178   7.537   0.566   4.371 -0.0584 -0.1455  0.4729
 4749SOL    HW116179   7.459   0.534   4.326  0.4741 -2.3530  0.9918
 4749SOL    HW216180   7.541   0.659   4.349 -1.6682 -0.4260 -1.2534
 4750SOL     OW16181   5.119   5.669   6.547  0.4083 -0.3734  0.6918
 4750SOL    HW116182   5.055   5.630   6.608 -0.2691 -1.9960 -0.9586
 4750SOL    HW216183   5.166   5.594   6.511  0.0551  0.4123 -1.5416
 4751SOL     OW16184   2.787   5.888   6.612  0.2358 -0.2679 -0.5358
 4751SOL    HW116185   2.883   5.880   6.612  0.2571 -0.0627  0.3049
 4751SOL    HW216186   2.758   5.821   6.673 -0.1335 -0.0014 -0.4210
 4752SOL     OW16187   2.940   6.619   1.917 -0.2249 -0.1658 -0.2377
 4752SOL    HW116188   3.021   6.612   1.867  1.2232  1.4223  1.7334
 4752SOL    HW216189   2.873   6.642   1.853  1.4258  1.2130 -1.5307
 4753SOL     OW16190   3.213   4.309   8.781 -0.0450 -0.4665 -0.1747
 4753SOL    HW116191   3.148   4.249   8.745 -0.5585  0.3258 -0.5845
 4753SOL    HW216192   3.237   4.270   8.865 -4.1376  1.2821  2.0846
 4754SOL     OW16193   8.736   0.573   4.255  0.2800  0.3621 -0.4540
 4754SOL    HW116194   8.749   0.576   4.160  1.3800  0.8158 -0.3097
 4754SOL    HW216195   8.804   0.631   4.290 -1.1441  1.4873  0.5276
 4755SOL     OW16196   4.355   4.558   4.172 -0.2765 -0.3915 -0.7675
 4755SOL    HW116197   4.337   4.638   4.122 -0.7510 -1.3431 -2.1714
 4755SOL    HW216198   4.451   4.555   4.179 -0.2721  0.6715 -0.0228
 4756SOL     OW16199   4.847   5.677   3.607  0.4384  0.0219  0.0942
 4756SOL    HW116200   4.757   5.684   3.637 -0.0806 -1.2048 -1.0355
 4756SOL    HW216201   4.853   5.738   3.533  0.6867  0.4780  0.4896
 4757SOL     OW16202   6.102   0.417   5.995 -0.0510 -0.5796  0.6073
 4757SOL    HW116203   6.191   0.409   6.031 -0.0837 -1.6348  0.4851
 4757SOL    HW216204   6.113   0.405   5.901 -0.1897  0.4272  0.4533
 4758SOL     OW16205   6.434   4.403   1.787  0.1638 -0.0917  0.3886
 4758SOL    HW116206   6.470   4.372   1.704 -0.5604  0.4434 -0.1321
 4758SOL    HW216207   6.511   4.424   1.840  0.6490  1.7015 -0.9524
 4759SOL     OW16208   1.104   0.576   5.519  0.1845  0.7309 -0.1712
 4759SOL    HW116209   1.037   0.636   5.486 -1.3937 -1.4725 -1.2496
 4759SOL    HW216210   1.147   0.542   5.441  1.9867  1.4167  0.4730
 4760SOL     OW16211   0.576   0.285   2.670 -0.0006 -0.3048  0.3631
 4760SOL    HW116212   0.559   0.311   2.761  0.4468  1.8579 -0.1040
 4760SOL    HW216213   0.492   0.255   2.637 -0.3550 -0.3253  1.2678
 4761SOL     OW16214   0.849   8.661   2.463  0.0777  0.2752 -0.4865
 4761SOL    HW116215   0.877   8.586   2.411  1.8020  0.3114  0.2970
 4761SOL    HW216216   0.787   8.707   2.407  0.9122 -0.3602 -2.0148
 4762SOL     OW16217   7.589   1.981   0.010  0.1526 -0.4894  0.2686
 4762SOL    HW116218   7.629   2.066   0.028 -0.9815  0.1784 -0.2528
 4762SOL    HW216219   7.612   1.927   0.085  3.1276 -0.5650 -0.5716
 4763SOL     OW16220   1.101   2.878   0.176 -0.0221 -0.0975 -0.0334
 4763SOL    HW116221   1.182   2.920   0.204  1.1185 -1.3358 -1.3433
 4763SOL    HW216222   1.100   2.889   0.081 -1.4863  0.0196 -0.0268
 4764SOL     OW16223   2.180   2.564   2.909 -0.5410  0.0327 -0.3027
 4764SOL    HW116224   2.235   2.556   2.987  2.6647 -2.6358 -2.5427
 4764SOL    HW216225   2.164   2.658   2.901 -1.1082  0.4135  3.4961
 4765SOL     OW16226   3.666   1.466   6.219 -0.1454  0.3826 -0.2034
 4765SOL    HW116227   3.715   1.447   6.139 -0.3854 -1.8991  0.1043
 4765SOL    HW216228   3.574   1.456   6.194 -0.2055 -0.9871  0.4356
 4766SOL     OW16229   3.574   7.088   8.594  0.6701 -0.0218 -0.2403
 4766SOL    HW116230   3.643   7.027   8.617 -0.3438 -0.8014  0.8552
 4766SOL    HW216231   3.493   7.046   8.624 -0.1466  1.4662 -0.2348
 4767SOL     OW16232   7.330   5.898   3.392 -0.8267 -0.0131  0.1114
 4767SOL    HW116233   7.407   5.875   3.445 -1.0764  0.6857  0.7875
 4767SOL    HW216234   7.275   5.819   3.396 -0.4667 -0.2654  0.2012
 4768SOL     OW16235   1.135   1.708   6.110  0.4221 -1.1214 -0.1980
 4768SOL    HW116236   1.190   1.786   6.107  1.7210 -2.0095 -0.2394
 4768SOL    HW216237   1.046   1.742   6.117  0.8563  0.3798 -1.4150
 4769SOL     OW16238   0.299   3.173   0.208  0.0199 -0.0886 -0.1502
 4769SOL    HW116239   0.235   3.137   0.147  0.2720  1.3880 -1.3363
 4769SOL    HW216240   0.273   3.264   0.221 -0.3517 -0.4824  2.4382
 4770SOL     OW16241   1.005   6.318   8.821 -0.0416  0.1841  0.1188
 4770SOL    HW116242   0.925   6.334   8.771 -0.2914 -1.5244 -0.0831
 4770SOL    HW216243   0.976   6.311   8.912 -0.0321  0.2180  0.1239
 4771SOL     OW16244   5.981   0.644   2.047 -0.2530  0.4890  0.6940
 4771SOL    HW116245   6.033   0.574   2.086 -0.6512 -0.4188 -0.3477
 4771SOL    HW216246   5.890   0.618   2.063 -0.4095  0.6796  0.1364
 4772SOL     OW16247   2.792   3.878   1.022  0.5648  0.5017  0.5066
 4772SOL    HW116248   2.727   3.864   1.091 -0.1527  1.1230 -0.0341
 4772SOL    HW216249   2.784   3.970   1.000  0.3306  0.1787 -0.8530
 4773SOL     OW16250   0.940   6.495   6.500 -0.7537 -0.1467  0.5344
 4773SOL    HW116251   0.920   6.562   6.566 -0.1529 -1.1560  1.8085
 4773SOL    HW216252   1.019   6.452   6.534 -1.2368 -1.6220 -0.1246
 4774SOL     OW16253   7.671   2.299   6.809  0.1285 -0.1321  0.2325
 4774SOL    HW116254   7.718   2.216   6.819 -2.0086 -1.3441  0.8666
 4774SOL    HW216255   7.669   2.337   6.897 -0.5257 -0.3637  0.3241
 4775SOL     OW16256   4.794   4.878   7.073 -0.0831 -0.1590  0.2200
 4775SOL    HW116257   4.718   4.924   7.036  0.1600 -0.1905 -0.3132
 4775SOL    HW216258   4.760   4.792   7.097 -0.0064 -0.5150 -0.8884
 4776SOL     OW16259   2.462   6.650   1.367 -0.0427 -0.0600  0.2430
 4776SOL    HW116260   2.554   6.641   1.344 -0.0623  0.2800  0.0342
 4776SOL    HW216261   2.453   6.600   1.449  0.1316 -0.8361 -0.2047
 4777SOL     OW16262   4.138   7.839   2.238  0.1569  0.0973 -0.0250
 4777SOL    HW116263   4.105   7.929   2.242  1.3922  0.5574  0.3280
 4777SOL    HW216264   4.081   7.789   2.296 -0.0784  0.8135  0.3683
 4778SOL     OW16265   6.342   7.663   8.061  0.0321 -0.0983 -0.2371
 4778SOL    HW116266   6.310   7.655   7.971 -1.2556  1.5321  0.0487
 4778SOL    HW216267   6.313   7.582   8.103 -1.3761  0.1287 -0.7110
 4779SOL     OW16268   7.868   5.894   2.237 -0.1207 -0.1645  0.6504
 4779SOL    HW116269   7.951   5.929   2.204 -0.9711  1.8565  0.5024
 4779SOL    HW216270   7.832   5.844   2.163  0.9506 -1.0825  0.7260
 4780SOL     OW16271   0.965   7.095   2.430  0.4598 -0.2877  0.3904
 4780SOL    HW116272   0.880   7.054   2.416  0.1888  0.2537  0.4081
 4780SOL    HW216273   0.949   7.188   2.415  0.9085 -0.1036  1.0166
 4781SOL     OW16274   6.194   7.741   1.766 -0.0980  0.7804  0.0082
 4781SOL    HW116275   6.134   7.753   1.840  0.6950  1.7210  0.5309
 4781SOL    HW216276   6.168   7.808   1.703 -0.4269  0.3283 -0.3446
 4782SOL     OW16277   5.336   7.099   1.361 -0.2838 -0.4170 -0.0213
 4782SOL    HW116278   5.428   7.119   1.377 -0.2834 -0.3588 -0.0954
 4782SOL    HW216279   5.334   7.061   1.273 -0.6141  1.6558 -0.9676
 4783SOL     OW16280   3.904   0.061   7.004  0.5580  0.4552  0.5697
 4783SOL    HW116281   3.887   0.070   7.098  1.4442  2.2566  0.6022
 4783SOL    HW216282   3.907   0.151   6.972  1.5823 -0.0816 -0.9372
 4784SOL     OW16283   7.067   7.153   7.142 -0.1514 -0.6072  0.0798
 4784SOL    HW116284   7.152   7.182   7.175 -0.1079 -1.2537  0.5565
 4784SOL    HW216285   7.086   7.071   7.097 -0.1592  0.4016 -1.8594
 4785SOL     OW16286   7.814   1.571   8.115 -0.1444 -0.6976  0.6284
 4785SOL    HW116287   7.852   1.495   8.071  1.4586  1.2719 -1.6591
 4785SOL    HW216288   7.889   1.629   8.130 -1.5242  1.0451  0.9779
 4786SOL     OW16289   5.572   1.817   6.836 -0.6902 -0.5132  0.4360
 4786SOL    HW116290   5.506   1.840   6.771 -0.6681 -2.1900 -0.2316
 4786SOL    HW216291   5.556   1.878   6.909 -2.5639 -0.4633  0.0459
 4787SOL     OW16292   6.616   0.338   8.645  0.3415  0.1746  0.4535
 4787SOL    HW116293   6.597   0.332   8.552 -1.1354 -0.3080  0.7680
 4787SOL    HW216294   6.598   0.430   8.667 -0.7518 -0.0592  0.5566
 4788SOL     OW16295   1.051   6.342   8.089  0.6993  0.4402  0.2204
 4788SOL    HW116296   1.087   6.264   8.130 -1.4412 -0.7153  0.0274
 4788SOL    HW216297   0.986   6.375   8.151  0.2952  1.0198 -0.4857
 4789SOL     OW16298   1.004   6.953   1.309 -0.7044 -0.7604  0.3886
 4789SOL    HW116299   1.091   6.984   1.283 -0.3629 -0.7897  1.4456
 4789SOL    HW216300   1.020   6.871   1.355 -1.4043 -1.3531 -0.3948
 4790SOL     OW16301   8.683   1.650   3.225 -0.0147  0.0998  0.0789
 4790SOL    HW116302   8.609   1.701   3.256  0.9051  1.1691  0.6107
 4790SOL    HW216303   8.717   1.699   3.150 -0.9928 -1.4052 -1.4254
 4791SOL     OW16304   2.030   2.493   0.589 -0.2217  0.0509  0.2381
 4791SOL    HW116305   2.038   2.402   0.617  1.4959  0.5858  1.6598
 4791SOL    HW216306   1.936   2.506   0.576 -0.4466 -2.0485 -0.5118
 4792SOL     OW16307   4.139   7.927   8.253  0.0737 -0.6245  0.4166
 4792SOL    HW116308   4.215   7.958   8.302  0.5789 -0.6502 -0.3393
 4792SOL    HW216309   4.150   7.964   8.165 -2.3745  2.0359  1.0359
 4793SOL     OW16310   6.399   0.311   8.383 -0.1422 -0.1327  0.5099
 4793SOL    HW116311   6.360   0.325   8.470 -2.0254 -1.1109 -0.1277
 4793SOL    HW216312   6.405   0.216   8.375  0.4064 -0.0389 -0.2616
 4794SOL     OW16313   2.552   5.027   5.925  0.0102 -0.6736  0.0094
 4794SOL    HW116314   2.495   4.992   5.856 -0.2470 -0.8552  0.3114
 4794SOL    HW216315   2.573   5.116   5.895 -0.2896 -0.6671 -0.1931
 4795SOL     OW16316   8.585   3.641   5.387 -0.4748 -0.4684 -0.1825
 4795SOL    HW116317   8.636   3.711   5.345 -1.8278  0.2852 -0.6180
 4795SOL    HW216318   8.508   3.630   5.331 -1.2884 -0.9034  0.9824
 4796SOL     OW16319   5.370   3.441   1.471 -0.6397  0.2119 -0.7351
 4796SOL    HW116320   5.394   3.514   1.529 -0.1411 -0.1755 -0.4458
 4796SOL    HW216321   5.399   3.469   1.384 -2.1318  1.1529 -0.9701
 4797SOL     OW16322   0.975   2.386   3.656 -1.0333  0.0559 -0.0410
 4797SOL    HW116323   1.063   2.390   3.620 -0.2209 -0.6584  1.7027
 4797SOL    HW216324   0.947   2.295   3.642 -1.3790  0.2029 -0.3248
 4798SOL     OW16325   1.452   4.759   2.338 -0.2341  0.2033 -0.8618
 4798SOL    HW116326   1.515   4.791   2.273 -0.0912  0.7013 -0.4826
 4798SOL    HW216327   1.467   4.814   2.415  0.1067 -0.8556 -0.1453
 4799SOL     OW16328   6.570   4.016   6.577 -0.2611 -0.0946 -0.1012
 4799SOL    HW116329   6.573   4.048   6.668 -0.8143 -1.7052  0.5163
 4799SOL    HW216330   6.520   3.935   6.582  1.8348 -1.5658 -1.4285
 4800SOL     OW16331   4.708   2.779   4.406  0.1353  0.5984 -0.3731
 4800SOL    HW116332   4.620   2.742   4.414 -0.5973  2.5299  1.6364
 4800SOL    HW216333   4.693   2.871   4.387  1.7659  0.8115 -0.7195
 4801SOL     OW16334   3.058   8.474   1.827 -0.3305  0.1058 -0.0036
 4801SOL    HW116335   3.072   8.543   1.892  2.0190 -0.0128 -0.2790
 4801SOL    HW216336   3.135   8.479   1.770 -0.6732 -1.9752 -0.7443
 4802SOL     OW16337   8.103   8.383   1.878 -0.7533 -0.0076  0.3813
 4802SOL    HW116338   8.138   8.318   1.939 -0.3664 -0.4872 -0.3441
 4802SOL    HW216339   8.029   8.339   1.836 -1.2593  0.4534  0.7537
 4803SOL     OW16340   2.329   7.523   7.865 -0.2226 -0.0711 -0.5359
 4803SOL    HW116341   2.403   7.584   7.869 -0.7212  0.5120  2.7303
 4803SOL    HW216342   2.369   7.436   7.864  0.5261  0.2609 -0.2071
 4804SOL     OW16343   1.712   8.425   2.469 -0.3535 -0.1885 -0.0616
 4804SOL    HW116344   1.767   8.503   2.479  1.6450 -1.5930  0.5253
 4804SOL    HW216345   1.733   8.391   2.382 -1.0991 -0.1687 -0.2562
 4805SOL     OW16346   1.780   7.218   2.534  0.6939  0.4064 -0.0271
 4805SOL    HW116347   1.849   7.203   2.598 -0.1996 -1.5811  0.5361
 4805SOL    HW216348   1.819   7.278   2.470  2.6314  0.0006  0.7227
 4806SOL     OW16349   6.625   2.224   7.520  0.8004  0.1812 -0.3697
 4806SOL    HW116350   6.581   2.306   7.496 -0.1835 -0.3811 -0.5277
 4806SOL    HW216351   6.588   2.203   7.606  0.6942 -0.3415 -0.5432
 4807SOL     OW16352   2.646   3.894   8.649  0.4906  0.0084  0.2407
 4807SOL    HW116353   2.647   3.929   8.738 -0.0404 -0.1389  0.3068
 4807SOL    HW216354   2.737   3.902   8.619  0.9262 -1.0575  1.2244
 4808SOL     OW16355   3.717   5.943   1.426 -0.0995 -0.2655  0.2820
 4808SOL    HW116356   3.624   5.928   1.407 -0.1750  1.2616 -0.7602
 4808SOL    HW216357   3.717   6.018   1.486  0.4367 -0.9096  1.1058
 4809SOL     OW16358   4.433   5.335   4.543 -0.0125  0.1833 -0.5661
 4809SOL    HW116359   4.441   5.336   4.448 -2.0838  0.7859 -0.7728
 4809SOL    HW216360   4.353   5.285   4.560  1.6388 -2.1591  1.0370
 4810SOL     OW16361   1.167   1.314   6.060 -0.0197  0.3941  0.6675
 4810SOL    HW116362   1.233   1.287   6.125  0.3585  0.4952  0.3266
 4810SOL    HW216363   1.201   1.396   6.025 -1.1818  1.3831  1.7351
 4811SOL     OW16364   3.644   2.165   6.431 -0.1260  0.0279  0.3802
 4811SOL    HW116365   3.581   2.217   6.481 -0.5077  0.0276 -0.0925
 4811SOL    HW216366   3.590   2.103   6.381  0.1585  0.7118 -0.8278
 4812SOL     OW16367   0.727   1.919   0.780 -0.6686 -0.4189 -0.2863
 4812SOL    HW116368   0.664   1.990   0.773 -0.5605 -0.4661 -2.3907
 4812SOL    HW216369   0.686   1.846   0.734 -0.7945 -1.7785  1.8757
 4813SOL     OW16370   0.743   4.564   2.558  0.4343  0.5162 -0.1094
 4813SOL    HW116371   0.780   4.577   2.471  1.4048 -0.7190  0.0861
 4813SOL    HW216372   0.790   4.627   2.613 -1.6125  2.7952 -0.7484
 4814SOL     OW16373   3.492   6.193   4.204  0.2480 -0.2100 -0.7224
 4814SOL    HW116374   3.537   6.262   4.156  0.8810  0.0899  0.2691
 4814SOL    HW216375   3.467   6.128   4.137  1.6083 -0.0852 -1.3694
 4815SOL     OW16376   7.882   0.691   4.255  0.4403  0.4317 -0.1297
 4815SOL    HW116377   7.845   0.648   4.178 -0.2433 -1.1673  1.0389
 4815SOL    HW216378   7.974   0.665   4.254  0.9284  2.0293 -1.4363
 4816SOL     OW16379   5.614   8.264   2.535  0.5782  0.2497 -0.1489
 4816SOL    HW116380   5.525   8.254   2.500  0.6200  1.2409 -0.5551
 4816SOL    HW216381   5.661   8.189   2.499  0.1319  0.2118 -0.6709
 4817SOL     OW16382   2.101   5.663   1.236 -0.3615 -0.3540  0.0519
 4817SOL    HW116383   2.058   5.583   1.208 -1.7514 -0.2892  1.8049
 4817SOL    HW216384   2.099   5.720   1.159 -1.7991 -1.0329 -0.4467
 4818SOL     OW16385   5.944   8.101   0.936  0.2255  0.2669  0.0434
 4818SOL    HW116386   5.857   8.140   0.925  0.3812  0.7422  0.4576
 4818SOL    HW216387   5.997   8.142   0.868  0.9630  2.5358  1.8465
 4819SOL     OW16388   5.550   8.434   1.702  0.4775 -0.4372  0.4292
 4819SOL    HW116389   5.466   8.476   1.722  1.1483  0.7936  0.7609
 4819SOL    HW216390   5.574   8.469   1.616  1.7029  0.9700  1.3116
 4820SOL     OW16391   6.548   5.310   5.095 -0.1530 -0.3163 -0.2397
 4820SOL    HW116392   6.573   5.262   5.174 -1.4105 -2.4726 -1.0507
 4820SOL    HW216393   6.453   5.323   5.104 -0.2189 -0.1257 -1.1477
 4821SOL     OW16394   4.670   1.912   5.210  0.1292 -0.1013 -0.1811
 4821SOL    HW116395   4.588   1.893   5.257  0.4295  0.0117  0.4062
 4821SOL    HW216396   4.687   1.834   5.158  0.5763 -0.8656  1.0632
 4822SOL     OW16397   6.742   3.585   6.761  0.5336  0.2037  0.4300
 4822SOL    HW116398   6.733   3.651   6.829  1.2879 -1.3022  2.0664
 4822SOL    HW216399   6.784   3.511   6.804 -1.5365 -1.9392 -0.9339
 4823SOL     OW16400   6.916   2.974   8.183 -0.7677 -0.3953 -0.3043
 4823SOL    HW116401   6.826   3.003   8.194 -1.1971 -0.4396 -2.9988
 4823SOL    HW216402   6.939   2.999   8.093  1.5626 -1.2772 -0.0396
 4824SOL     OW16403   7.544   4.162   5.945  0.0483  0.0911 -0.0752
 4824SOL    HW116404   7.484   4.225   5.905  0.6212  0.1627 -0.8594
 4824SOL    HW216405   7.552   4.092   5.879  1.3326  0.4095 -0.2777
 4825SOL     OW16406   8.854   6.560   8.471  0.6498  0.5680 -0.2752
 4825SOL    HW116407   8.839   6.481   8.419 -1.7883  1.4413 -0.9929
 4825SOL    HW216408   8.839   6.633   8.411  0.3489  1.5948  0.9988
 4826SOL     OW16409   8.214   2.390   6.115  0.0826  0.7229  0.2122
 4826SOL    HW116410   8.309   2.397   6.126  0.2082 -1.1080  0.7022
 4826SOL    HW216411   8.178   2.445   6.185  0.8359 -0.1851  1.3669
 4827SOL     OW16412   6.128   7.073   6.276  0.4918  0.1978  0.3919
 4827SOL    HW116413   6.156   6.981   6.279 -0.8067 -0.2096  2.4428
 4827SOL    HW216414   6.062   7.076   6.207  1.1688 -0.1944 -0.2883
 4828SOL     OW16415   3.793   1.815   1.734  0.6346  0.1446  0.4854
 4828SOL    HW116416   3.841   1.734   1.755 -0.1209 -0.2342  0.7884
 4828SOL    HW216417   3.701   1.789   1.738  0.3970  0.3373 -2.1032
 4829SOL     OW16418   8.121   6.652   1.908  0.3238  0.2274 -0.3644
 4829SOL    HW116419   8.107   6.743   1.934 -0.4329 -0.0881  0.3982
 4829SOL    HW216420   8.188   6.620   1.968  0.4591  0.2299 -0.5139
 4830SOL     OW16421   4.580   6.300   2.908  0.5726 -0.2685 -0.0073
 4830SOL    HW116422   4.501   6.324   2.956  1.8164  1.4848  1.2973
 4830SOL    HW216423   4.626   6.239   2.966  2.0185  1.7632  1.1391
 4831SOL     OW16424   3.808   4.913   8.665 -0.3408  0.2191  0.5909
 4831SOL    HW116425   3.896   4.918   8.700 -0.8009 -1.7284  2.1583
 4831SOL    HW216426   3.763   4.990   8.702  1.1674  2.5327 -1.9977
 4832SOL     OW16427   1.624   6.649   6.236  0.5901  0.1193  0.1218
 4832SOL    HW116428   1.664   6.622   6.319 -0.8618 -1.0167  0.4982
 4832SOL    HW216429   1.690   6.705   6.195  1.8181 -0.2364  1.5026
 4833SOL     OW16430   4.626   2.492   2.104 -0.2015  0.8192  0.5386
 4833SOL    HW116431   4.632   2.422   2.170 -0.9846  0.2697  0.0484
 4833SOL    HW216432   4.535   2.490   2.075 -0.3609  2.3868  0.8578
 4834SOL     OW16433   3.965   1.571   6.109  0.4764  0.1660 -0.1247
 4834SOL    HW116434   3.917   1.533   6.183  1.9770 -0.1491  0.7305
 4834SOL    HW216435   3.937   1.662   6.107 -0.0170  0.0354  0.4700
 4835SOL     OW16436   6.829   8.609   3.218 -0.0583  0.4980  0.7396
 4835SOL    HW116437   6.795   8.623   3.130  0.9735 -2.2170 -0.1820
 4835SOL    HW216438   6.881   8.687   3.237 -0.0962  1.0258 -1.1400
 4836SOL     OW16439   3.184   5.994   7.929 -0.6511 -0.6744  0.1757
 4836SOL    HW116440   3.193   5.960   8.018  0.6415  0.4860  0.5102
 4836SOL    HW216441   3.225   5.927   7.874  0.4476 -0.4268  0.6718
 4837SOL     OW16442   4.281   8.320   0.896  0.7602  0.0265  0.0335
 4837SOL    HW116443   4.337   8.371   0.954  0.7186 -2.7535  2.7846
 4837SOL    HW216444   4.337   8.297   0.822  1.0611  2.9944 -0.7881
 4838SOL     OW16445   7.772   0.445   5.342 -0.3054 -0.1456 -0.1420
 4838SOL    HW116446   7.861   0.448   5.307 -0.0938 -1.5540  0.1996
 4838SOL    HW216447   7.783   0.426   5.435 -0.9540 -0.3992 -0.1060
 4839SOL     OW16448   7.983   4.004   4.191  0.3360 -0.1105  0.3630
 4839SOL    HW116449   7.940   4.090   4.195  0.4963 -0.0402  0.5809
 4839SOL    HW216450   7.932   3.949   4.251  0.2225 -0.1731  0.2101
 4840SOL     OW16451   5.515   1.287   8.168 -0.3184  0.2471 -0.3276
 4840SOL    HW116452   5.549   1.199   8.188 -1.4499  0.1177  1.1917
 4840SOL    HW216453   5.425   1.286   8.201 -0.8663  1.5119 -1.6468
 4841SOL     OW16454   4.706   3.037   8.615 -0.4688 -0.9488  0.1142
 4841SOL    HW116455   4.615   3.067   8.612 -0.4972 -1.0671 -0.2785
 4841SOL    HW216456   4.714   2.991   8.698 -0.9413 -1.4903 -0.1349
 4842SOL     OW16457   6.612   3.678   2.001 -0.0614 -0.3206 -0.1287
 4842SOL    HW116458   6.661   3.696   1.920  1.9842 -2.7480  0.4037
 4842SOL    HW216459   6.534   3.631   1.971 -0.5582  0.8871 -0.8063
 4843SOL     OW16460   1.838   4.693   3.610 -0.4689  0.0565 -0.6098
 4843SOL    HW116461   1.792   4.771   3.642  1.2398  0.8958 -0.1170
 4843SOL    HW216462   1.885   4.723   3.533  1.0473 -0.1893  0.1916
 4844SOL     OW16463   5.263   4.077   0.462  0.6119  1.0730 -0.1743
 4844SOL    HW116464   5.324   4.045   0.395  1.1344  1.7181 -0.0155
 4844SOL    HW216465   5.214   3.999   0.489  3.1375 -0.0622  1.5499
 4845SOL     OW16466   3.445   2.999   3.075  0.0305 -0.5832 -0.3083
 4845SOL    HW116467   3.410   3.079   3.037  0.4519 -0.1726  0.1457
 4845SOL    HW216468   3.369   2.944   3.092 -0.4727  0.5324  1.2220
 4846SOL     OW16469   5.319   1.167   8.729  0.4159  0.0079  1.0559
 4846SOL    HW116470   5.274   1.233   8.677 -0.4504 -1.3276  0.0558
 4846SOL    HW216471   5.403   1.207   8.751 -0.2533  1.5917  0.8465
 4847SOL     OW16472   7.052   5.617   1.219  0.2372 -0.0280 -0.0411
 4847SOL    HW116473   7.147   5.633   1.225  0.1863  0.2522  0.0160
 4847SOL    HW216474   7.027   5.655   1.135  0.3597 -1.0346 -0.5500
 4848SOL     OW16475   8.416   2.479   4.350  0.0182  0.4783 -0.0542
 4848SOL    HW116476   8.389   2.435   4.430 -0.5583 -0.2521 -0.6272
 4848SOL    HW216477   8.511   2.484   4.355  0.0960 -0.8476  0.0343
 4849SOL     OW16478   0.207   7.353   8.640 -0.1532 -0.0326 -0.1146
 4849SOL    HW116479   0.156   7.373   8.562 -0.6470  0.8560  0.4117
 4849SOL    HW216480   0.285   7.308   8.608 -1.3383 -1.6205 -0.9316
 4850SOL     OW16481   3.146   5.530   3.097  0.1758  0.4102  0.5186
 4850SOL    HW116482   3.136   5.464   3.029  0.2127 -1.3643  2.1464
 4850SOL    HW216483   3.085   5.600   3.072 -0.9024 -0.8542 -0.5641
 4851SOL     OW16484   6.255   0.050   8.721  0.6828  0.9161 -0.0219
 4851SOL    HW116485   6.323   0.040   8.788 -1.9745 -0.6094  2.6852
 4851SOL    HW216486   6.207   0.128   8.747  0.1659  0.8343 -0.7014
 4852SOL     OW16487   6.328   2.107   5.935 -0.6118  0.1327  0.2918
 4852SOL    HW116488   6.367   2.080   6.018  0.7147  0.5171 -0.1659
 4852SOL    HW216489   6.239   2.074   5.938 -0.7427  0.5372  2.0603
 4853SOL     OW16490   5.149   6.828   7.241  0.0654  0.1310  0.0739
 4853SOL    HW116491   5.123   6.755   7.186  3.6290 -1.0476 -0.3372
 4853SOL    HW216492   5.135   6.905   7.187  1.5455 -0.8173 -1.7772
 4854SOL     OW16493   7.312   0.383   8.470  0.2663  0.2424 -0.1499
 4854SOL    HW116494   7.350   0.438   8.402 -1.2734 -0.3014 -1.5221
 4854SOL    HW216495   7.383   0.323   8.495  1.2844  1.3972 -0.2134
 4855SOL     OW16496   2.980   0.811   2.675  0.3042  0.5568  0.0143
 4855SOL    HW116497   3.067   0.841   2.649  0.6833 -0.4101  0.1415
 4855SOL    HW216498   2.996   0.733   2.728 -0.6745 -0.1120 -0.6451
 4856SOL     OW16499   3.574   5.322   7.574  0.2673  0.1669 -0.7608
 4856SOL    HW116500   3.602   5.307   7.484 -0.0252  0.3467 -0.8804
 4856SOL    HW216501   3.603   5.411   7.594 -0.1130  0.3132 -0.8478
 4857SOL     OW16502   7.739   5.893   5.900 -0.1225 -0.4312  0.3144
 4857SOL    HW116503   7.799   5.868   5.971  1.7330  2.2326 -0.1489
 4857SOL    HW216504   7.679   5.955   5.940  2.5601  3.2060 -0.6938
 4858SOL     OW16505   0.385   1.516   8.137 -0.4244 -0.3103 -0.6034
 4858SOL    HW116506   0.331   1.437   8.136 -0.0052 -0.6020 -0.3507
 4858SOL    HW216507   0.364   1.559   8.219 -2.5293  1.1687 -1.8145
 4859SOL     OW16508   7.655   6.004   8.300  0.4578 -0.0525 -0.3427
 4859SOL    HW116509   7.647   5.967   8.212 -1.5546  1.4002 -0.8389
 4859SOL    HW216510   7.587   5.960   8.351  2.0845 -1.4161  0.7396
 4860SOL     OW16511   6.376   0.846   2.791 -0.0511 -0.0166 -0.8001
 4860SOL    HW116512   6.471   0.848   2.796 -0.0320  2.5196 -0.8843
 4860SOL    HW216513   6.356   0.767   2.740  1.9245 -1.0692 -0.0312
 4861SOL     OW16514   2.645   8.426   6.285  0.3228  0.2331 -0.1851
 4861SOL    HW116515   2.631   8.345   6.236 -0.9152  0.7274 -0.6672
 4861SOL    HW216516   2.717   8.470   6.239 -0.3391  0.3497 -1.1313
 4862SOL     OW16517   5.804   0.621   8.035  0.1051 -0.3904 -0.1814
 4862SOL    HW116518   5.895   0.640   8.060  0.7318 -1.6938 -1.3126
 4862SOL    HW216519   5.768   0.706   8.011  1.5271 -0.0325 -1.2028
 4863SOL     OW16520   0.652   0.341   6.081  0.3541  0.4699 -0.5810
 4863SOL    HW116521   0.699   0.362   6.001  0.3353  0.5421 -0.5729
 4863SOL    HW216522   0.645   0.424   6.128 -0.3643  0.5959 -0.8907
 4864SOL     OW16523   0.486   7.438   3.990 -0.0843  0.3558 -0.5516
 4864SOL    HW116524   0.429   7.512   3.969  0.0306  1.2036  1.8281
 4864SOL    HW216525   0.428   7.362   3.988 -0.8616  0.9205 -0.2073
 4865SOL     OW16526   4.301   8.550   8.847 -0.0472  0.5352 -0.1411
 4865SOL    HW116527   4.373   8.575   8.789  1.3994  0.0887  1.3793
 4865SOL    HW216528   4.323   8.590   8.931 -1.1764 -0.2807  0.5796
 4866SOL     OW16529   0.392   3.195   3.123  0.2170 -0.1222 -0.2735
 4866SOL    HW116530   0.368   3.230   3.037  0.5122  1.2472  0.1771
 4866SOL    HW216531   0.332   3.122   3.137 -0.6222  0.3762 -1.1389
 4867SOL     OW16532   5.495   1.856   0.325  0.1353  0.0266  0.1668
 4867SOL    HW116533   5.434   1.796   0.367  0.0518 -0.9498 -1.2842
 4867SOL    HW216534   5.537   1.902   0.398 -1.5579 -0.0070  1.2407
 4868SOL     OW16535   6.387   3.165   4.674 -0.0623 -0.3044 -0.0334
 4868SOL    HW116536   6.435   3.237   4.634  0.7502  0.1512  1.6679
 4868SOL    HW216537   6.297   3.175   4.643  0.3214  0.6376 -0.8657
 4869SOL     OW16538   5.193   4.250   5.580 -0.4444  0.4338  0.1303
 4869SOL    HW116539   5.214   4.183   5.644 -0.8556 -0.3143 -0.4958
 4869SOL    HW216540   5.109   4.223   5.543 -0.2116  0.8361 -0.7280
 4870SOL     OW16541   3.592   8.504   3.334  0.2413 -0.5577 -0.0207
 4870SOL    HW116542   3.652   8.441   3.375  0.1906  0.2539  1.3685
 4870SOL    HW216543   3.650   8.572   3.298  0.1911  0.3464  1.5266
 4871SOL     OW16544   3.306   4.565   7.134 -0.3313 -0.1556 -0.0949
 4871SOL    HW116545   3.396   4.559   7.102  0.2026  0.1109  1.3010
 4871SOL    HW216546   3.280   4.655   7.114 -0.0281 -0.0160  0.1199
 4872SOL     OW16547   1.760   7.625   3.714 -0.6652  0.0076 -0.5923
 4872SOL    HW116548   1.828   7.689   3.737 -1.6496  0.9489 -0.1842
 4872SOL    HW216549   1.800   7.540   3.733  1.0961  0.3891 -2.2204
 4873SOL     OW16550   7.912   3.835   6.740 -0.1237  0.1361  0.3505
 4873SOL    HW116551   7.980   3.893   6.772  0.1140  0.1111 -0.1098
 4873SOL    HW216552   7.864   3.887   6.676 -1.4349  0.6367  1.6777
 4874SOL     OW16553   5.975   0.301   4.873  0.1073  0.4446  0.3019
 4874SOL    HW116554   5.883   0.307   4.847 -1.0277 -1.6926  3.3052
 4874SOL    HW216555   5.987   0.372   4.935  0.0184 -0.2046  1.0713
 4875SOL     OW16556   8.251   4.267   3.108 -0.2566 -0.0221  0.4600
 4875SOL    HW116557   8.255   4.293   3.200 -1.6393  0.4848  0.4084
 4875SOL    HW216558   8.158   4.276   3.086 -0.0140 -0.6292 -0.8432
 4876SOL     OW16559   2.677   1.618   0.662  0.2321 -0.3932  0.3409
 4876SOL    HW116560   2.664   1.582   0.750  1.6413 -1.1537  0.2556
 4876SOL    HW216561   2.716   1.704   0.677  1.2495 -0.8599  0.4705
 4877SOL     OW16562   4.173   8.144   3.418  0.8022 -0.4308  0.2349
 4877SOL    HW116563   4.144   8.202   3.489 -0.1336 -1.1422  0.4529
 4877SOL    HW216564   4.187   8.060   3.460 -3.1202 -1.8597 -0.8462
 4878SOL     OW16565   7.537   3.189   5.085  0.5862  0.0422  0.8006
 4878SOL    HW116566   7.494   3.243   5.151 -2.4366 -0.1757 -0.8029
 4878SOL    HW216567   7.583   3.251   5.029 -1.2801  0.8302  0.0727
 4879SOL     OW16568   3.042   6.353   8.734 -0.1824 -0.4590  0.1562
 4879SOL    HW116569   3.009   6.442   8.749  3.6869  1.1836  0.2027
 4879SOL    HW216570   2.977   6.296   8.774 -3.4130  2.2093 -0.8283
 4880SOL     OW16571   2.798   6.181   0.413  0.5164  0.5551 -0.6522
 4880SOL    HW116572   2.781   6.262   0.363  1.1513  0.9365 -0.2557
 4880SOL    HW216573   2.881   6.197   0.457  0.3109 -0.0558 -0.0268
 4881SOL     OW16574   6.523   1.418   2.749 -0.0807 -0.2538 -0.1427
 4881SOL    HW116575   6.527   1.323   2.756 -1.6629 -0.4737 -1.6075
 4881SOL    HW216576   6.433   1.441   2.768 -0.1060  0.7716 -1.3135
 4882SOL     OW16577   3.627   6.733   5.207 -0.0167  0.2018  0.8382
 4882SOL    HW116578   3.653   6.677   5.280  0.7720  0.8463  1.0640
 4882SOL    HW216579   3.565   6.680   5.157  1.0882 -1.0625  0.7557
 4883SOL     OW16580   1.573   3.089   0.119  0.0598 -0.0283  0.4117
 4883SOL    HW116581   1.626   3.010   0.113  1.2912  0.7746  0.3203
 4883SOL    HW216582   1.636   3.161   0.111 -1.0624  0.9634  0.2051
 4884SOL     OW16583   4.327   8.773   6.968 -0.1171  0.1805  0.5789
 4884SOL    HW116584   4.277   8.785   6.887  0.0857 -0.2439  0.3899
 4884SOL    HW216585   4.263   8.790   7.037 -0.8867 -1.5866  0.3575
 4885SOL     OW16586   1.682   1.502   0.422 -0.3432  0.1502  0.2308
 4885SOL    HW116587   1.663   1.426   0.367  1.1618  0.9289 -1.5101
 4885SOL    HW216588   1.613   1.565   0.401  0.5402  0.6645 -1.3227
 4886SOL     OW16589   5.201   2.467   8.060  0.5571  0.4273  0.3813
 4886SOL    HW116590   5.173   2.429   8.143  0.2850  0.9283  0.5233
 4886SOL    HW216591   5.292   2.493   8.076  0.9783 -0.7834  0.0622
 4887SOL     OW16592   3.619   6.681   1.053 -0.1027  0.3322 -0.0828
 4887SOL    HW116593   3.541   6.732   1.078 -1.3746 -1.2163 -0.6971
 4887SOL    HW216594   3.656   6.730   0.979 -0.9651  0.6850 -0.2957
 4888SOL     OW16595   6.765   0.026   1.819  0.1101 -0.3586 -0.2303
 4888SOL    HW116596   6.678   0.061   1.798 -0.4487 -1.2827  0.5051
 4888SOL    HW216597   6.825   0.100   1.802 -0.7665  0.1751 -1.0822
 4889SOL     OW16598   0.747   2.541   8.417  0.5026 -0.2138 -0.1243
 4889SOL    HW116599   0.804   2.593   8.361  0.9945  1.8206  2.0528
 4889SOL    HW216600   0.659   2.560   8.384  0.8859 -1.1892 -1.8025
 4890SOL     OW16601   4.559   0.224   6.275 -0.1117 -1.0432 -0.2638
 4890SOL    HW116602   4.643   0.261   6.299 -1.2526  0.6611  1.3443
 4890SOL    HW216603   4.504   0.235   6.353 -2.3852 -0.3586 -1.8636
 4891SOL     OW16604   4.933   2.669   0.135 -0.1212 -0.7702  0.1290
 4891SOL    HW116605   4.883   2.622   0.202 -0.7871 -0.0055  0.1850
 4891SOL    HW216606   5.010   2.703   0.182 -1.0507  0.5477  0.7447
 4892SOL     OW16607   7.371   1.508   3.752 -0.9900 -0.1854  0.7316
 4892SOL    HW116608   7.396   1.512   3.660 -1.0670 -2.7112  0.5295
 4892SOL    HW216609   7.445   1.545   3.799 -0.9235  1.0877 -0.2938
 4893SOL     OW16610   4.115   7.705   3.572  0.3881 -0.0358 -0.7938
 4893SOL    HW116611   4.043   7.656   3.612  1.5107 -0.0361  1.3896
 4893SOL    HW216612   4.133   7.659   3.490 -2.1415  0.0600 -1.4877
 4894SOL     OW16613   3.330   8.604   4.801  0.1858 -0.0323 -0.6201
 4894SOL    HW116614   3.292   8.662   4.867  0.1674 -1.3417  0.5679
 4894SOL    HW216615   3.363   8.663   4.734  0.8280  1.3904  0.8828
 4895SOL     OW16616   3.924   4.583   8.154  0.0144  0.7305  0.2975
 4895SOL    HW116617   3.914   4.541   8.068  0.3106  1.3148 -0.0321
 4895SOL    HW216618   3.987   4.653   8.138 -1.5226  2.2168  0.4961
 4896SOL     OW16619   3.929   8.691   4.169  0.1980 -0.0871  0.3330
 4896SOL    HW116620   3.934   8.676   4.263 -2.3871  0.6505  0.6521
 4896SOL    HW216621   3.926   8.786   4.160 -1.7846 -0.1581 -0.2817
 4897SOL     OW16622   1.111   3.625   3.323  0.2667 -0.2962 -0.3614
 4897SOL    HW116623   1.165   3.614   3.244  0.7359 -0.3369 -0.0430
 4897SOL    HW216624   1.053   3.548   3.323 -1.7875  1.1313 -2.1979
 4898SOL     OW16625   5.033   2.620   3.711 -0.1568  0.3275 -0.0467
 4898SOL    HW116626   5.061   2.637   3.621  1.2028  1.5948  0.5959
 4898SOL    HW216627   5.062   2.695   3.761 -0.6735 -0.4706  1.5312
 4899SOL     OW16628   0.067   5.777   5.065  0.2656 -0.5054 -0.1246
 4899SOL    HW116629   0.092   5.818   5.148 -0.3492 -0.9992  0.3118
 4899SOL    HW216630   0.150   5.758   5.022  0.5757  0.6052 -0.0520
 4900SOL     OW16631   3.491   7.916   8.395  0.2211 -0.0253  0.1420
 4900SOL    HW116632   3.413   7.892   8.345 -0.0594  0.4585  0.3411
 4900SOL    HW216633   3.540   7.974   8.337  0.4800 -0.3978 -0.0159
 4901SOL     OW16634   4.472   6.088   6.008 -0.1284  0.2806  0.1398
 4901SOL    HW116635   4.562   6.113   6.026 -0.4228  2.6402 -1.3165
 4901SOL    HW216636   4.461   6.102   5.914 -2.2775  1.0524  0.4491
 4902SOL     OW16637   8.283   5.663   3.366 -0.0988 -0.2962 -0.6268
 4902SOL    HW116638   8.324   5.578   3.385 -0.3921 -0.4952 -0.8618
 4902SOL    HW216639   8.287   5.710   3.448 -3.3961 -1.9940  0.7091
 4903SOL     OW16640   7.601   7.484   6.904 -0.1598 -0.8162  0.4368
 4903SOL    HW116641   7.508   7.463   6.898  0.1325 -1.9190 -0.5274
 4903SOL    HW216642   7.624   7.464   6.995 -0.9281 -0.2177  0.7704
 4904SOL     OW16643   2.374   6.839   7.298 -0.2194 -0.2029  0.2150
 4904SOL    HW116644   2.417   6.756   7.318 -0.9307 -0.7142 -0.3256
 4904SOL    HW216645   2.286   6.830   7.334  0.2105  0.9911  1.6787
 4905SOL     OW16646   3.343   5.979   1.188  0.2066 -0.2529 -0.4525
 4905SOL    HW116647   3.283   5.924   1.138  0.9253  0.3456 -2.0538
 4905SOL    HW216648   3.430   5.950   1.161  0.6412 -0.3119  0.9335
 4906SOL     OW16649   6.188   1.962   3.614  1.0328  0.7179 -0.0872
 4906SOL    HW116650   6.107   1.958   3.665  1.1941  2.6795  0.4181
 4906SOL    HW216651   6.245   1.897   3.654 -0.5371 -1.3209 -0.9873
 4907SOL     OW16652   5.600   8.090   1.238  0.0109 -0.0343 -0.2592
 4907SOL    HW116653   5.620   8.173   1.196  2.9846 -0.4293  0.1304
 4907SOL    HW216654   5.573   8.113   1.326  0.6765  0.5481 -0.1976
 4908SOL     OW16655   0.852   2.340   6.778  0.4962 -0.0544  0.1263
 4908SOL    HW116656   0.895   2.356   6.862 -0.4924  0.1332  0.6148
 4908SOL    HW216657   0.783   2.276   6.797 -1.1049  1.5203 -0.0762
 4909SOL     OW16658   0.176   2.691   6.227  0.3935 -0.3132  0.0970
 4909SOL    HW116659   0.092   2.678   6.271  1.1158 -1.5553  1.2069
 4909SOL    HW216660   0.155   2.689   6.134 -0.8037 -0.6164  0.3543
 4910SOL     OW16661   8.226   8.642   1.839 -0.3939  0.4063  0.1591
 4910SOL    HW116662   8.161   8.574   1.825 -0.0946  0.2316 -0.4180
 4910SOL    HW216663   8.255   8.666   1.751  0.0597  0.7313  0.3932
 4911SOL     OW16664   8.623   5.231   3.409  0.0985 -0.0814  0.0227
 4911SOL    HW116665   8.641   5.164   3.475 -0.1010 -0.7629 -0.6103
 4911SOL    HW216666   8.710   5.254   3.375  0.0933 -0.6096 -0.3408
 4912SOL     OW16667   5.645   7.468   2.211  0.9270 -0.1311  0.1791
 4912SOL    HW116668   5.639   7.513   2.295  0.1084 -0.8571  0.5290
 4912SOL    HW216669   5.662   7.537   2.147 -0.7730  0.7621  0.6370
 4913SOL     OW16670   3.973   3.894   2.561 -1.0617 -0.1315  0.3873
 4913SOL    HW116671   3.939   3.914   2.474 -0.3964 -1.8183 -0.3088
 4913SOL    HW216672   4.055   3.847   2.544 -0.2962  0.5645  1.9543
 4914SOL     OW16673   4.748   3.453   4.113  0.9533 -0.0010  0.2511
 4914SOL    HW116674   4.816   3.422   4.173  1.4356  0.7129  0.0855
 4914SOL    HW216675   4.693   3.509   4.167 -0.8069 -2.2431  0.9314
 4915SOL     OW16676   0.383   3.418   3.835  0.1711 -0.2216 -0.2798
 4915SOL    HW116677   0.470   3.394   3.803  0.3850 -0.2391  0.3086
 4915SOL    HW216678   0.369   3.359   3.909 -0.3052 -0.1520 -0.3162
 4916SOL     OW16679   6.842   0.907   8.482 -0.3066 -0.6017 -0.1270
 4916SOL    HW116680   6.806   0.938   8.399  0.2827 -0.2861 -0.2711
 4916SOL    HW216681   6.899   0.978   8.512 -0.3556 -0.7978  0.4485
 4917SOL     OW16682   7.562   3.554   2.542 -0.0238 -0.7274 -0.2943
 4917SOL    HW116683   7.471   3.530   2.555 -0.1602 -1.4385 -2.2961
 4917SOL    HW216684   7.610   3.499   2.604 -0.9105 -0.6239  0.5029
 4918SOL     OW16685   2.592   8.186   0.241 -0.3561 -0.4212 -0.0695
 4918SOL    HW116686   2.546   8.103   0.235  3.7493 -3.0815  1.3689
 4918SOL    HW216687   2.651   8.187   0.165 -0.2708  1.1677 -0.0296
 4919SOL     OW16688   1.879   4.274   0.750 -0.1206  0.6174 -0.0887
 4919SOL    HW116689   1.808   4.232   0.702 -0.2453 -0.4821  1.0147
 4919SOL    HW216690   1.871   4.241   0.839  2.0368  0.1161 -0.0224
 4920SOL     OW16691   7.388   2.606   8.483  0.2712 -0.0126 -0.4338
 4920SOL    HW116692   7.363   2.515   8.462 -1.1794  0.7791 -2.4771
 4920SOL    HW216693   7.305   2.648   8.507  0.5660  1.2425 -1.4960
 4921SOL     OW16694   1.121   5.597   2.494 -0.0720  0.0594  0.6266
 4921SOL    HW116695   1.212   5.611   2.466  0.5660 -1.7314  1.6786
 4921SOL    HW216696   1.108   5.660   2.564  1.2710 -1.3902  2.2666
 4922SOL     OW16697   2.659   1.588   5.026 -0.1876  0.0285  0.7670
 4922SOL    HW116698   2.620   1.606   5.111  0.3757 -0.0322  1.0421
 4922SOL    HW216699   2.712   1.665   5.006 -0.6390  0.2232  0.2748
 4923SOL     OW16700   4.388   0.293   6.845  0.0519 -0.4808 -0.0068
 4923SOL    HW116701   4.313   0.317   6.900 -0.4196  1.4577 -1.3851
 4923SOL    HW216702   4.350   0.238   6.776  0.1930 -0.8055  0.1717
 4924SOL     OW16703   2.988   2.093   6.759 -0.3264 -0.2264 -0.7673
 4924SOL    HW116704   2.911   2.121   6.808 -0.0761  0.0117 -0.5122
 4924SOL    HW216705   2.963   2.008   6.723 -0.4396 -0.5045 -0.0502
 4925SOL     OW16706   3.558   7.817   2.200 -0.0356 -0.1238 -0.1047
 4925SOL    HW116707   3.639   7.767   2.211 -1.5695 -2.5662  0.8373
 4925SOL    HW216708   3.499   7.758   2.153 -0.9979  1.9893 -1.7819
 4926SOL     OW16709   7.037   3.570   6.182  0.2510 -0.5369  0.0925
 4926SOL    HW116710   7.041   3.515   6.261  1.3169  0.9714  1.1505
 4926SOL    HW216711   6.985   3.646   6.209  1.0131  0.2188 -0.5034
 4927SOL     OW16712   6.323   6.797   7.256 -0.4127 -0.0571 -0.2536
 4927SOL    HW116713   6.241   6.751   7.236  0.0918 -0.6544 -1.0231
 4927SOL    HW216714   6.315   6.881   7.212 -0.9135  0.1821  0.2858
 4928SOL     OW16715   2.184   0.032   5.233  0.3547 -0.1791 -0.4812
 4928SOL    HW116716   2.103   0.080   5.219  0.0270 -0.1495  1.3110
 4928SOL    HW216717   2.253   0.098   5.221 -0.1334  1.3125  3.4946
 4929SOL     OW16718   3.463   0.746   5.091 -0.1243  0.6424  0.0935
 4929SOL    HW116719   3.554   0.754   5.062 -1.2534  2.9623 -3.4396
 4929SOL    HW216720   3.442   0.830   5.131 -0.7129  0.1247  0.8957
 4930SOL     OW16721   4.489   2.983   0.565  0.1173  0.0180 -0.1222
 4930SOL    HW116722   4.580   2.987   0.595 -0.0143  0.6143  0.2087
 4930SOL    HW216723   4.439   2.959   0.642  0.2308 -2.6592 -0.8116
 4931SOL     OW16724   5.824   2.532   1.336 -0.1232 -0.0482 -0.3368
 4931SOL    HW116725   5.766   2.605   1.356  0.6635  0.4433  0.2169
 4931SOL    HW216726   5.857   2.504   1.422 -0.0521 -0.7447 -0.5869
 4932SOL     OW16727   0.524   8.121   1.804  0.3805 -0.3699  0.1192
 4932SOL    HW116728   0.512   8.090   1.715 -0.2231 -0.4660  0.2294
 4932SOL    HW216729   0.609   8.165   1.803  1.0888 -1.6906 -0.1302
 4933SOL     OW16730   6.635   5.077   4.604  0.3456  0.4301  0.2997
 4933SOL    HW116731   6.640   5.047   4.514  0.1594  3.5993 -0.8897
 4933SOL    HW216732   6.726   5.092   4.630  0.3232  1.2148 -0.0389
 4934SOL     OW16733   5.688   2.387   5.843  0.5382 -0.0146 -0.2189
 4934SOL    HW116734   5.626   2.416   5.777 -0.1537  0.9906  0.8333
 4934SOL    HW216735   5.656   2.425   5.925  2.1455 -0.0592  0.4752
 4935SOL     OW16736   0.570   2.347   1.541 -0.1290  0.2240  0.0227
 4935SOL    HW116737   0.653   2.331   1.585 -0.3609 -1.0350  0.0495
 4935SOL    HW216738   0.512   2.379   1.611 -0.3320 -1.2102  0.5432
 4936SOL     OW16739   6.125   1.062   8.844 -0.1377  0.3056  0.3443
 4936SOL    HW116740   6.128   1.121   8.919  1.3941  0.5158  0.1663
 4936SOL    HW216741   6.217   1.042   8.826 -0.4351  0.5465 -1.6791
 4937SOL     OW16742   2.490   7.212   8.852 -0.6087  0.6305 -0.4175
 4937SOL    HW116743   2.504   7.169   8.936  0.2267  0.3229 -0.6978
 4937SOL    HW216744   2.517   7.303   8.866  0.8224  0.2770 -0.6808
 4938SOL     OW16745   2.760   0.191   2.365  0.0112 -0.3624  0.0380
 4938SOL    HW116746   2.679   0.175   2.415 -0.3863  1.1726 -0.0638
 4938SOL    HW216747   2.735   0.178   2.274  0.5682 -2.4838  0.1343
 4939SOL     OW16748   8.417   8.189   5.013 -0.0365 -0.4647  0.4212
 4939SOL    HW116749   8.370   8.221   4.936  1.4834 -2.4722 -1.4767
 4939SOL    HW216750   8.422   8.264   5.072 -2.8482  0.6503 -0.5989
 4940SOL     OW16751   4.064   5.336   7.431 -0.3364 -0.2298  0.1699
 4940SOL    HW116752   4.160   5.337   7.428 -0.3059  0.3304  0.9896
 4940SOL    HW216753   4.043   5.295   7.515 -0.8054  0.0276  0.1838
 4941SOL     OW16754   1.572   2.086   8.835 -0.4184 -0.3050 -0.0760
 4941SOL    HW116755   1.507   2.113   8.771  0.4246  0.2824 -0.7119
 4941SOL    HW216756   1.577   2.159   8.897 -0.3594 -0.3453 -0.0329
 4942SOL     OW16757   0.149   5.525   8.660  0.3524 -0.0880  0.0422
 4942SOL    HW116758   0.179   5.505   8.749  0.1095  0.4322  0.2442
 4942SOL    HW216759   0.230   5.532   8.609  0.5496  0.6948  0.4557
 4943SOL     OW16760   5.530   6.997   6.914 -0.6073 -0.4567  0.1789
 4943SOL    HW116761   5.602   7.059   6.928 -0.6059 -0.3767 -0.1828
 4943SOL    HW216762   5.544   6.929   6.981 -0.2882 -0.3599  0.2118
 4944SOL     OW16763   0.087   3.089   2.377  0.2876  0.0952  0.8671
 4944SOL    HW116764   0.123   3.174   2.403 -0.6149  0.0106  2.5429
 4944SOL    HW216765   0.106   3.031   2.452 -1.9880 -0.3132  1.1986
 4945SOL     OW16766   3.345   8.171   0.334  0.1568 -0.2972 -0.1523
 4945SOL    HW116767   3.398   8.092   0.343  0.2703 -0.0304  2.4015
 4945SOL    HW216768   3.397   8.240   0.375 -1.7769  0.1095  1.8184
 4946SOL     OW16769   2.446   7.091   3.304  0.3218 -0.1390 -0.2136
 4946SOL    HW116770   2.430   7.103   3.398  0.1576 -1.0666 -0.1168
 4946SOL    HW216771   2.387   7.020   3.279 -1.8994  2.0280 -1.6801
 4947SOL     OW16772   4.206   8.207   6.916 -0.5373  0.1361  0.3035
 4947SOL    HW116773   4.181   8.140   6.980 -1.5604 -0.9472 -1.1614
 4947SOL    HW216774   4.299   8.189   6.899  0.3223  1.6736  2.8361
 4948SOL     OW16775   0.967   4.940   2.017  0.0500  0.4445  0.0520
 4948SOL    HW116776   1.017   4.902   1.944  0.0867  0.6300 -0.0195
 4948SOL    HW216777   1.034   4.972   2.078  0.1112  3.2102 -1.3020
 4949SOL     OW16778   5.827   1.626   3.882  0.3412  0.5583  0.3795
 4949SOL    HW116779   5.856   1.677   3.957  1.3942  0.3085  0.1711
 4949SOL    HW216780   5.866   1.671   3.806  1.3943 -0.5973  0.2054
 4950SOL     OW16781   5.846   1.584   4.576 -0.4115  0.2138  0.1149
 4950SOL    HW116782   5.787   1.598   4.501  0.9036  4.1233 -0.4441
 4950SOL    HW216783   5.792   1.602   4.653 -0.9150 -0.3059 -0.1128
 4951SOL     OW16784   7.504   0.668   0.645 -0.3170 -0.4410  0.2662
 4951SOL    HW116785   7.511   0.691   0.552 -0.2974 -1.2113  0.0735
 4951SOL    HW216786   7.583   0.618   0.663  0.8909  1.6937  1.3151
 4952SOL     OW16787   0.047   2.322   0.562  0.5916 -0.5623 -0.1550
 4952SOL    HW116788   0.017   2.361   0.480 -0.5931 -0.5637  0.2546
 4952SOL    HW216789   0.042   2.394   0.625  1.5954 -0.5351 -0.1020
 4953SOL     OW16790   6.161   2.472   2.116 -0.2442 -0.3603  0.5081
 4953SOL    HW116791   6.097   2.400   2.115  0.5276 -1.0750 -0.9341
 4953SOL    HW216792   6.238   2.434   2.158 -0.6049  0.3822  1.8929
 4954SOL     OW16793   1.802   1.714   7.047 -0.4476  0.2209  0.1513
 4954SOL    HW116794   1.723   1.701   7.100 -0.0967 -0.9686  0.4266
 4954SOL    HW216795   1.781   1.786   6.988 -1.1998  0.9236  1.2427
 4955SOL     OW16796   1.107   5.137   1.457  0.1218  0.4077 -0.0181
 4955SOL    HW116797   1.016   5.111   1.468  0.1869  0.6133  1.0808
 4955SOL    HW216798   1.121   5.206   1.522  1.0096  0.5028 -0.2900
 4956SOL     OW16799   3.303   4.301   7.609 -0.5728  0.4029  0.0130
 4956SOL    HW116800   3.309   4.393   7.635 -2.5608  0.6553 -0.2902
 4956SOL    HW216801   3.323   4.301   7.515 -0.7210  0.5512 -0.0193
 4957SOL     OW16802   3.625   7.439   6.337  0.3082  0.4108  0.0065
 4957SOL    HW116803   3.719   7.431   6.321  0.4183 -0.3325  0.9073
 4957SOL    HW216804   3.591   7.352   6.320 -0.1827  0.6275 -0.1182
 4958SOL     OW16805   6.469   3.993   6.875  0.3046 -0.1085  0.3275
 4958SOL    HW116806   6.391   4.028   6.832  0.4410 -0.2046 -0.0066
 4958SOL    HW216807   6.477   4.044   6.955 -0.7576 -0.8684  0.9453
 4959SOL     OW16808   6.014   0.151   3.202  0.3705 -0.2886  0.2643
 4959SOL    HW116809   6.056   0.222   3.251  0.1602  0.3353 -0.4341
 4959SOL    HW216810   5.932   0.135   3.248 -0.5109  1.2866 -0.6723
 4960SOL     OW16811   5.516   7.479   6.822  0.3276  0.8268  0.0422
 4960SOL    HW116812   5.535   7.572   6.831 -1.3998  1.4391 -2.0082
 4960SOL    HW216813   5.514   7.446   6.912  0.4728  2.8494  0.8314
 4961SOL     OW16814   4.262   4.556   3.435  0.0215  0.4439  0.3907
 4961SOL    HW116815   4.227   4.506   3.508 -0.4273  1.4889  0.9252
 4961SOL    HW216816   4.195   4.548   3.367 -1.0325  1.8856  1.1752
 4962SOL     OW16817   0.510   2.643   8.369 -0.0731  0.0999 -0.5485
 4962SOL    HW116818   0.525   2.702   8.443 -0.2039 -0.2481 -0.2454
 4962SOL    HW216819   0.510   2.701   8.292 -0.9755  0.6039 -0.1821
 4963SOL     OW16820   0.764   3.098   4.202 -0.2665  1.0228  0.1626
 4963SOL    HW116821   0.832   3.031   4.208 -0.3617  0.9352  0.2593
 4963SOL    HW216822   0.715   3.076   4.122 -0.8776  0.4322  0.6906
 4964SOL     OW16823   8.678   6.223   1.220  0.1725  0.0100  0.3172
 4964SOL    HW116824   8.713   6.136   1.242 -2.6673 -0.9970  1.2791
 4964SOL    HW216825   8.631   6.209   1.138  1.1705  1.1290 -0.4870
 4965SOL     OW16826   4.100   4.400   3.602 -0.0040 -0.1948  0.1261
 4965SOL    HW116827   4.060   4.343   3.668  1.3155  0.8260  1.9059
 4965SOL    HW216828   4.078   4.489   3.632 -1.5608  0.3254 -2.2755
 4966SOL     OW16829   4.365   1.575   8.410 -0.2568  0.5505  0.1661
 4966SOL    HW116830   4.451   1.536   8.427 -0.6512 -0.4576 -0.0599
 4966SOL    HW216831   4.319   1.508   8.359 -2.1336 -0.1328  2.5609
 4967SOL     OW16832   3.773   6.894   2.304 -0.0659  0.2913 -0.5198
 4967SOL    HW116833   3.868   6.883   2.314 -0.0394 -0.7348 -1.6364
 4967SOL    HW216834   3.761   6.987   2.287  0.4463  0.9711  2.3163
 4968SOL     OW16835   5.236   5.103   4.895 -0.2432 -0.1975  0.0329
 4968SOL    HW116836   5.287   5.038   4.846 -0.2278 -0.9175  0.9804
 4968SOL    HW216837   5.290   5.123   4.971 -0.9273 -0.1974  0.5199
 4969SOL     OW16838   2.266   1.795   6.687 -0.0897  0.2943 -0.2247
 4969SOL    HW116839   2.255   1.743   6.767 -0.3764 -0.0101 -0.4589
 4969SOL    HW216840   2.304   1.877   6.717 -0.2600  0.2102  0.2356
 4970SOL     OW16841   6.892   5.302   5.227 -0.2944 -0.0288 -0.0293
 4970SOL    HW116842   6.900   5.397   5.233 -2.7004  0.3603 -1.5829
 4970SOL    HW216843   6.889   5.284   5.133 -0.1416 -1.6356  0.2379
 4971SOL     OW16844   5.952   8.332   4.531 -0.4175 -0.0278  0.2249
 4971SOL    HW116845   5.954   8.423   4.559 -0.0840  0.0099  0.0825
 4971SOL    HW216846   5.958   8.281   4.612  0.3570  0.0780  0.2397
 4972SOL     OW16847   1.240   2.472   3.575  0.0704  0.2192 -0.0997
 4972SOL    HW116848   1.318   2.450   3.625  1.3181  2.6287 -0.8005
 4972SOL    HW216849   1.217   2.560   3.604  0.3196  1.3729 -2.9885
 4973SOL     OW16850   7.730   7.391   7.160  0.1790 -0.2170 -0.0915
 4973SOL    HW116851   7.705   7.305   7.125  0.0733  0.3409 -1.4439
 4973SOL    HW216852   7.820   7.403   7.131 -0.3916  0.9016 -1.5227
 4974SOL     OW16853   3.629   3.763   7.806 -0.3292  0.0926  0.6892
 4974SOL    HW116854   3.684   3.687   7.825  0.7541  0.6710 -0.0540
 4974SOL    HW216855   3.611   3.757   7.712 -2.4905 -0.6770  1.0904
 4975SOL     OW16856   1.511   0.324   7.080 -0.2448  0.3242 -0.0998
 4975SOL    HW116857   1.572   0.254   7.056 -0.0397  1.5305 -3.6916
 4975SOL    HW216858   1.567   0.398   7.103 -0.4221  0.3755  0.1776
 4976SOL     OW16859   0.512   2.218   5.296 -0.3482 -0.0980 -0.2948
 4976SOL    HW116860   0.593   2.268   5.311 -0.4060 -0.4252  1.3372
 4976SOL    HW216861   0.530   2.132   5.333 -1.3418 -0.2778 -0.2098
 4977SOL     OW16862   8.559   8.866   7.509  0.0794  0.5561  0.5112
 4977SOL    HW116863   8.613   8.861   7.587  1.2446 -0.4066 -0.3028
 4977SOL    HW216864   8.588   8.792   7.456 -0.8664  1.0245 -0.7090
 4978SOL     OW16865   0.801   8.222   4.917  0.7676 -0.5015  0.5420
 4978SOL    HW116866   0.791   8.138   4.872  0.7347 -0.5990  0.7274
 4978SOL    HW216867   0.782   8.288   4.851 -0.8855 -0.6747  0.8077
 4979SOL     OW16868   0.275   6.971   1.745  0.0685 -0.1965 -0.1239
 4979SOL    HW116869   0.243   6.948   1.658  0.7027  1.3167 -0.7976
 4979SOL    HW216870   0.371   6.970   1.736  0.1333  0.6041  0.3525
 4980SOL     OW16871   8.808   2.855   4.163  0.0642 -0.4133  0.4654
 4980SOL    HW116872   8.755   2.858   4.243 -0.5720 -0.8630  0.0704
 4980SOL    HW216873   8.871   2.785   4.179 -1.3377 -1.9075 -0.1687
 4981SOL     OW16874   6.251   7.485   6.178 -0.5678  0.1553  0.7469
 4981SOL    HW116875   6.257   7.564   6.124  0.9019 -1.4801 -1.6608
 4981SOL    HW216876   6.182   7.505   6.242 -1.3514  2.7702 -0.7733
 4982SOL     OW16877   2.917   6.379   7.409 -0.2807  0.0838  0.5830
 4982SOL    HW116878   3.009   6.395   7.387 -0.0858  0.3415  1.5528
 4982SOL    HW216879   2.918   6.355   7.501 -1.0539 -1.1999  0.2863
 4983SOL     OW16880   1.602   5.989   6.544 -0.5435 -0.5880  0.4022
 4983SOL    HW116881   1.557   5.906   6.529  0.6578 -1.3152  0.7007
 4983SOL    HW216882   1.624   6.021   6.457 -1.0998 -0.5217  0.2817
 4984SOL     OW16883   5.955   5.128   8.410  0.1743  0.0170 -0.0268
 4984SOL    HW116884   5.879   5.179   8.437  0.3344 -1.0297  2.7549
 4984SOL    HW216885   6.008   5.189   8.358 -1.8394  1.1757 -0.8070
 4985SOL     OW16886   5.556   5.570   3.691  0.0031 -0.5472  0.5362
 4985SOL    HW116887   5.529   5.583   3.600 -0.4825 -1.0208  0.6078
 4985SOL    HW216888   5.601   5.485   3.691 -0.4399 -0.7838  0.8302
 4986SOL     OW16889   8.680   1.115   2.180 -0.5295  0.5008  0.0898
 4986SOL    HW116890   8.625   1.049   2.138 -0.1306  0.8298 -0.9918
 4986SOL    HW216891   8.634   1.198   2.167 -0.4623  0.5914  0.4158
 4987SOL     OW16892   4.999   8.764   7.232 -0.3182 -0.0378  0.4834
 4987SOL    HW116893   4.948   8.724   7.303  0.6261 -1.4351  0.4050
 4987SOL    HW216894   4.936   8.820   7.187 -1.1763  0.1323  1.8405
 4988SOL     OW16895   2.639   0.604   8.745  0.3448 -0.1877 -0.0410
 4988SOL    HW116896   2.683   0.579   8.663  0.0403  0.9505 -0.5653
 4988SOL    HW216897   2.584   0.679   8.721  0.1434  0.0715  1.1801
 4989SOL     OW16898   1.913   1.276   4.750 -0.1297 -0.1175  0.2202
 4989SOL    HW116899   1.936   1.356   4.702  0.2621 -0.2769  0.1401
 4989SOL    HW216900   1.918   1.206   4.684  1.4107 -0.4879  0.7084
 4990SOL     OW16901   4.096   1.410   3.044  0.1363  0.1042 -0.0226
 4990SOL    HW116902   4.033   1.460   2.992 -0.5985 -1.2218 -0.4800
 4990SOL    HW216903   4.065   1.418   3.134  1.9933  3.2705  0.4989
 4991SOL     OW16904   0.878   3.847   0.495  0.9482  0.2089 -0.6979
 4991SOL    HW116905   0.852   3.936   0.517 -0.7931 -0.2534 -0.7677
 4991SOL    HW216906   0.967   3.856   0.460 -0.0227  2.2078 -2.8572
 4992SOL     OW16907   6.439   2.170   1.269  0.3242  0.3666 -0.2200
 4992SOL    HW116908   6.530   2.152   1.294  0.0233 -1.1876 -0.1153
 4992SOL    HW216909   6.390   2.093   1.300 -0.8813  0.7548 -1.0818
 4993SOL     OW16910   4.843   6.697   8.228 -0.2584 -0.9032 -0.4918
 4993SOL    HW116911   4.898   6.730   8.157 -0.9795  1.4009 -0.0881
 4993SOL    HW216912   4.765   6.662   8.184 -0.2300 -0.4577 -0.9083
 4994SOL     OW16913   8.792   2.337   3.379 -0.0525 -0.4418 -0.0131
 4994SOL    HW116914   8.807   2.280   3.454 -1.1820 -0.1076  0.4762
 4994SOL    HW216915   8.860   2.311   3.316  0.4789 -1.1878  0.8439
 4995SOL     OW16916   1.207   7.434   0.929 -0.0910 -0.0869 -0.1756
 4995SOL    HW116917   1.231   7.478   1.011 -0.8200  0.7064 -0.3688
 4995SOL    HW216918   1.208   7.341   0.950  2.3278 -0.0875  0.0369
 4996SOL     OW16919   1.769   6.814   7.500  0.2758 -0.2917  0.5384
 4996SOL    HW116920   1.685   6.781   7.468 -0.5043 -0.1081  2.2881
 4996SOL    HW216921   1.746   6.881   7.564  1.7832  0.5555  0.2458
 4997SOL     OW16922   2.782   7.820   5.912 -0.4573  0.2262 -0.2307
 4997SOL    HW116923   2.849   7.860   5.857  1.1032 -0.2776  1.2077
 4997SOL    HW216924   2.829   7.753   5.962 -2.0624 -0.2243  0.7597
 4998SOL     OW16925   8.527   3.591   5.657 -0.1345 -0.3329  0.2405
 4998SOL    HW116926   8.533   3.624   5.568 -3.6183 -1.3124 -0.4997
 4998SOL    HW216927   8.578   3.510   5.657 -0.8812 -0.8320 -1.2011
 4999SOL     OW16928   1.868   1.111   1.610  1.1428 -0.6964 -0.1811
 4999SOL    HW116929   1.864   1.049   1.537  1.0529  0.7621 -1.4559
 4999SOL    HW216930   1.803   1.177   1.589  1.7041  0.2015  0.8087
 5000SOL     OW16931   3.658   4.511   5.896 -0.5050 -0.2638 -0.0832
 5000SOL    HW116932   3.681   4.432   5.944  0.9326 -0.8073 -1.5728
 5000SOL    HW216933   3.657   4.580   5.962  2.7301 -0.7272  0.6090
 5001SOL     OW16934   2.225   2.884   4.871  0.4763  0.0778  0.4596
 5001SOL    HW116935   2.155   2.940   4.905  1.4882  0.6961  1.6051
 5001SOL    HW216936   2.305   2.926   4.900  1.3065 -1.1863  0.0748
 5002SOL     OW16937   2.662   8.643   5.989  0.3983 -0.0010 -0.1364
 5002SOL    HW116938   2.711   8.723   5.970  1.7992 -0.7148  0.3524
 5002SOL    HW216939   2.701   8.576   5.932 -2.6836  0.1958 -2.7812
 5003SOL     OW16940   0.253   6.776   8.858  0.2408  0.1577 -0.3195
 5003SOL    HW116941   0.274   6.716   8.930 -2.4296 -1.6752 -0.8917
 5003SOL    HW216942   0.260   6.721   8.779  1.3575  1.6444 -1.3039
 5004SOL     OW16943   5.041   4.112   5.221  0.0015  0.2976 -0.3799
 5004SOL    HW116944   5.004   4.042   5.167  1.7654 -2.8243  2.1078
 5004SOL    HW216945   5.106   4.155   5.164  0.5645 -1.6994 -1.3391
 5005SOL     OW16946   7.172   3.950   5.596  0.0752 -0.4727  0.4413
 5005SOL    HW116947   7.182   3.943   5.501 -1.2150 -1.0429  0.3293
 5005SOL    HW216948   7.212   4.034   5.618 -1.7110  0.7998 -0.9356
 5006SOL     OW16949   5.262   6.695   6.896  0.7701  0.3530 -0.4312
 5006SOL    HW116950   5.196   6.663   6.957  1.0941 -0.9198 -0.7188
 5006SOL    HW216951   5.220   6.769   6.852  0.5780  1.4053  1.4061
 5007SOL     OW16952   0.736   6.817   0.366  0.3383  0.3377 -0.4349
 5007SOL    HW116953   0.806   6.859   0.317 -0.0703 -0.8692 -2.1468
 5007SOL    HW216954   0.781   6.767   0.435  1.1786 -0.3355 -1.4408
 5008SOL     OW16955   8.458   6.609   1.496  0.2153  0.1224 -0.5236
 5008SOL    HW116956   8.525   6.673   1.472  2.1243 -1.6163 -0.1006
 5008SOL    HW216957   8.409   6.651   1.566  0.0404  1.9061 -1.6288
 5009SOL     OW16958   3.146   1.050   2.480 -0.2801  0.0229 -0.3330
 5009SOL    HW116959   3.231   1.061   2.522  0.1230  1.8204 -1.5233
 5009SOL    HW216960   3.091   1.118   2.518 -0.2184  0.9787 -1.8745
 5010SOL     OW16961   8.813   1.913   3.845  0.1801  0.6033  0.3060
 5010SOL    HW116962   8.814   1.983   3.910 -0.7890  1.2401 -0.3329
 5010SOL    HW216963   8.775   1.838   3.891 -1.0240  1.2124  0.3536
 5011SOL     OW16964   2.274   0.476   2.953 -0.1050 -1.1648 -0.0091
 5011SOL    HW116965   2.223   0.557   2.947 -0.4900 -1.2533  1.5794
 5011SOL    HW216966   2.353   0.494   2.902 -0.5621 -0.1027 -0.3822
 5012SOL     OW16967   3.418   7.483   6.106 -0.1392  0.0952 -0.1907
 5012SOL    HW116968   3.508   7.498   6.077 -0.8024  0.3810 -2.2301
 5012SOL    HW216969   3.425   7.410   6.167  1.3959 -0.3156 -0.8003
 5013SOL     OW16970   6.301   8.508   6.986  0.1105  0.1481 -0.8100
 5013SOL    HW116971   6.217   8.525   7.029  0.2166 -0.2881 -0.4154
 5013SOL    HW216972   6.358   8.578   7.016  0.5057 -0.7710  0.6791
 5014SOL     OW16973   8.457   4.655   3.904 -0.7715 -0.2693  0.1623
 5014SOL    HW116974   8.456   4.750   3.917  0.5915 -0.2502  0.2897
 5014SOL    HW216975   8.366   4.628   3.914 -1.1554  1.0037  0.2704
 5015SOL     OW16976   4.458   3.660   7.495 -0.0251 -0.1040 -0.4898
 5015SOL    HW116977   4.395   3.679   7.426 -0.6307 -0.5062 -0.0619
 5015SOL    HW216978   4.543   3.656   7.450 -0.3636 -0.0274 -1.1490
 5016SOL     OW16979   8.289   5.830   0.537  0.3944  0.3937 -0.1380
 5016SOL    HW116980   8.367   5.884   0.535  1.0281 -0.4531  0.8539
 5016SOL    HW216981   8.280   5.797   0.448  1.0044  0.7217 -0.3234
 5017SOL     OW16982   3.793   1.509   4.635  0.1536  0.2007 -0.3449
 5017SOL    HW116983   3.878   1.478   4.666  0.0938  0.1452 -0.2344
 5017SOL    HW216984   3.806   1.602   4.617 -0.0552  0.4495  0.7374
 5018SOL     OW16985   5.340   2.198   1.688  0.2679  0.3619 -1.4652
 5018SOL    HW116986   5.254   2.161   1.707  0.8298 -0.1086  0.3602
 5018SOL    HW216987   5.332   2.290   1.713  0.6539  0.0177 -0.0095
 5019SOL     OW16988   4.265   5.102   3.391  0.7293  0.2159  0.6680
 5019SOL    HW116989   4.360   5.104   3.401  0.6306  0.5990  1.6198
 5019SOL    HW216990   4.237   5.191   3.413  0.2727  0.5574 -1.1313
 5020SOL     OW16991   5.512   2.534   5.171 -0.2550  0.2216  0.3504
 5020SOL    HW116992   5.510   2.600   5.240  1.2020  0.4650  0.2071
 5020SOL    HW216993   5.546   2.581   5.095 -4.0626  0.6024 -1.3448
 5021SOL     OW16994   2.743   7.296   8.247 -0.1905 -0.1230  0.2692
 5021SOL    HW116995   2.689   7.349   8.306  0.8846  0.7154  0.5343
 5021SOL    HW216996   2.788   7.234   8.304  0.7731  0.6219  0.3514
 5022SOL     OW16997   5.662   3.068   8.094 -0.5966  0.3401 -0.2722
 5022SOL    HW116998   5.606   3.131   8.050  0.4304  0.4057 -1.5422
 5022SOL    HW216999   5.649   2.986   8.047 -1.5173 -0.2942  1.0297
 5023SOL     OW17000   6.801   3.833   5.226  0.1380  0.9348  0.0121
 5023SOL    HW117001   6.820   3.746   5.191  0.0857  0.8793  0.1198
 5023SOL    HW217002   6.721   3.860   5.181  0.1046  0.8898  0.0456
 5024SOL     OW17003   7.830   4.197   7.788  0.6061  0.1285  0.7531
 5024SOL    HW117004   7.762   4.233   7.845  0.1339 -1.4194  1.2212
 5024SOL    HW217005   7.899   4.264   7.787  0.8337  0.0462  3.5260
 5025SOL     OW17006   0.565   8.349   7.044  0.1462 -0.1954  0.1967
 5025SOL    HW117007   0.562   8.444   7.028 -0.0405  0.0727  1.6779
 5025SOL    HW217008   0.588   8.312   6.959 -1.7321  1.0093 -0.9250
 5026SOL     OW17009   4.547   8.274   7.667  0.1201  0.1849 -0.1457
 5026SOL    HW117010   4.463   8.271   7.712 -0.4204  0.1190 -1.1138
 5026SOL    HW217011   4.540   8.205   7.600  0.2420  1.3326 -1.3952
 5027SOL     OW17012   3.125   8.867   4.595  0.3001  0.3510  0.2311
 5027SOL    HW117013   3.040   8.863   4.638  0.3771  1.0674  0.4588
 5027SOL    HW217014   3.186   8.892   4.664  0.5613  0.6688 -0.1099
 5028SOL     OW17015   1.840   8.352   3.491 -0.6010  0.2748  0.3318
 5028SOL    HW117016   1.759   8.378   3.448 -0.3393  1.2454  0.4003
 5028SOL    HW217017   1.902   8.422   3.471  0.8984 -1.4897 -1.5596
 5029SOL     OW17018   0.320   7.837   0.172  0.6778  0.2648  0.0889
 5029SOL    HW117019   0.321   7.783   0.251 -0.4732  1.9943  1.3645
 5029SOL    HW217020   0.274   7.784   0.107  1.9941 -1.3492  0.3993
 5030SOL     OW17021   6.233   1.513   2.737  0.6189  0.8167 -0.0173
 5030SOL    HW117022   6.236   1.546   2.647 -2.4268  1.0671 -0.1220
 5030SOL    HW217023   6.201   1.587   2.788 -0.5356 -0.1768  0.7450
 5031SOL     OW17024   5.264   4.113   6.768 -0.0356 -0.0144  0.4645
 5031SOL    HW117025   5.217   4.142   6.847  0.8033  0.8826  0.6523
 5031SOL    HW217026   5.356   4.128   6.788  0.3051 -1.2461 -0.1074
 5032SOL     OW17027   5.483   0.269   4.682  0.8327 -0.3521  0.0877
 5032SOL    HW117028   5.420   0.297   4.615  1.0715  0.4713  0.2009
 5032SOL    HW217029   5.463   0.177   4.696  1.1827 -0.7030 -1.5584
 5033SOL     OW17030   4.947   7.929   0.879  0.0101  0.0949 -0.0216
 5033SOL    HW117031   4.905   7.927   0.965 -1.9946  1.8622 -0.8626
 5033SOL    HW217032   4.917   7.848   0.836  0.1222 -0.2437  0.5307
 5034SOL     OW17033   7.670   8.465   4.285 -0.2238 -0.0226  0.2578
 5034SOL    HW117034   7.610   8.437   4.354 -1.6325 -0.4185 -1.0726
 5034SOL    HW217035   7.676   8.389   4.227  1.1667  0.2001  0.0794
 5035SOL     OW17036   1.197   4.065   2.067  0.3272 -0.0852  0.0212
 5035SOL    HW117037   1.159   3.977   2.074  0.0817 -0.0127 -0.3558
 5035SOL    HW217038   1.217   4.090   2.158  2.0671 -1.2402 -0.0170
 5036SOL     OW17039   5.532   3.221   7.878  0.5027 -0.0087  0.0140
 5036SOL    HW117040   5.516   3.316   7.879  0.4323 -0.0117 -0.4607
 5036SOL    HW217041   5.462   3.186   7.823  0.0610 -0.4305  0.8303
 5037SOL     OW17042   2.467   2.651   3.317  0.0720  0.5157 -0.0026
 5037SOL    HW117043   2.536   2.696   3.367  0.5093 -0.5682  0.3995
 5037SOL    HW217044   2.390   2.655   3.374  1.0609 -2.4118  1.7336
 5038SOL     OW17045   7.381   2.009   8.204 -0.1750 -0.0064  0.3142
 5038SOL    HW117046   7.321   2.064   8.255  1.2352  0.9629  0.9771
 5038SOL    HW217047   7.466   2.052   8.213  0.6421 -1.3972 -0.5394
 5039SOL     OW17048   8.540   5.120   2.045  0.5614 -0.2279  0.1694
 5039SOL    HW117049   8.622   5.152   2.006  0.1573  0.7231  0.0509
 5039SOL    HW217050   8.560   5.108   2.137  0.8805 -0.1521  0.1107
 5040SOL     OW17051   7.276   3.634   6.073 -0.4888  0.4972  0.3231
 5040SOL    HW117052   7.341   3.630   6.143 -0.3799  1.9640  0.3436
 5040SOL    HW217053   7.202   3.582   6.105  0.4971 -0.8849  0.4519
 5041SOL     OW17054   6.846   0.942   7.267  0.5131 -0.1738 -0.6186
 5041SOL    HW117055   6.896   0.862   7.278  1.9596  0.9656  2.0522
 5041SOL    HW217056   6.907   1.004   7.228  0.5727  0.6118  0.6579
 5042SOL     OW17057   5.681   7.650   2.436  0.4401 -0.3887 -0.1442
 5042SOL    HW117058   5.707   7.736   2.470  1.6471 -0.7655 -0.0687
 5042SOL    HW217059   5.648   7.603   2.512  0.3695 -0.2090 -0.0634
 5043SOL     OW17060   8.094   0.493   6.661  0.7408  0.1254 -0.0737
 5043SOL    HW117061   8.087   0.397   6.657 -0.8812  0.2291 -0.1470
 5043SOL    HW217062   8.028   0.519   6.725  0.7656  1.2423 -0.4875
 5044SOL     OW17063   6.723   1.648   6.775 -0.3760  0.3870  0.5994
 5044SOL    HW117064   6.685   1.704   6.707 -1.0951 -3.0883 -2.1671
 5044SOL    HW217065   6.652   1.588   6.799  0.8595 -0.5855  1.9959
 5045SOL     OW17066   2.474   1.797   3.135 -0.2370  0.4018  0.3374
 5045SOL    HW117067   2.443   1.872   3.083  0.9123  0.3556 -0.4463
 5045SOL    HW217068   2.476   1.829   3.225  0.4442  1.3892 -0.0144
 5046SOL     OW17069   1.654   5.291   2.466  0.1162  0.3529  0.6400
 5046SOL    HW117070   1.663   5.358   2.534  1.4339 -0.3998  1.2539
 5046SOL    HW217071   1.686   5.333   2.386  0.5084  0.6052  0.9243
 5047SOL     OW17072   8.003   4.888   3.938 -0.6675 -0.0624  0.0960
 5047SOL    HW117073   7.992   4.849   3.851  0.3371 -0.2657  0.0507
 5047SOL    HW217074   7.958   4.827   3.997  3.2852 -3.0167  0.4132
 5048SOL     OW17075   6.486   2.987   8.841 -0.3564 -0.3322  0.1066
 5048SOL    HW117076   6.528   2.928   8.778 -1.8042 -0.7977 -0.4633
 5048SOL    HW217077   6.393   2.980   8.821 -1.0723 -1.8002  3.3882
 5049SOL     OW17078   4.837   6.994   8.599  0.0944  0.2862  0.2542
 5049SOL    HW117079   4.780   7.043   8.659 -0.2873 -0.5123  0.5491
 5049SOL    HW217080   4.818   7.031   8.513 -0.7776  0.1267  0.3696
 5050SOL     OW17081   6.874   5.964   0.797  0.1736 -0.0323  0.0736
 5050SOL    HW117082   6.835   5.948   0.883  0.3989  3.9800  1.0803
 5050SOL    HW217083   6.815   6.027   0.756  2.7566  2.1338 -0.5001
 5051SOL     OW17084   1.303   7.631   4.180 -0.5167  0.6345  0.1302
 5051SOL    HW117085   1.356   7.681   4.241 -2.0284  0.6537  1.4906
 5051SOL    HW217086   1.281   7.551   4.227 -0.1385 -0.2303 -1.1167
 5052SOL     OW17087   8.763   6.108   7.244 -0.1757  0.9083  0.0909
 5052SOL    HW117088   8.718   6.076   7.321  1.0216  1.1181  0.9074
 5052SOL    HW217089   8.734   6.051   7.173  2.0756 -2.3181  1.5165
 5053SOL     OW17090   1.907   6.616   8.135  0.8241 -0.5786 -0.0003
 5053SOL    HW117091   1.982   6.612   8.194  0.5529 -0.6436  0.3422
 5053SOL    HW217092   1.830   6.614   8.193  0.5626 -0.0611 -0.3216
 5054SOL     OW17093   6.859   4.646   2.563 -0.7956 -0.4872 -0.2241
 5054SOL    HW117094   6.782   4.693   2.532 -0.4961  1.5442  1.8116
 5054SOL    HW217095   6.845   4.638   2.658  0.7084 -1.6284 -0.0631
 5055SOL     OW17096   0.529   1.226   7.008  0.0823  0.1878  0.1325
 5055SOL    HW117097   0.550   1.262   6.922  0.5654  1.8275  0.9001
 5055SOL    HW217098   0.613   1.191   7.040  0.0865  0.3298  0.2773
 5056SOL     OW17099   4.984   3.202   7.101 -0.6207 -0.2284  0.0602
 5056SOL    HW117100   4.899   3.223   7.140  0.2104  1.2524  1.1689
 5056SOL    HW217101   5.018   3.287   7.071  1.9757 -0.1457  2.7843
 5057SOL     OW17102   7.021   6.426   5.572  0.9389 -0.0868  0.2312
 5057SOL    HW117103   7.037   6.333   5.559  1.2124 -0.0014 -0.0647
 5057SOL    HW217104   6.965   6.451   5.499  1.6810  0.1905 -0.2475
 5058SOL     OW17105   6.652   6.111   2.555  0.2575 -0.0559  0.0296
 5058SOL    HW117106   6.586   6.065   2.607 -0.7895 -1.2294 -2.1772
 5058SOL    HW217107   6.658   6.198   2.594 -0.3424 -0.9104  2.1506
 5059SOL     OW17108   4.066   6.797   0.589 -0.1517 -0.1057  0.0732
 5059SOL    HW117109   4.158   6.776   0.607 -0.0887 -0.5479 -0.7631
 5059SOL    HW217110   4.050   6.876   0.641  0.1162 -1.1490  1.8388
 5060SOL     OW17111   1.352   8.620   5.222 -0.1735 -0.4259 -0.2251
 5060SOL    HW117112   1.329   8.569   5.299 -0.4939 -2.3259 -1.5012
 5060SOL    HW217113   1.270   8.661   5.195  0.2220  1.4105  1.1961
 5061SOL     OW17114   0.094   4.433   1.371  0.0259 -0.7591  0.4953
 5061SOL    HW117115   0.115   4.510   1.319 -0.3739  0.1252  1.6078
 5061SOL    HW217116  -0.002   4.430   1.373 -0.0767 -2.9462 -1.8866
 5062SOL     OW17117   8.659   8.500   1.345 -0.0090  0.2210 -0.3551
 5062SOL    HW117118   8.728   8.566   1.347 -1.8855  2.2835 -0.5319
 5062SOL    HW217119   8.608   8.516   1.425 -1.6313  0.3074 -1.3552
 5063SOL     OW17120   8.835   6.802   0.555  0.5178  0.3465  0.4531
 5063SOL    HW117121   8.918   6.774   0.517 -0.7962 -1.9699 -0.9359
 5063SOL    HW217122   8.859   6.871   0.617  3.5200 -0.5882  0.4866
 5064SOL     OW17123   1.772   3.495   4.799  0.3377  0.7483 -0.5674
 5064SOL    HW117124   1.849   3.475   4.853  0.4411  1.6559 -0.3621
 5064SOL    HW217125   1.786   3.447   4.718  1.0236  0.7323 -0.4470
 5065SOL     OW17126   7.865   8.032   6.458  0.1650  0.4296 -0.5774
 5065SOL    HW117127   7.773   8.003   6.456 -0.1752  1.5021 -1.0963
 5065SOL    HW217128   7.867   8.097   6.528  1.1390 -1.4373  1.2578
 5066SOL     OW17129   3.590   0.729   6.441 -0.3028  0.6933 -0.4210
 5066SOL    HW117130   3.674   0.693   6.468 -1.8502 -1.5723  1.8254
 5066SOL    HW217131   3.584   0.813   6.487  0.2479  0.3157  0.3637
 5067SOL     OW17132   1.333   8.855   8.459  0.2720 -0.2038 -0.4543
 5067SOL    HW117133   1.326   8.872   8.553  0.4947 -1.4205 -0.1995
 5067SOL    HW217134   1.312   8.762   8.450 -1.7738  0.3362 -1.8670
 5068SOL     OW17135   7.264   5.002   1.628  0.7906  0.0628  0.5047
 5068SOL    HW117136   7.172   4.981   1.637  1.1530 -1.3786  1.0767
 5068SOL    HW217137   7.267   5.098   1.625 -0.7501  0.1184 -0.0398
 5069SOL     OW17138   6.676   1.631   3.683  0.1178  0.5803 -0.0295
 5069SOL    HW117139   6.757   1.670   3.649  0.7772 -1.2229 -0.6342
 5069SOL    HW217140   6.705   1.569   3.750 -0.5580 -1.3521 -1.4186
 5070SOL     OW17141   1.877   5.059   3.936  0.3125 -0.2738  0.0624
 5070SOL    HW117142   1.821   5.119   3.886  0.2668 -0.8680 -0.6207
 5070SOL    HW217143   1.817   4.999   3.978  0.3334  0.4276  1.1276
 5071SOL     OW17144   5.826   7.003   5.068 -0.3373 -0.3254 -0.0445
 5071SOL    HW117145   5.810   7.066   5.139 -0.7913  2.6095 -2.5720
 5071SOL    HW217146   5.771   6.928   5.090 -2.3917  1.5052  1.4741
 5072SOL     OW17147   0.016   0.284   7.788 -0.5614 -0.3998 -0.3398
 5072SOL    HW117148   0.078   0.333   7.733 -0.6816 -0.3997 -0.4761
 5072SOL    HW217149   0.035   0.313   7.877 -0.1210 -0.6701 -0.3432
 5073SOL     OW17150   6.292   6.459   1.530  0.4892 -0.5528 -0.6256
 5073SOL    HW117151   6.292   6.368   1.559 -0.1889 -0.4259 -0.1950
 5073SOL    HW217152   6.248   6.506   1.600 -0.8472 -0.1712 -1.6747
 5074SOL     OW17153   7.266   5.365   0.977  0.2225  0.0755  0.6034
 5074SOL    HW117154   7.267   5.430   0.907 -1.2731  1.7957  2.0526
 5074SOL    HW217155   7.353   5.371   1.017 -0.0865  1.7322  1.1091
 5075SOL     OW17156   8.865   2.206   8.464  0.5596  0.2716 -0.1754
 5075SOL    HW117157   8.912   2.123   8.460  0.4921  0.2832 -1.4189
 5075SOL    HW217158   8.925   2.265   8.511  0.5707 -0.4852  0.7942
 5076SOL     OW17159   2.801   1.704   5.368  0.5479 -0.5088  0.1592
 5076SOL    HW117160   2.733   1.707   5.301 -0.3248 -0.6349  1.0234
 5076SOL    HW217161   2.827   1.612   5.371 -1.4301 -1.0867  1.9321
 5077SOL     OW17162   8.807   1.266   8.103  0.3396 -0.2866 -0.6134
 5077SOL    HW117163   8.736   1.215   8.142 -0.0040 -0.8577 -1.9292
 5077SOL    HW217164   8.841   1.210   8.033  0.4735  0.9839 -1.5877
 5078SOL     OW17165   6.766   2.298   4.232  0.6347  0.2419  0.2591
 5078SOL    HW117166   6.769   2.250   4.316  0.4177  0.1332  0.2060
 5078SOL    HW217167   6.856   2.294   4.199  0.4930 -0.6930 -0.0533
 5079SOL     OW17168   0.532   0.231   5.483  0.5190 -0.1425 -0.1465
 5079SOL    HW117169   0.475   0.284   5.538 -0.6132 -0.8278 -0.6282
 5079SOL    HW217170   0.519   0.265   5.394 -0.0156 -1.0374 -0.4223
 5080SOL     OW17171   6.358   1.036   3.285 -0.0178  0.5546 -0.0788
 5080SOL    HW117172   6.339   1.054   3.193 -0.0848  0.6667 -0.0437
 5080SOL    HW217173   6.449   1.007   3.287 -0.2208 -0.1057 -0.2670
 5081SOL     OW17174   6.554   0.645   6.467 -0.4588  0.0655  0.4380
 5081SOL    HW117175   6.531   0.671   6.378 -2.2454  0.7967  1.0802
 5081SOL    HW217176   6.617   0.574   6.455  2.9736  3.0939 -1.3864
 5082SOL     OW17177   6.036   1.070   2.315  0.3360  0.2885 -0.1020
 5082SOL    HW117178   6.054   1.150   2.365  1.2088 -0.1109  0.2327
 5082SOL    HW217179   6.073   1.000   2.368  0.3351 -0.2515 -0.8129
 5083SOL     OW17180   4.804   2.588   8.588  0.6181 -0.1007  0.6427
 5083SOL    HW117181   4.873   2.654   8.585  1.4045 -0.9283 -0.2874
 5083SOL    HW217182   4.780   2.583   8.680  1.0739  0.9409  0.8320
 5084SOL     OW17183   0.266   7.906   4.142 -0.1946 -0.5162  0.5436
 5084SOL    HW117184   0.354   7.943   4.137  0.3371 -1.5704  1.5695
 5084SOL    HW217185   0.267   7.833   4.080 -0.6300 -0.0415 -0.0451
 5085SOL     OW17186   0.130   4.054   1.262  0.1577 -0.5040  0.3338
 5085SOL    HW117187   0.160   4.130   1.311  2.2284 -0.0019 -1.5558
 5085SOL    HW217188   0.208   4.000   1.251 -0.2097 -0.5894 -2.3639
 5086SOL     OW17189   7.125   3.663   8.578 -0.2687  0.4409  0.1662
 5086SOL    HW117190   7.142   3.592   8.640  1.1046  0.5044 -0.0952
 5086SOL    HW217191   7.094   3.618   8.499 -2.8212  0.4140  1.0873
 5087SOL     OW17192   5.619   5.636   2.821 -1.0531  0.3254  0.4907
 5087SOL    HW117193   5.562   5.605   2.892 -0.9179  0.6002  0.7220
 5087SOL    HW217194   5.667   5.709   2.860  0.0040 -0.3707  0.5287
 5088SOL     OW17195   1.892   2.341   6.795  0.4171  0.7638  0.5594
 5088SOL    HW117196   1.887   2.436   6.798  2.1493  0.9455 -0.9928
 5088SOL    HW217197   1.824   2.315   6.733 -0.0867  0.9554  1.0165
 5089SOL     OW17198   6.814   7.499   2.887 -0.5952  0.5566  0.5068
 5089SOL    HW117199   6.816   7.474   2.979  0.4718  0.0239  0.3616
 5089SOL    HW217200   6.811   7.594   2.888  2.0482  0.7229  1.1555
 5090SOL     OW17201   5.493   7.009   5.099  0.3504 -0.0403  0.0489
 5090SOL    HW117202   5.567   6.950   5.113  0.6856  0.3821  0.0968
 5090SOL    HW217203   5.416   6.958   5.124  0.5969 -0.5845 -0.2771
 5091SOL     OW17204   7.383   8.389   5.722  0.1002  0.5669 -0.0104
 5091SOL    HW117205   7.318   8.411   5.655  0.6195 -1.9244 -1.4571
 5091SOL    HW217206   7.339   8.324   5.777  0.4929  0.8323  0.6235
 5092SOL     OW17207   4.763   8.220   7.874  0.1714 -0.3017  0.1093
 5092SOL    HW117208   4.729   8.163   7.943 -1.4447  1.3438  0.7708
 5092SOL    HW217209   4.686   8.247   7.824  1.2262 -0.8800 -1.9436
 5093SOL     OW17210   7.714   6.720   3.355 -0.3808  0.1229  0.0890
 5093SOL    HW117211   7.705   6.665   3.433 -0.0307 -0.8707 -0.5547
 5093SOL    HW217212   7.667   6.674   3.286 -0.1806  0.6864 -0.4419
 5094SOL     OW17213   8.339   4.194   4.377  0.6766 -0.7462  0.7994
 5094SOL    HW117214   8.273   4.263   4.375 -1.4370 -2.5363  3.1175
 5094SOL    HW217215   8.313   4.134   4.307  1.0004 -0.5441  0.4956
 5095SOL     OW17216   2.913   3.691   3.194 -0.2230  0.2797  0.8427
 5095SOL    HW117217   2.888   3.605   3.229  0.0067 -0.3151 -0.3904
 5095SOL    HW217218   2.895   3.752   3.266 -0.9115 -0.7216  1.5608
 5096SOL     OW17219   7.320   3.651   6.984 -0.0166  0.6043 -0.3614
 5096SOL    HW117220   7.238   3.607   7.007  1.3395 -2.3977 -0.7661
 5096SOL    HW217221   7.359   3.675   7.068  0.3581 -1.3795  0.0875
 5097SOL     OW17222   4.673   2.028   6.782  0.4328 -0.1793 -0.0918
 5097SOL    HW117223   4.638   1.968   6.848 -0.8110  0.1343 -0.4452
 5097SOL    HW217224   4.768   2.020   6.791  0.2875 -1.2117  0.7559
 5098SOL     OW17225   7.887   7.750   1.348 -0.5993 -0.4863 -0.5637
 5098SOL    HW117226   7.852   7.700   1.274  2.3860  0.2975 -2.6835
 5098SOL    HW217227   7.847   7.837   1.340 -0.0960 -0.3321 -1.4244
 5099SOL     OW17228   6.104   8.724   6.737  0.0270  0.3388  0.0070
 5099SOL    HW117229   6.199   8.734   6.732 -0.2046  2.9798 -1.3054
 5099SOL    HW217230   6.077   8.790   6.801 -0.9551 -0.0385 -0.0127
 5100SOL     OW17231   6.208   0.015   3.368 -0.2614  0.4043 -0.1969
 5100SOL    HW117232   6.132   0.035   3.313 -1.3517 -0.3732  0.9576
 5100SOL    HW217233   6.190   0.059   3.451  0.6614  0.3834  0.0282
 5101SOL     OW17234   4.805   2.565   0.339  0.1644  0.6054  0.1727
 5101SOL    HW117235   4.721   2.604   0.363 -0.8581 -0.3545 -1.6547
 5101SOL    HW217236   4.802   2.477   0.376  1.2679  1.2231  1.8431
 5102SOL     OW17237   5.813   8.829   4.421 -0.2786  0.6478  0.0808
 5102SOL    HW117238   5.748   8.759   4.426  1.1465 -0.8118 -0.9012
 5102SOL    HW217239   5.813   8.869   4.508 -2.1187  0.3748  0.2405
 5103SOL     OW17240   7.848   8.247   8.150  0.5290 -0.6663 -0.0079
 5103SOL    HW117241   7.827   8.328   8.105 -0.1453 -0.0018  1.4393
 5103SOL    HW217242   7.763   8.206   8.167  0.7512 -0.8419  0.7358
 5104SOL     OW17243   0.660   1.926   4.485 -0.5158 -0.5038 -0.0827
 5104SOL    HW117244   0.721   1.985   4.441 -0.8405  1.4251  1.8901
 5104SOL    HW217245   0.680   1.934   4.578 -2.5075 -1.2694  0.4811
 5105SOL     OW17246   1.350   3.716   1.490  0.0267 -0.3491  0.0667
 5105SOL    HW117247   1.400   3.703   1.570 -1.0841  1.0707  1.0580
 5105SOL    HW217248   1.401   3.673   1.421  1.7635 -0.3152  1.2846
 5106SOL     OW17249   8.320   3.342   7.315 -0.0650 -0.1005  0.8608
 5106SOL    HW117250   8.313   3.256   7.354  1.2090 -0.2163  0.8685
 5106SOL    HW217251   8.303   3.327   7.222  0.8528 -0.4941  0.7442
 5107SOL     OW17252   3.313   7.199   7.484  0.0014 -0.3800  0.0515
 5107SOL    HW117253   3.400   7.232   7.464  0.0684 -0.1129  0.7790
 5107SOL    HW217254   3.286   7.152   7.404  0.4119  0.3482 -0.5226
 5108SOL     OW17255   4.669   3.103   4.046  0.0536  0.3690  0.0232
 5108SOL    HW117256   4.656   3.193   4.017 -2.2116  0.0695 -0.0710
 5108SOL    HW217257   4.602   3.053   4.000 -0.3241 -0.9549  1.8978
 5109SOL     OW17258   7.926   0.870   3.857  0.3108 -0.2679  0.4882
 5109SOL    HW117259   7.864   0.926   3.904  0.4779  0.0497  0.3352
 5109SOL    HW217260   7.883   0.784   3.853  0.9465 -0.7477  2.5992
 5110SOL     OW17261   0.801   5.230   1.814 -0.6392 -0.4920 -0.7365
 5110SOL    HW117262   0.774   5.253   1.725  0.5314  2.1333 -0.4796
 5110SOL    HW217263   0.720   5.232   1.865 -0.8201  2.1054 -0.9909
 5111SOL     OW17264   5.245   1.559   8.814  0.0252  0.5095 -0.0849
 5111SOL    HW117265   5.238   1.631   8.751 -1.1232 -0.2832 -0.9034
 5111SOL    HW217266   5.219   1.597   8.897 -0.4107  1.0870 -0.4763
 5112SOL     OW17267   3.095   4.458   7.271 -0.5540 -0.3675 -0.0215
 5112SOL    HW117268   3.158   4.492   7.208  1.4066 -1.7192  1.1039
 5112SOL    HW217269   3.067   4.374   7.234 -1.9031  0.3242 -0.6193
 5113SOL     OW17270   3.340   3.205   2.743  0.5041  0.5878 -0.1092
 5113SOL    HW117271   3.340   3.294   2.778 -0.3396 -0.1228  1.8404
 5113SOL    HW217272   3.290   3.154   2.807  1.3817 -1.3940 -0.9248
 5114SOL     OW17273   5.348   0.929   4.435  0.4771  0.3961  0.0639
 5114SOL    HW117274   5.379   0.901   4.349  1.3982 -0.4666  0.6532
 5114SOL    HW217275   5.334   1.023   4.427  2.0269  0.5923 -0.6151
 5115SOL     OW17276   1.667   1.251   5.465 -0.1254 -0.0243 -0.3223
 5115SOL    HW117277   1.651   1.305   5.388  2.0666 -1.4034 -1.8493
 5115SOL    HW217278   1.580   1.229   5.498 -1.1434  3.5792 -0.1490
 5116SOL     OW17279   3.685   5.468   0.971 -0.1158  0.1552 -0.7623
 5116SOL    HW117280   3.645   5.412   0.905 -0.6151  1.8157 -1.9122
 5116SOL    HW217281   3.760   5.508   0.927  0.6429 -0.0776  0.2530
 5117SOL     OW17282   2.982   3.577   5.049  0.1463 -0.6229  0.0540
 5117SOL    HW117283   3.024   3.623   4.976 -2.2618 -0.1068 -1.1214
 5117SOL    HW217284   3.021   3.490   5.049  1.2316 -0.1537 -0.9199
 5118SOL     OW17285   2.820   0.134   7.152  0.8872 -0.3766  0.7770
 5118SOL    HW117286   2.785   0.045   7.157 -0.6565  0.2137  0.9030
 5118SOL    HW217287   2.915   0.123   7.163  0.6526 -1.9361  1.5186
 5119SOL     OW17288   6.037   7.928   2.455 -0.2203 -0.7280  0.3612
 5119SOL    HW117289   6.036   7.849   2.401 -0.9183 -0.4448 -0.0418
 5119SOL    HW217290   5.945   7.954   2.462  0.1001  0.8153 -0.6468
 5120SOL     OW17291   1.490   3.127   3.791  0.6641  0.0266 -0.0696
 5120SOL    HW117292   1.439   3.104   3.868  0.5669  0.1007 -0.1113
 5120SOL    HW217293   1.444   3.202   3.753  0.6420 -0.0818 -0.2649
 5121SOL     OW17294   6.385   8.528   7.637  0.2970 -0.0703  0.8678
 5121SOL    HW117295   6.329   8.606   7.640  1.3456  0.8055 -0.6444
 5121SOL    HW217296   6.337   8.466   7.582  0.0838  0.0528  0.9118
 5122SOL     OW17297   3.302   6.703   7.343 -0.0606  0.1647 -0.0998
 5122SOL    HW117298   3.384   6.715   7.391 -0.0913  0.3946 -0.1033
 5122SOL    HW217299   3.318   6.745   7.258 -0.1034  0.0074 -0.1851
 5123SOL     OW17300   6.593   4.209   4.253  0.2579  0.3960  0.4494
 5123SOL    HW117301   6.524   4.274   4.239 -1.0168 -1.2046 -1.2061
 5123SOL    HW217302   6.553   4.145   4.312  1.7222  1.3536  2.5938
 5124SOL     OW17303   1.355   5.097   6.818  0.1148 -0.0940  0.9550
 5124SOL    HW117304   1.379   5.122   6.728 -1.8832  0.4932  0.5130
 5124SOL    HW217305   1.419   5.141   6.873  1.3358 -0.3907 -0.1738
 5125SOL     OW17306   7.911   5.605   7.258 -0.7119  0.2138 -0.4638
 5125SOL    HW117307   7.858   5.683   7.242  0.4389  1.0148 -0.4928
 5125SOL    HW217308   7.884   5.575   7.345 -2.0626 -0.1174 -0.9769
 5126SOL     OW17309   7.209   5.699   2.877  0.2561 -0.5275 -1.1028
 5126SOL    HW117310   7.164   5.644   2.941 -0.2745 -0.6011 -1.5317
 5126SOL    HW217311   7.147   5.708   2.805  0.2846  0.7336 -0.9883
 5127SOL     OW17312   4.538   0.682   6.077  0.5669 -0.5239 -0.4774
 5127SOL    HW117313   4.494   0.671   5.992  1.4643  0.1177 -1.0450
 5127SOL    HW217314   4.610   0.620   6.074  0.3995 -0.7405 -0.0360
 5128SOL     OW17315   8.395   5.713   8.576 -0.2695 -0.6490 -0.0309
 5128SOL    HW117316   8.310   5.752   8.556 -0.8828 -2.2123 -0.6100
 5128SOL    HW217317   8.393   5.699   8.670 -1.2551 -1.9432 -0.2113
 5129SOL     OW17318   7.884   6.420   7.348 -0.3340 -0.2106  0.2741
 5129SOL    HW117319   7.975   6.392   7.354 -0.2658 -0.0873 -0.1487
 5129SOL    HW217320   7.838   6.366   7.412 -0.2820 -1.6168 -0.8328
 5130SOL     OW17321   5.965   5.008   7.092  0.0868 -0.0577 -0.2621
 5130SOL    HW117322   5.993   5.099   7.082 -2.1988  0.8380  0.6620
 5130SOL    HW217323   6.021   4.972   7.160 -0.4458  1.4134  1.0153
 5131SOL     OW17324   1.017   8.471   8.353 -0.0981 -0.0948 -0.6720
 5131SOL    HW117325   1.011   8.551   8.300  0.1261  0.4390  0.0844
 5131SOL    HW217326   1.076   8.495   8.425 -1.1808 -0.5001  0.3682
 5132SOL     OW17327   5.622   0.944   1.945  0.0003 -0.7796  0.3219
 5132SOL    HW117328   5.653   0.867   1.994  0.7238 -1.1158 -0.6252
 5132SOL    HW217329   5.555   0.910   1.886 -4.3805  0.3041  4.0704
 5133SOL     OW17330   3.590   8.676   7.519 -0.4695  0.1378  0.4422
 5133SOL    HW117331   3.545   8.671   7.435 -1.0077  1.2812  0.6511
 5133SOL    HW217332   3.666   8.618   7.509 -0.8235 -0.1587 -0.6367
 5134SOL     OW17333   2.202   5.321   1.863  0.1966  0.0316 -0.1167
 5134SOL    HW117334   2.174   5.412   1.849  0.0533 -0.1402 -1.0166
 5134SOL    HW217335   2.285   5.314   1.815  1.0176  0.0967  1.2231
 5135SOL     OW17336   5.264   3.741   4.450  0.1667 -0.1296  0.1236
 5135SOL    HW117337   5.206   3.669   4.475  0.1051 -0.1464 -0.0661
 5135SOL    HW217338   5.206   3.811   4.423  0.1590  0.7849  2.3812
 5136SOL     OW17339   3.312   6.922   8.859  0.1468  0.0382 -0.1170
 5136SOL    HW117340   3.227   6.957   8.887 -0.2060 -1.2976  0.5417
 5136SOL    HW217341   3.335   6.974   8.782  0.2542  2.5932  1.5000
 5137SOL     OW17342   8.591   6.073   3.689 -0.0536  0.4220 -0.1440
 5137SOL    HW117343   8.591   6.151   3.745  0.0612  0.9358 -0.8438
 5137SOL    HW217344   8.679   6.071   3.651 -0.2320  0.2603 -0.5509
 5138SOL     OW17345   8.598   7.486   1.994  0.4289  1.0251  0.1141
 5138SOL    HW117346   8.673   7.545   1.991  0.5137  0.9538  0.7943
 5138SOL    HW217347   8.535   7.524   1.932  0.5434  1.7506  0.4371
 5139SOL     OW17348   1.680   8.144   3.184  0.0017 -0.1487  0.5927
 5139SOL    HW117349   1.769   8.129   3.217  0.4803 -0.9806 -1.0032
 5139SOL    HW217350   1.692   8.167   3.092 -1.4582 -0.5494  0.2793
 5140SOL     OW17351   3.943   6.541   5.161 -0.0497 -0.0548  0.1503
 5140SOL    HW117352   3.893   6.537   5.243 -0.5126 -0.0303 -0.1288
 5140SOL    HW217353   3.877   6.541   5.092  0.1792  2.8611 -0.1865
 5141SOL     OW17354   1.233   3.344   6.079 -0.0765  0.3184  0.1994
 5141SOL    HW117355   1.236   3.254   6.109  1.8376  0.2364 -0.1495
 5141SOL    HW217356   1.314   3.384   6.111  0.0955  1.3327 -1.3824
 5142SOL     OW17357   1.117   1.516   8.645  0.3721 -0.1502  0.6165
 5142SOL    HW117358   1.026   1.547   8.642  0.1932 -0.6678  0.5598
 5142SOL    HW217359   1.119   1.443   8.583  0.9519  0.1760  0.2485
 5143SOL     OW17360   4.615   1.464   8.447  0.2805  0.2673 -0.1369
 5143SOL    HW117361   4.696   1.413   8.447  0.2434  0.1347 -2.5311
 5143SOL    HW217362   4.642   1.551   8.418 -0.4137  0.2697 -0.7830
 5144SOL     OW17363   4.888   6.919   4.532 -0.8942 -0.8599 -0.5954
 5144SOL    HW117364   4.842   6.891   4.453  1.0017  1.0094 -2.5183
 5144SOL    HW217365   4.979   6.892   4.518 -0.2977  0.4728  0.4169
 5145SOL     OW17366   0.956   2.653   0.166  0.0801 -0.3791  0.2361
 5145SOL    HW117367   0.995   2.613   0.243  1.2848 -0.8882 -0.6013
 5145SOL    HW217368   0.977   2.746   0.174  2.1631 -0.7268 -0.5327
 5146SOL     OW17369   8.777   2.628   6.108 -0.1967  0.3195  0.1316
 5146SOL    HW117370   8.822   2.548   6.136  3.4779  1.9737 -0.4272
 5146SOL    HW217371   8.745   2.608   6.020  3.5288  0.2301 -1.4040
 5147SOL     OW17372   8.349   2.815   7.423 -0.6176  0.7553  0.0137
 5147SOL    HW117373   8.260   2.782   7.435 -0.4933 -0.1573 -1.2989
 5147SOL    HW217374   8.399   2.773   7.493 -1.2144  1.3377  0.8110
 5148SOL     OW17375   8.168   5.991   3.804 -1.1991  0.4127 -0.6633
 5148SOL    HW117376   8.114   5.964   3.878  0.6116  1.4100  1.1002
 5148SOL    HW217377   8.174   6.086   3.812  2.2359  0.2203  0.3290
 5149SOL     OW17378   1.264   0.145   6.413 -0.4565  0.1757  0.2494
 5149SOL    HW117379   1.184   0.166   6.364  0.0154  0.1404 -0.5687
 5149SOL    HW217380   1.308   0.078   6.360 -0.1629 -0.2290  0.9827
 5150SOL     OW17381   5.853   7.013   2.848 -0.5058 -0.3713 -0.9358
 5150SOL    HW117382   5.820   7.091   2.804  0.9623  0.9121  0.1417
 5150SOL    HW217383   5.932   6.989   2.800 -1.1602 -1.4545 -1.5014
 5151SOL     OW17384   5.864   5.727   5.332  0.9032  0.1815 -0.2618
 5151SOL    HW117385   5.846   5.747   5.240  0.9223 -0.0341 -0.3105
 5151SOL    HW217386   5.846   5.634   5.341  1.6609  0.0382 -0.2231
 5152SOL     OW17387   6.559   4.169   8.041  0.1071 -0.1391  0.1768
 5152SOL    HW117388   6.548   4.203   8.130  0.5845 -1.5424  0.8139
 5152SOL    HW217389   6.569   4.247   7.986 -2.3564  0.8588  1.0093
 5153SOL     OW17390   7.068   1.614   5.760 -1.0381 -0.1814 -0.3263
 5153SOL    HW117391   7.126   1.609   5.836 -1.1982 -0.9106 -0.2480
 5153SOL    HW217392   7.092   1.697   5.717 -0.1208 -0.3494 -0.1576
 5154SOL     OW17393   6.497   3.703   5.289  0.4178  0.5147  0.0655
 5154SOL    HW117394   6.559   3.639   5.254  0.1574  0.8710 -1.1006
 5154SOL    HW217395   6.411   3.670   5.262  0.2818  1.3250 -0.5258
 5155SOL     OW17396   1.785   6.479   7.217  0.5773 -0.0418 -0.2345
 5155SOL    HW117397   1.791   6.526   7.134 -0.2135 -0.7885 -0.7424
 5155SOL    HW217398   1.848   6.522   7.274  1.3528  0.3053 -1.3139
 5156SOL     OW17399   5.305   5.879   6.536  0.0097  0.1445  0.8825
 5156SOL    HW117400   5.274   5.793   6.508 -0.7441  1.1137 -1.4724
 5156SOL    HW217401   5.248   5.903   6.609 -1.1576 -0.4743  0.1962
 5157SOL     OW17402   0.215   0.579   6.533  0.3230  0.4886 -0.5929
 5157SOL    HW117403   0.285   0.534   6.486 -0.4784 -0.9493 -0.4868
 5157SOL    HW217404   0.251   0.665   6.553  1.0465  0.8025 -2.9384
 5158SOL     OW17405   8.234   0.520   4.832 -0.3122  0.2943  0.4297
 5158SOL    HW117406   8.292   0.553   4.762 -0.8307  1.3112  0.4611
 5158SOL    HW217407   8.251   0.426   4.834 -0.6352  0.1565 -1.4097
 5159SOL     OW17408   8.348   5.512   2.535  0.2328 -0.3043 -0.9576
 5159SOL    HW117409   8.299   5.535   2.456  0.6032  1.2581 -0.7496
 5159SOL    HW217410   8.302   5.556   2.606  2.7888  2.6792 -0.9327
 5160SOL     OW17411   1.802   4.612   8.501  0.3011 -0.3190  0.6276
 5160SOL    HW117412   1.835   4.564   8.576  1.3346 -2.5029 -1.1144
 5160SOL    HW217413   1.875   4.668   8.473  0.0870  0.1205  0.9379
 5161SOL     OW17414   3.911   8.311   1.194 -0.1845  0.4654  0.2923
 5161SOL    HW117415   3.943   8.350   1.113 -0.4800  1.6953  0.7573
 5161SOL    HW217416   3.980   8.249   1.218  2.0891  3.1889  1.3658
 5162SOL     OW17417   7.687   4.343   3.452 -0.0689  0.5210 -0.3072
 5162SOL    HW117418   7.735   4.316   3.374  2.1420  1.7049  0.5376
 5162SOL    HW217419   7.655   4.262   3.491  1.7680 -0.4127 -0.6550
 5163SOL     OW17420   3.327   8.103   0.871 -0.1898 -0.0415  0.1147
 5163SOL    HW117421   3.363   8.026   0.826  3.1530 -0.9787  3.8363
 5163SOL    HW217422   3.344   8.176   0.813 -0.9285 -1.7096 -2.3360
 5164SOL     OW17423   2.452   0.171   0.437 -0.5854 -0.0083 -0.1963
 5164SOL    HW117424   2.524   0.145   0.495  0.0817 -2.1330 -1.8590
 5164SOL    HW217425   2.418   0.089   0.402 -1.5033  1.1263 -2.1539
 5165SOL     OW17426   5.472   8.702   7.792  0.1643 -0.2725 -0.2802
 5165SOL    HW117427   5.454   8.675   7.882  1.7474  0.0092  0.1631
 5165SOL    HW217428   5.520   8.629   7.754  2.5229  0.9221  0.2344
 5166SOL     OW17429   8.116   2.787   4.797  0.1974  0.3554  0.7079
 5166SOL    HW117430   8.031   2.793   4.842 -0.1497  0.8360  0.0117
 5166SOL    HW217431   8.180   2.787   4.868 -0.3396  1.0690  1.2140
 5167SOL     OW17432   2.501   2.931   0.488  0.7220  0.3307  0.4413
 5167SOL    HW117433   2.545   2.980   0.419 -0.9095  0.9230 -0.2356
 5167SOL    HW217434   2.542   2.845   0.486  1.1187  0.5292 -0.8527
 5168SOL     OW17435   0.450   1.451   1.665 -0.1758 -0.0570 -0.4121
 5168SOL    HW117436   0.472   1.404   1.745 -1.8818  0.6599  0.5426
 5168SOL    HW217437   0.373   1.406   1.631 -0.3881  0.5749 -0.7960
 5169SOL     OW17438   4.691   6.160   7.901 -0.0970  0.2632 -0.5825
 5169SOL    HW117439   4.745   6.180   7.977 -1.2097  1.9842 -0.1932
 5169SOL    HW217440   4.663   6.069   7.914  2.1052 -0.4443 -0.4756
 5170SOL     OW17441   6.696   1.232   4.382  0.6678  0.1078 -0.0827
 5170SOL    HW117442   6.639   1.212   4.308 -1.3347 -0.7328  1.5782
 5170SOL    HW217443   6.726   1.146   4.412  2.5000  0.5138 -0.6383
 5171SOL     OW17444   3.439   0.346   2.859 -0.5004 -0.3052 -0.0024
 5171SOL    HW117445   3.493   0.375   2.932  0.2701 -1.0221 -0.2676
 5171SOL    HW217446   3.425   0.425   2.807 -1.4875  0.3205  1.1532
 5172SOL     OW17447   7.765   6.853   4.305 -0.0008  0.7077  0.0036
 5172SOL    HW117448   7.793   6.774   4.260 -1.4129 -0.9445  1.8178
 5172SOL    HW217449   7.704   6.895   4.245 -0.0389 -0.1560 -0.5747
 5173SOL     OW17450   3.198   2.020   2.170 -0.0131 -0.2351 -0.2306
 5173SOL    HW117451   3.204   1.984   2.082 -0.4003 -0.8961  0.0098
 5173SOL    HW217452   3.104   2.036   2.184  0.0682  0.0964 -0.0251
 5174SOL     OW17453   5.552   0.429   1.529 -0.0758 -0.1996 -0.5286
 5174SOL    HW117454   5.599   0.382   1.460 -0.1089 -1.7266  0.4371
 5174SOL    HW217455   5.503   0.361   1.575 -0.5832  0.8829  0.5877
 5175SOL     OW17456   5.483   1.910   7.630  0.1799 -0.1017 -0.0318
 5175SOL    HW117457   5.469   1.950   7.716 -0.0289  2.0199 -0.9856
 5175SOL    HW217458   5.480   1.984   7.568  0.4123 -1.5419 -1.8597
 5176SOL     OW17459   7.311   8.069   1.531 -1.3234  0.5235 -0.0455
 5176SOL    HW117460   7.265   8.145   1.495 -1.7257 -0.2258 -1.1435
 5176SOL    HW217461   7.389   8.059   1.476  0.2258  1.7612  1.7754
 5177SOL     OW17462   2.020   8.691   3.189  0.3141  0.8727  0.3552
 5177SOL    HW117463   2.018   8.708   3.095 -1.1715  0.2153  0.2418
 5177SOL    HW217464   2.080   8.757   3.224  0.8087  1.1903 -1.0253
 5178SOL     OW17465   5.681   4.958   1.792  1.4436  0.1734 -0.2594
 5178SOL    HW117466   5.640   5.041   1.770  3.4028  0.9538 -1.2233
 5178SOL    HW217467   5.751   4.981   1.854  0.5013 -1.1108  1.3813
 5179SOL     OW17468   7.110   5.021   2.636 -0.6975 -0.2989  0.5433
 5179SOL    HW117469   7.172   5.075   2.685  1.0049 -1.1315 -0.5619
 5179SOL    HW217470   7.038   5.004   2.697 -0.5638  1.9165  1.4005
 5180SOL     OW17471   1.713   6.593   8.325 -0.2978  0.5734 -0.1102
 5180SOL    HW117472   1.635   6.559   8.369 -1.3629  2.9679  0.0401
 5180SOL    HW217473   1.735   6.673   8.374  0.5020  1.5088 -1.8842
 5181SOL     OW17474   6.298   2.643   1.342  0.1975  0.5385  0.2115
 5181SOL    HW117475   6.280   2.731   1.308 -0.9273 -0.3351 -1.5935
 5181SOL    HW217476   6.313   2.590   1.264 -0.3045 -1.1326  1.2004
 5182SOL     OW17477   1.649   2.525   7.569 -0.0839  0.3043 -0.0238
 5182SOL    HW117478   1.638   2.617   7.593  2.5159  0.5471  0.5375
 5182SOL    HW217479   1.615   2.519   7.479 -1.1628  1.5584  0.2688
 5183SOL     OW17480   7.535   1.900   7.731 -0.3269  0.7343  0.3994
 5183SOL    HW117481   7.580   1.839   7.789 -0.6213  0.9288  0.8349
 5183SOL    HW217482   7.448   1.910   7.769 -0.3229  1.3328  0.2696
 5184SOL     OW17483   5.515   6.220   1.081  0.2014  0.0606 -0.3119
 5184SOL    HW117484   5.558   6.244   0.999 -1.5923 -0.1671 -1.3821
 5184SOL    HW217485   5.433   6.268   1.079 -0.2903 -0.6928  0.9043
 5185SOL     OW17486   7.155   2.712   1.433  0.0066 -0.4411  0.5707
 5185SOL    HW117487   7.135   2.623   1.462  0.5539 -0.7130  0.1187
 5185SOL    HW217488   7.138   2.710   1.339  3.9749 -1.2673 -0.3058
 5186SOL     OW17489   7.609   2.609   3.450 -0.6495  0.7671 -0.1651
 5186SOL    HW117490   7.627   2.609   3.544 -0.7082  1.5872 -0.1536
 5186SOL    HW217491   7.537   2.546   3.440 -1.9382  2.0700  0.5950
 5187SOL     OW17492   5.350   5.629   4.483 -0.3445  0.0673 -0.1810
 5187SOL    HW117493   5.423   5.630   4.545 -0.5291 -0.9818  0.0832
 5187SOL    HW217494   5.388   5.657   4.400  0.0709  0.7523  0.2319
 5188SOL     OW17495   8.447   5.396   7.920  0.2061 -0.2443 -0.3018
 5188SOL    HW117496   8.472   5.434   8.004 -0.0254  0.7066 -0.6547
 5188SOL    HW217497   8.369   5.345   7.938  1.1579 -1.5123  0.3997
 5189SOL     OW17498   4.133   5.294   5.169 -0.1333  0.3600 -0.2580
 5189SOL    HW117499   4.138   5.245   5.252 -0.5452  2.9004  1.3833
 5189SOL    HW217500   4.206   5.356   5.174 -0.8796  1.3421 -1.2444
 5190SOL     OW17501   7.215   5.895   8.421 -0.1194  0.0255 -0.0469
 5190SOL    HW117502   7.232   5.941   8.338 -2.0063 -1.6121 -1.4332
 5190SOL    HW217503   7.300   5.857   8.445  0.3694  0.1419 -1.5065
 5191SOL     OW17504   8.870   5.444   7.114 -0.0733  0.3242  1.1869
 5191SOL    HW117505   8.859   5.464   7.021 -2.8363 -0.1389  1.3568
 5191SOL    HW217506   8.933   5.510   7.144  2.5231 -0.7662 -1.3589
 5192SOL     OW17507   4.176   2.119   0.189  0.2517  0.2969 -0.0479
 5192SOL    HW117508   4.121   2.196   0.203 -0.9037 -0.5781  0.3201
 5192SOL    HW217509   4.251   2.133   0.248  1.5604  2.4831 -2.0304
 5193SOL     OW17510   8.052   2.587   4.578  0.0972 -0.9211 -0.0173
 5193SOL    HW117511   8.081   2.648   4.510  3.0671 -0.0752  1.8182
 5193SOL    HW217512   8.055   2.638   4.659 -2.3354 -2.1678  0.9641
 5194SOL     OW17513   0.971   8.108   7.997  0.5747  0.0961 -0.1519
 5194SOL    HW117514   0.972   8.148   8.084  0.3467 -1.6620  0.7010
 5194SOL    HW217515   0.890   8.140   7.957  0.9273  1.3175  0.0537
 5195SOL     OW17516   8.230   2.215   2.734 -0.7792  0.5497  0.3738
 5195SOL    HW117517   8.300   2.256   2.683 -0.8126 -0.0449 -0.1544
 5195SOL    HW217518   8.150   2.256   2.703 -0.8785 -0.3538 -0.6225
 5196SOL     OW17519   7.142   1.030   4.781 -0.4420  0.1301  0.3045
 5196SOL    HW117520   7.170   0.976   4.707 -1.1633  1.5362 -1.0478
 5196SOL    HW217521   7.224   1.064   4.818 -0.1225  0.7328 -0.8987
 5197SOL     OW17522   6.370   4.264   0.004  0.3790  0.3800 -0.4613
 5197SOL    HW117523   6.438   4.279  -0.062  2.2679  0.3349  1.3585
 5197SOL    HW217524   6.396   4.320   0.078 -0.0474 -1.5910  1.2818
 5198SOL     OW17525   3.341   4.679   4.477  0.7000  0.4712 -0.2265
 5198SOL    HW117526   3.299   4.649   4.558  0.7549  1.0828  0.0356
 5198SOL    HW217527   3.269   4.712   4.424  0.5828 -0.4807 -0.6948
 5199SOL     OW17528   2.984   0.601   4.833  0.1893 -0.9116  0.0031
 5199SOL    HW117529   2.989   0.656   4.755 -1.2512  0.8384  1.0606
 5199SOL    HW217530   2.901   0.554   4.823  1.5550 -3.2794 -1.0493
 5200SOL     OW17531   6.849   4.335   3.073  0.5373 -0.0647 -0.4797
 5200SOL    HW117532   6.864   4.396   3.145  0.4013 -0.3560 -0.2028
 5200SOL    HW217533   6.768   4.366   3.031  0.0428 -0.5079  0.1379
 5201SOL     OW17534   5.375   6.613   1.237 -0.3664  0.0398 -0.2334
 5201SOL    HW117535   5.374   6.537   1.179  0.0143  0.2826 -0.5649
 5201SOL    HW217536   5.456   6.659   1.215  0.5735 -0.6639  1.5411
 5202SOL     OW17537   5.922   6.614   0.015 -0.1522 -0.4287 -0.4425
 5202SOL    HW117538   5.945   6.532   0.058 -1.0478 -1.0101 -1.0437
 5202SOL    HW217539   6.006   6.658   0.002  0.5682 -2.0034 -1.5902
 5203SOL     OW17540   1.023   0.295   5.928 -0.3831  0.1191  0.2233
 5203SOL    HW117541   1.054   0.205   5.938 -0.7962 -0.0637 -0.1310
 5203SOL    HW217542   0.930   0.291   5.948 -0.4158  0.4609  0.1497
 5204SOL     OW17543   3.048   7.587   0.158 -0.1470  0.1983 -0.2941
 5204SOL    HW117544   2.999   7.541   0.226 -3.3520  2.7683 -0.6069
 5204SOL    HW217545   2.985   7.597   0.086  0.7636  3.6274 -0.8114
 5205SOL     OW17546   4.066   3.664   0.165  0.0535  0.0868 -0.0037
 5205SOL    HW117547   4.082   3.601   0.095  1.7904 -0.6530  0.9938
 5205SOL    HW217548   4.124   3.738   0.145  0.7376 -0.2337  0.7611
 5206SOL     OW17549   0.655   6.293   3.174 -0.2840 -0.1434 -0.3755
 5206SOL    HW117550   0.706   6.321   3.250  1.6989 -2.3688 -0.7576
 5206SOL    HW217551   0.635   6.374   3.128  1.5218  0.9767  0.6760
 5207SOL     OW17552   3.913   6.684   5.793  0.5261  0.6713  0.7471
 5207SOL    HW117553   3.996   6.720   5.824  0.0837  1.2768  1.2498
 5207SOL    HW217554   3.925   6.589   5.798  1.5543  0.7351 -0.1781
 5208SOL     OW17555   0.296   7.171   5.211 -0.5673 -0.5144 -0.3570
 5208SOL    HW117556   0.225   7.155   5.273 -0.7150  2.0381  0.2489
 5208SOL    HW217557   0.253   7.205   5.133 -0.0713  0.7023 -0.1190
 5209SOL     OW17558   4.091   1.973   8.701  0.4131  0.1110 -0.2028
 5209SOL    HW117559   4.094   1.945   8.610  1.8724 -1.2837  0.2300
 5209SOL    HW217560   4.140   2.056   8.702  1.4864 -0.4940 -0.5151
 5210SOL     OW17561   0.245   7.020   4.446  0.0929  0.7401 -0.4806
 5210SOL    HW117562   0.222   7.011   4.354 -1.5604 -0.0827 -0.0333
 5210SOL    HW217563   0.317   7.083   4.447  2.4027 -1.6291 -2.5843
 5211SOL     OW17564   7.608   2.456   7.072 -0.3887  0.5902  0.1625
 5211SOL    HW117565   7.622   2.543   7.036 -3.1480  0.9032 -0.3924
 5211SOL    HW217566   7.687   2.438   7.124  1.0067  2.6591 -1.0893
 5212SOL     OW17567   6.493   8.604   0.208  0.3020 -0.3285  0.2243
 5212SOL    HW117568   6.459   8.595   0.119  1.2524  1.3580 -0.3446
 5212SOL    HW217569   6.415   8.605   0.263 -0.2777 -1.9275 -0.5117
 5213SOL     OW17570   6.180   8.020   2.694 -0.0943 -0.1537 -0.2611
 5213SOL    HW117571   6.133   7.986   2.770  0.8491 -0.7352  0.0769
 5213SOL    HW217572   6.134   7.981   2.619  0.1552 -1.1327  0.0805
 5214SOL     OW17573   4.053   8.617   4.722  0.0197  1.1244 -0.2215
 5214SOL    HW117574   4.120   8.653   4.665  0.6572 -1.3860 -1.2288
 5214SOL    HW217575   4.083   8.528   4.741 -0.6898  1.4802  3.2624
 5215SOL     OW17576   2.987   2.835   1.340  0.1136  0.7728  0.2359
 5215SOL    HW117577   2.971   2.771   1.270  1.1851 -0.0287  0.6845
 5215SOL    HW217578   2.932   2.910   1.317 -0.7174 -0.0720 -0.6345
 5216SOL     OW17579   7.099   3.830   2.482  0.2882  0.3159 -0.2471
 5216SOL    HW117580   7.008   3.821   2.508  0.7993  0.7831  1.8725
 5216SOL    HW217581   7.109   3.768   2.409 -1.4494 -0.5023  0.1549
 5217SOL     OW17582   5.331   2.176   5.112  0.0126  0.4906 -0.3798
 5217SOL    HW117583   5.258   2.116   5.124 -0.0984  0.0442 -2.7729
 5217SOL    HW217584   5.293   2.263   5.124 -0.5424  0.2073 -0.0323
 5218SOL     OW17585   2.210   5.340   6.957 -0.0376 -0.3846  0.2164
 5218SOL    HW117586   2.227   5.256   7.001 -0.2522 -0.8291 -0.5328
 5218SOL    HW217587   2.124   5.367   6.990 -0.1012 -0.6084  0.2384
 5219SOL     OW17588   3.370   1.274   4.849 -0.0126  0.3523 -0.2324
 5219SOL    HW117589   3.455   1.289   4.891 -1.2480  2.2385  1.8185
 5219SOL    HW217590   3.389   1.277   4.755  2.3640 -0.6206  0.1448
 5220SOL     OW17591   0.042   2.439   5.319 -0.4313 -0.7588  0.0823
 5220SOL    HW117592   0.130   2.406   5.334 -0.2014  0.2750  1.2260
 5220SOL    HW217593   0.003   2.378   5.256  1.8440  0.0404 -2.2483
 5221SOL     OW17594   4.636   7.916   6.397 -0.2893 -0.2927 -0.0689
 5221SOL    HW117595   4.687   7.989   6.431  2.0463 -1.0645 -1.7116
 5221SOL    HW217596   4.555   7.956   6.365 -0.9758  0.9275  2.8071
 5222SOL     OW17597   6.644   6.663   2.641  0.0554  0.0525 -0.7354
 5222SOL    HW117598   6.681   6.731   2.696 -1.5581  0.3384  0.0724
 5222SOL    HW217599   6.606   6.710   2.566  1.1398 -0.2221 -1.4854
 5223SOL     OW17600   1.988   4.438   3.580 -0.1528 -0.0400 -0.4255
 5223SOL    HW117601   1.947   4.352   3.579 -0.7541  0.1886  1.1737
 5223SOL    HW217602   1.931   4.491   3.636  2.0059  0.4317  1.5119
 5224SOL     OW17603   7.333   2.541   7.572  0.0063 -0.8492  0.3365
 5224SOL    HW117604   7.304   2.554   7.482  0.1614  0.7819  0.5011
 5224SOL    HW217605   7.282   2.604   7.623  1.7350  0.0516  1.0246
 5225SOL     OW17606   2.309   2.393   0.150 -0.3140  0.1036  0.0962
 5225SOL    HW117607   2.235   2.444   0.183 -1.8266 -1.0501 -1.3887
 5225SOL    HW217608   2.353   2.361   0.230 -3.1022 -1.5403  1.1209
 5226SOL     OW17609   0.431   0.957   2.956  0.4124  0.2963 -0.7755
 5226SOL    HW117610   0.353   0.903   2.967  1.6735 -1.3169  0.7005
 5226SOL    HW217611   0.419   1.029   3.018  0.3900 -0.3057 -0.0717
 5227SOL     OW17612   4.954   1.498   3.358 -0.0548  0.0824 -0.2000
 5227SOL    HW117613   4.926   1.409   3.336 -2.7109  0.6465  0.5921
 5227SOL    HW217614   4.926   1.510   3.448 -0.7671  2.0940 -0.6413
 5228SOL     OW17615   4.858   1.483   3.626 -0.2054  0.2922 -0.3675
 5228SOL    HW117616   4.821   1.396   3.646 -0.6014  0.6900  0.7059
 5228SOL    HW217617   4.782   1.541   3.621 -0.0182  0.4589 -1.9129
 5229SOL     OW17618   2.714   4.876   0.652  0.2316  0.2237 -0.0394
 5229SOL    HW117619   2.621   4.887   0.631  0.1154  0.3589  0.5454
 5229SOL    HW217620   2.758   4.945   0.601 -0.1939  1.5065  1.2513
 5230SOL     OW17621   0.014   6.665   8.005 -0.0026  0.5529 -0.1920
 5230SOL    HW117622  -0.030   6.625   7.929  0.9295  0.0484 -0.4762
 5230SOL    HW217623   0.026   6.592   8.066  0.3358  0.7157 -0.0650
 5231SOL     OW17624   4.172   7.886   7.315 -0.1515  0.1946 -0.0132
 5231SOL    HW117625   4.218   7.969   7.322  0.0157  0.3679 -2.2855
 5231SOL    HW217626   4.182   7.845   7.401  2.1246  1.3006  0.3119
 5232SOL     OW17627   5.028   8.748   7.964 -0.1976 -0.8000 -0.3590
 5232SOL    HW117628   5.042   8.788   8.050 -0.3373  0.2231 -0.7978
 5232SOL    HW217629   4.996   8.820   7.909 -1.1385 -1.6794 -0.9957
 5233SOL     OW17630   4.970   2.448   3.234  0.1126 -0.5670  0.5085
 5233SOL    HW117631   4.910   2.462   3.160 -0.0309 -2.1389  0.2825
 5233SOL    HW217632   5.004   2.360   3.220  0.9805 -0.4439  1.7085
 5234SOL     OW17633   3.248   7.894   7.166  0.2936 -0.0268 -0.1454
 5234SOL    HW117634   3.163   7.926   7.136  0.0980 -0.6768 -0.2827
 5234SOL    HW217635   3.312   7.941   7.112 -0.0478 -1.1381 -1.5479
 5235SOL     OW17636   7.620   5.811   3.098 -0.2906 -0.0944 -0.1704
 5235SOL    HW117637   7.527   5.833   3.105 -0.6406 -1.2479 -0.9566
 5235SOL    HW217638   7.623   5.716   3.114  0.7395 -0.0866 -0.2756
 5236SOL     OW17639   5.714   2.775   1.378 -0.2361  0.2548 -0.1071
 5236SOL    HW117640   5.618   2.776   1.370 -0.2499 -0.9172 -0.3107
 5236SOL    HW217641   5.733   2.836   1.449 -1.2966 -0.9434  1.2860
 5237SOL     OW17642   2.082   4.290   3.960 -0.3709 -0.3946 -0.3191
 5237SOL    HW117643   2.154   4.227   3.958 -0.9621 -1.1380  0.7428
 5237SOL    HW217644   2.009   4.244   3.917 -0.6014 -0.1601 -0.1801
 5238SOL     OW17645   4.482   1.506   8.686 -0.0468 -0.1296  0.0485
 5238SOL    HW117646   4.458   1.598   8.673 -0.4628 -0.2524 -0.0804
 5238SOL    HW217647   4.536   1.484   8.611 -1.7017 -0.5845 -1.0575
 5239SOL     OW17648   4.434   2.460   2.906 -0.1815 -0.1202 -0.3646
 5239SOL    HW117649   4.505   2.437   2.845 -0.7236 -1.5485 -0.4988
 5239SOL    HW217650   4.438   2.555   2.912  0.2604  0.0214 -2.1932
 5240SOL     OW17651   5.278   8.858   6.937  0.0735 -0.1087 -0.0897
 5240SOL    HW117652   5.221   8.911   6.881 -0.5833 -1.9994 -1.3413
 5240SOL    HW217653   5.224   8.782   6.960  1.4286 -0.9568  0.3880
 5241SOL     OW17654   0.860   0.557   4.371 -0.0215 -0.0898  0.4939
 5241SOL    HW117655   0.819   0.605   4.299 -0.1324  0.7033  1.0772
 5241SOL    HW217656   0.942   0.604   4.387  0.2696 -0.6035  0.5133
 5242SOL     OW17657   8.778   3.356   2.847  0.1778 -0.0157  0.0488
 5242SOL    HW117658   8.778   3.436   2.901 -2.1244 -0.8676  1.4657
 5242SOL    HW217659   8.825   3.292   2.900  1.6175  0.2175 -0.8882
 5243SOL     OW17660   0.691   7.056   0.118 -0.1330 -0.0569 -0.1082
 5243SOL    HW117661   0.786   7.041   0.118  0.3995  2.5970 -2.0174
 5243SOL    HW217662   0.660   7.011   0.039 -0.1814  0.4324 -0.3704
 5244SOL     OW17663   4.360   1.830   0.987  0.0179 -0.5071 -0.1091
 5244SOL    HW117664   4.269   1.804   0.974 -0.3480  1.3279 -1.7912
 5244SOL    HW217665   4.382   1.797   1.074 -3.2025  1.3832  1.6323
 5245SOL     OW17666   4.881   4.486   7.807 -0.0310 -0.1210  0.3786
 5245SOL    HW117667   4.875   4.392   7.788 -1.8701 -0.0543  0.4268
 5245SOL    HW217668   4.947   4.492   7.877 -0.5216 -1.4837  0.9959
 5246SOL     OW17669   1.052   2.556   8.408  0.4135 -0.0110  0.3691
 5246SOL    HW117670   1.138   2.515   8.419  1.1819  1.0269 -1.3299
 5246SOL    HW217671   1.023   2.526   8.322 -0.8415 -0.1487  0.8219
 5247SOL     OW17672   3.919   0.702   2.446 -0.7093  0.0680  0.2818
 5247SOL    HW117673   3.926   0.736   2.535  2.2083  2.4187 -0.6685
 5247SOL    HW217674   3.924   0.607   2.455 -0.6500  0.2553  2.6329
 5248SOL     OW17675   2.443   5.317   4.762 -0.0463  0.1336 -0.1200
 5248SOL    HW117676   2.519   5.272   4.725 -0.5561 -0.7049 -0.1778
 5248SOL    HW217677   2.380   5.247   4.779 -0.7520  0.8009  0.0625
 5249SOL     OW17678   4.554   3.669   7.774 -0.0503 -0.2776 -0.0502
 5249SOL    HW117679   4.543   3.576   7.794 -1.1570  0.0005  0.7456
 5249SOL    HW217680   4.649   3.682   7.771  0.1620 -1.8321 -2.2289
 5250SOL     OW17681   5.806   5.669   8.545  0.1955  0.4595  0.2585
 5250SOL    HW117682   5.845   5.743   8.499 -0.3056  0.5215 -0.0787
 5250SOL    HW217683   5.804   5.696   8.637  2.8374 -0.3670  0.6450
 5251SOL     OW17684   7.178   1.452   8.189  0.0415  0.2894 -0.1486
 5251SOL    HW117685   7.094   1.434   8.146  0.3204 -0.2942 -0.4792
 5251SOL    HW217686   7.243   1.409   8.132  0.6218  1.2565 -0.2306
 5252SOL     OW17687   8.021   3.738   1.790  0.2497 -0.3330  0.0943
 5252SOL    HW117688   8.061   3.703   1.711 -0.4097 -1.5599  0.2840
 5252SOL    HW217689   7.956   3.801   1.759  0.6995 -0.0485 -0.2875
 5253SOL     OW17690   5.408   3.155   5.579  0.4739  0.3258 -0.3246
 5253SOL    HW117691   5.476   3.206   5.535 -1.5437  3.7440  0.1546
 5253SOL    HW217692   5.403   3.194   5.667 -0.4062 -1.5678  0.5127
 5254SOL     OW17693   0.662   2.092   8.425 -0.2812  0.1295 -0.4659
 5254SOL    HW117694   0.711   2.172   8.441  2.5654 -1.8320  1.8682
 5254SOL    HW217695   0.572   2.121   8.407  0.3993  3.7511  1.1366
 5255SOL     OW17696   5.947   6.614   4.798 -0.5342 -0.0124 -0.2069
 5255SOL    HW117697   6.039   6.592   4.810 -0.6215  0.7126  2.4232
 5255SOL    HW217698   5.913   6.546   4.740  1.3994 -0.9051 -0.3636
 5256SOL     OW17699   6.504   8.721   2.938  0.1952  0.0805  0.1773
 5256SOL    HW117700   6.483   8.802   2.890  0.4185  1.2220  1.9175
 5256SOL    HW217701   6.442   8.720   3.011  0.7689 -0.8753  0.6677
 5257SOL     OW17702   5.549   7.514   4.984  0.2014 -0.1885 -0.0787
 5257SOL    HW117703   5.630   7.464   4.996  0.9493  0.6237 -1.4787
 5257SOL    HW217704   5.551   7.580   5.054 -0.0688 -1.1468  0.8653
 5258SOL     OW17705   3.360   0.570   6.480 -0.0317  0.9459  0.3820
 5258SOL    HW117706   3.367   0.489   6.429  1.6502  0.6597  1.0305
 5258SOL    HW217707   3.436   0.621   6.455  1.4141  0.3848  3.2641
 5259SOL     OW17708   3.550   3.806   4.413  0.3302 -0.1153 -0.0128
 5259SOL    HW117709   3.561   3.711   4.412  0.3796 -0.1308  1.1050
 5259SOL    HW217710   3.585   3.835   4.328  3.2855 -0.7844  0.8656
 5260SOL     OW17711   8.670   3.948   8.231 -0.1562 -0.1079 -0.0766
 5260SOL    HW117712   8.729   3.980   8.299  0.7194  0.7111 -1.1818
 5260SOL    HW217713   8.610   4.021   8.216 -0.9735 -0.6497  0.4901
 5261SOL     OW17714   2.553   3.234   3.630  0.2052  0.2329 -0.6581
 5261SOL    HW117715   2.458   3.241   3.639  0.1757  0.3456 -1.0714
 5261SOL    HW217716   2.580   3.318   3.593  0.5776  0.5615  0.3193
 5262SOL     OW17717   2.251   2.412   7.745 -0.0441  0.3705 -0.3231
 5262SOL    HW117718   2.236   2.318   7.734  0.5335 -0.1153  2.2112
 5262SOL    HW217719   2.303   2.437   7.669  1.6377 -1.8878 -0.0495
 5263SOL     OW17720   1.801   0.160   0.351  0.4250 -0.4535  0.0529
 5263SOL    HW117721   1.771   0.078   0.312  0.3054 -0.7480  0.7528
 5263SOL    HW217722   1.896   0.158   0.342  0.3393 -0.0852 -1.0615
 5264SOL     OW17723   6.751   2.663   6.394  0.2022  0.5748 -0.2201
 5264SOL    HW117724   6.762   2.677   6.489  2.2641 -2.4861  0.1582
 5264SOL    HW217725   6.841   2.654   6.361 -0.4968 -2.2130 -1.6915
 5265SOL     OW17726   2.720   8.410   0.304 -0.0746 -0.2798  0.5584
 5265SOL    HW117727   2.701   8.422   0.397  0.7882 -2.0384  0.9917
 5265SOL    HW217728   2.674   8.330   0.280 -0.5077  0.3002 -0.6277
 5266SOL     OW17729   7.651   0.677   5.193  0.3830  0.4692  0.2481
 5266SOL    HW117730   7.573   0.701   5.144  0.7744 -0.1721 -0.7263
 5266SOL    HW217731   7.626   0.601   5.244  1.4592 -2.7791 -3.5449
 5267SOL     OW17732   8.481   8.545   6.220  0.5294  0.2715  0.1526
 5267SOL    HW117733   8.531   8.620   6.253  0.1279  1.5288 -1.9447
 5267SOL    HW217734   8.540   8.502   6.158  0.0251  0.0500 -0.1785
 5268SOL     OW17735   5.508   8.661   6.092  0.5948  0.2630 -0.0865
 5268SOL    HW117736   5.443   8.634   6.157  0.9288  0.8674  0.5008
 5268SOL    HW217737   5.497   8.756   6.084  1.4412  0.3795  0.0602
 5269SOL     OW17738   6.833   7.910   6.338  0.0605 -0.3868  0.3307
 5269SOL    HW117739   6.867   7.963   6.266 -1.6831 -0.2645 -0.4525
 5269SOL    HW217740   6.769   7.967   6.381 -0.1999 -1.0824  0.8819
 5270SOL     OW17741   2.550   7.348   0.756 -0.0801 -0.3264  0.8565
 5270SOL    HW117742   2.626   7.376   0.807 -0.3284 -1.1184  1.6807
 5270SOL    HW217743   2.501   7.429   0.739  1.0542  0.2222  0.1175
 5271SOL     OW17744   7.343   3.680   3.358 -0.1707 -0.0669  0.0327
 5271SOL    HW117745   7.333   3.627   3.279 -1.0232  0.8121 -0.4710
 5271SOL    HW217746   7.420   3.644   3.402 -0.0401 -0.9492 -0.8908
 5272SOL     OW17747   1.923   2.738   0.147  0.0244 -0.2959  0.2104
 5272SOL    HW117748   1.872   2.695   0.078 -1.4800  1.2136  0.3346
 5272SOL    HW217749   1.967   2.666   0.192  0.0945 -1.4197 -1.5410
 5273SOL     OW17750   2.909   6.347   1.988 -0.1171  0.6688  0.6927
 5273SOL    HW117751   2.983   6.297   1.955 -0.8214 -0.1287  0.2714
 5273SOL    HW217752   2.925   6.437   1.960 -0.3682  0.1399 -1.2902
 5274SOL     OW17753   8.409   0.698   2.170 -0.5213  0.7471 -0.0583
 5274SOL    HW117754   8.351   0.732   2.238 -0.1846  0.8294  0.1896
 5274SOL    HW217755   8.350   0.659   2.106 -0.8858  1.4354 -0.1490
 5275SOL     OW17756   7.265   4.037   0.028 -0.2084 -0.7616  0.3709
 5275SOL    HW117757   7.314   4.008   0.104  1.0490  0.5431  0.0955
 5275SOL    HW217758   7.200   3.968   0.014 -1.0966 -0.6206  3.1411
 5276SOL     OW17759   6.476   7.644   2.428 -0.0312 -0.3533  0.4423
 5276SOL    HW117760   6.451   7.711   2.491 -0.2217  1.1659 -1.1837
 5276SOL    HW217761   6.570   7.631   2.443  0.1271  0.6856  0.4112
 5277SOL     OW17762   4.343   3.698   3.095 -0.4110  0.3503  0.4649
 5277SOL    HW117763   4.334   3.780   3.144  0.5671  0.0311  1.2294
 5277SOL    HW217764   4.329   3.629   3.161  0.7891 -0.0868  0.2971
 5278SOL     OW17765   7.948   8.336   7.654 -0.5282 -0.2178 -0.0956
 5278SOL    HW117766   8.030   8.371   7.690  0.4552 -1.5257 -0.9432
 5278SOL    HW217767   7.957   8.349   7.559 -0.3415 -2.2030 -0.3969
 5279SOL     OW17768   6.250   7.178   8.117  0.1299 -0.3233  0.4428
 5279SOL    HW117769   6.220   7.092   8.088  1.3487 -0.6275  0.0263
 5279SOL    HW217770   6.211   7.239   8.054 -0.5685 -0.5788  0.6149
 5280SOL     OW17771   6.200   8.286   5.799 -0.5913 -0.0219 -0.2574
 5280SOL    HW117772   6.129   8.255   5.743 -0.4461 -1.1654  0.1592
 5280SOL    HW217773   6.271   8.306   5.738 -0.8350 -0.0982 -0.5710
 5281SOL     OW17774   8.487   6.948   1.438 -0.2920 -0.0224 -0.3797
 5281SOL    HW117775   8.445   6.959   1.523 -0.4850  3.2359 -0.7711
 5281SOL    HW217776   8.580   6.962   1.457 -0.5285  3.0488 -0.8671
 5282SOL     OW17777   0.755   0.673   8.232  0.4540 -0.0289  0.0740
 5282SOL    HW117778   0.671   0.704   8.266  0.8303 -0.4154  1.4294
 5282SOL    HW217779   0.791   0.620   8.303  1.3628 -0.7606 -0.8967
 5283SOL     OW17780   7.021   5.488   7.935  0.0486 -0.2025 -0.1007
 5283SOL    HW117781   7.029   5.543   8.013  2.5210 -3.6461  2.3900
 5283SOL    HW217782   7.109   5.487   7.897  0.3173 -2.8495  0.4028
 5284SOL     OW17783   4.733   0.217   1.345 -0.2229 -0.4535 -0.7110
 5284SOL    HW117784   4.736   0.309   1.373  2.0266 -0.6153 -0.1997
 5284SOL    HW217785   4.708   0.221   1.253 -0.3394  0.6765 -0.6475
 5285SOL     OW17786   5.688   5.971   5.946  0.6342  0.1731  0.4844
 5285SOL    HW117787   5.628   5.921   6.001 -0.0607  0.9189  0.4275
 5285SOL    HW217788   5.769   5.920   5.947  0.9237  0.5613  2.8561
 5286SOL     OW17789   7.655   3.413   2.748 -0.1351  0.3352 -0.7140
 5286SOL    HW117790   7.596   3.389   2.820 -0.5100 -1.3508 -1.5422
 5286SOL    HW217791   7.714   3.338   2.739 -1.5959 -0.6025 -3.6646
 5287SOL     OW17792   7.150   8.059   5.982 -0.3384 -0.0670 -0.1896
 5287SOL    HW117793   7.140   8.020   6.069  0.4010 -0.7639 -0.3939
 5287SOL    HW217794   7.223   8.120   5.992 -0.0338 -0.3907 -0.3818
 5288SOL     OW17795   3.088   3.228   7.074  0.6639  0.1053 -0.3292
 5288SOL    HW117796   3.053   3.302   7.025 -3.4459 -1.0747  0.4431
 5288SOL    HW217797   3.127   3.172   7.007  2.2113  2.0067 -1.1274
 5289SOL     OW17798   1.162   4.336   4.739 -0.0306  0.0437 -0.5644
 5289SOL    HW117799   1.157   4.332   4.644  1.6947 -2.3939 -0.6637
 5289SOL    HW217800   1.088   4.284   4.769  1.2539 -2.0345 -0.7655
 5290SOL     OW17801   0.561   0.736   4.762 -0.2436 -0.2685  0.0458
 5290SOL    HW117802   0.571   0.656   4.814  2.0211 -0.5603 -0.6868
 5290SOL    HW217803   0.544   0.705   4.673 -0.6855  0.1189 -0.0103
 5291SOL     OW17804   7.731   3.676   2.020 -0.0135 -0.0212  0.1636
 5291SOL    HW117805   7.697   3.712   1.937  0.4899  1.4184  0.5504
 5291SOL    HW217806   7.687   3.592   2.029 -0.0632 -0.2355 -1.5862
 5292SOL     OW17807   8.050   5.202   0.484  0.4401 -0.0790 -0.1366
 5292SOL    HW117808   8.013   5.255   0.413  0.4621  0.0139 -0.0779
 5292SOL    HW217809   8.095   5.130   0.439 -1.2935 -1.2107 -0.1978
 5293SOL     OW17810   2.277   4.692   0.202  0.2079 -0.3650 -0.6665
 5293SOL    HW117811   2.372   4.692   0.216 -0.1385  0.2022  2.3619
 5293SOL    HW217812   2.252   4.784   0.206 -0.4845 -0.5127 -1.4732
 5294SOL     OW17813   4.515   0.642   5.410  0.3241 -0.1487  0.3248
 5294SOL    HW117814   4.459   0.716   5.434  2.3220  1.2340  1.0117
 5294SOL    HW217815   4.593   0.682   5.372  1.4183 -1.9004  0.5896
 5295SOL     OW17816   8.477   7.276   7.841 -0.1102 -0.8409  0.8180
 5295SOL    HW117817   8.511   7.323   7.765 -0.5059  0.0896  1.2020
 5295SOL    HW217818   8.491   7.336   7.915  1.8599 -2.3930  1.8175
 5296SOL     OW17819   6.014   4.600   5.441 -0.3739 -0.7060  0.3978
 5296SOL    HW117820   5.991   4.571   5.353  1.0793  0.5627 -0.4660
 5296SOL    HW217821   5.938   4.650   5.471 -0.3262  0.1132 -0.7721
 5297SOL     OW17822   1.533   6.246   8.328 -0.0354  0.0506  0.4774
 5297SOL    HW117823   1.608   6.258   8.270  0.2643  2.5083  1.2564
 5297SOL    HW217824   1.458   6.278   8.278 -0.3697 -1.0559  0.2328
 5298SOL     OW17825   2.537   1.813   5.955 -0.5498  0.5767  0.0672
 5298SOL    HW117826   2.471   1.863   6.002 -0.9319  0.2521 -0.1190
 5298SOL    HW217827   2.531   1.725   5.991 -0.0464  0.6083  0.2251
 5299SOL     OW17828   7.339   7.713   7.997 -0.7996 -0.0664 -0.2204
 5299SOL    HW117829   7.335   7.808   7.985  3.5416  0.2861 -0.3701
 5299SOL    HW217830   7.370   7.701   8.086  1.5506 -1.1291 -1.1094
 5300SOL     OW17831   5.164   7.519   4.695 -0.0734 -0.3774 -0.3435
 5300SOL    HW117832   5.256   7.526   4.673 -0.0770  2.0896  0.1313
 5300SOL    HW217833   5.162   7.461   4.772  1.4309  1.6382  1.3219
 5301SOL     OW17834   5.885   1.743   7.656 -0.5452 -0.1970  0.2323
 5301SOL    HW117835   5.793   1.762   7.639 -0.2456  0.1250 -1.1214
 5301SOL    HW217836   5.932   1.818   7.620  0.2561 -0.3622  0.9052
 5302SOL     OW17837   5.751   0.026   7.027  0.0314 -0.0310  0.1912
 5302SOL    HW117838   5.719   0.110   7.061 -1.0336 -0.3723  0.0683
 5302SOL    HW217839   5.705   0.015   6.944  0.3275 -0.6354  0.1063
 5303SOL     OW17840   1.466   1.359   6.396 -0.0383 -0.0121  0.3366
 5303SOL    HW117841   1.427   1.444   6.375  1.0992  0.7595  1.2134
 5303SOL    HW217842   1.487   1.320   6.311 -1.4143  0.1564 -0.1030
 5304SOL     OW17843   3.117   1.890   5.483 -0.2003  0.3539 -0.3563
 5304SOL    HW117844   3.068   1.972   5.477  1.2190  1.3134  0.5383
 5304SOL    HW217845   3.063   1.833   5.538 -1.8504  0.1240 -2.0800
 5305SOL     OW17846   7.338   4.884   4.321 -0.1776 -0.1430 -0.5726
 5305SOL    HW117847   7.412   4.837   4.358 -0.1436  0.7326  0.5152
 5305SOL    HW217848   7.264   4.824   4.331 -0.2438  0.1912  1.2961
 5306SOL     OW17849   0.143   4.030   8.062 -0.5513 -0.0661  0.1990
 5306SOL    HW117850   0.204   3.968   8.022 -1.0827 -0.4971  0.0471
 5306SOL    HW217851   0.079   3.975   8.106 -2.0191  0.3060 -1.3620
 5307SOL     OW17852   1.090   3.663   2.573 -0.2411 -0.7941 -0.0093
 5307SOL    HW117853   0.998   3.636   2.575 -0.2448 -1.1435 -2.4592
 5307SOL    HW217854   1.137   3.593   2.618 -0.8764 -2.2263 -1.4727
 5308SOL     OW17855   2.777   2.251   6.048 -0.1512  0.0802  0.5698
 5308SOL    HW117856   2.791   2.334   6.002  0.7686  1.2707  2.8582
 5308SOL    HW217857   2.682   2.247   6.059 -0.3119  0.2051 -0.6128
 5309SOL     OW17858   4.878   8.618   6.626 -0.4030  0.2169  0.3228
 5309SOL    HW117859   4.839   8.540   6.666  0.5981  0.2034  1.3239
 5309SOL    HW217860   4.821   8.690   6.654  0.5210  0.2729  2.2226
 5310SOL     OW17861   4.650   4.856   3.003 -0.2873 -0.2731 -0.4822
 5310SOL    HW117862   4.649   4.832   3.096 -2.9486 -1.9378 -0.8297
 5310SOL    HW217863   4.566   4.898   2.988 -0.1392 -0.5391 -2.2487
 5311SOL     OW17864   7.841   3.535   5.022  0.0281  0.2207 -0.2075
 5311SOL    HW117865   7.868   3.626   5.014 -1.7937  1.0119  1.5742
 5311SOL    HW217866   7.841   3.518   5.116  2.3522 -2.3615 -0.5406
 5312SOL     OW17867   7.398   5.704   2.538  0.7794  0.1278 -0.2892
 5312SOL    HW117868   7.403   5.662   2.451 -0.1446 -1.0830  0.2174
 5312SOL    HW217869   7.399   5.631   2.599 -0.5516  0.8726  0.6528
 5313SOL     OW17870   0.194   7.329   6.470  0.5665 -0.1829 -0.4301
 5313SOL    HW117871   0.123   7.376   6.426  1.3160 -0.8260 -2.4499
 5313SOL    HW217872   0.242   7.397   6.518 -0.1425  0.6005 -0.8077
 5314SOL     OW17873   6.155   2.387   2.736 -0.1997 -0.5155 -0.0322
 5314SOL    HW117874   6.110   2.463   2.772 -0.7477 -0.9372  0.1887
 5314SOL    HW217875   6.189   2.416   2.652  1.1887  0.5322  0.8228
 5315SOL     OW17876   1.005   2.232   1.748 -0.0452 -0.3666 -0.0853
 5315SOL    HW117877   1.032   2.323   1.731  0.9856 -0.8352 -1.1114
 5315SOL    HW217878   1.016   2.222   1.842 -1.1888  0.8704  0.2173
 5316SOL     OW17879   3.526   6.874   7.214  0.3598 -0.0986  0.1130
 5316SOL    HW117880   3.588   6.924   7.267  1.1593 -1.9999  1.0749
 5316SOL    HW217881   3.543   6.904   7.124 -0.8321  2.9779  0.7833
 5317SOL     OW17882   4.997   7.164   0.830  0.0586  0.0390  0.0044
 5317SOL    HW117883   4.933   7.235   0.836 -0.0950 -0.2138  1.9030
 5317SOL    HW217884   5.076   7.201   0.870  0.7618 -0.0505 -1.2511
 5318SOL     OW17885   0.373   3.094   4.565 -0.3712 -0.6028 -0.0242
 5318SOL    HW117886   0.319   3.024   4.527 -0.3155 -0.9122  0.4634
 5318SOL    HW217887   0.360   3.087   4.659 -0.5868  0.2318  0.0159
 5319SOL     OW17888   1.702   3.615   2.876 -0.1504 -0.1289  0.0081
 5319SOL    HW117889   1.787   3.658   2.890  0.0716 -0.0733 -1.4297
 5319SOL    HW217890   1.665   3.607   2.964  0.9581  0.6397  0.5671
 5320SOL     OW17891   1.393   7.186   0.472 -0.3116 -0.0143  0.5606
 5320SOL    HW117892   1.419   7.106   0.427 -0.1383  0.5022 -0.2742
 5320SOL    HW217893   1.365   7.157   0.559  2.1144 -0.7419  1.1963
 5321SOL     OW17894   7.476   5.028   4.102  0.2598 -0.0132 -0.2243
 5321SOL    HW117895   7.443   4.988   4.183  0.3712  2.5274  1.1886
 5321SOL    HW217896   7.405   5.016   4.039 -0.0042 -1.6959  0.3485
 5322SOL     OW17897   4.821   7.964   8.804  0.4854 -0.5752 -0.0808
 5322SOL    HW117898   4.902   8.005   8.775 -0.2575  1.1675  0.1702
 5322SOL    HW217899   4.755   7.997   8.743 -0.1063 -1.6743 -0.0583
 5323SOL     OW17900   0.633   1.220   2.726  0.5164 -0.0838  0.5347
 5323SOL    HW117901   0.544   1.216   2.760  0.4647 -0.9438  0.3236
 5323SOL    HW217902   0.673   1.294   2.772 -0.2207  0.1428  0.8244
 5324SOL     OW17903   3.732   6.047   3.347 -0.1866 -1.1525 -0.0496
 5324SOL    HW117904   3.784   6.127   3.352 -1.7123  0.1081 -2.4895
 5324SOL    HW217905   3.732   6.024   3.254 -2.0356 -2.4491  0.2155
 5325SOL     OW17906   7.899   5.728   3.451  0.1759  0.8014 -0.2239
 5325SOL    HW117907   7.928   5.728   3.542  0.7957 -1.9941 -0.3163
 5325SOL    HW217908   7.807   5.702   3.455 -0.0654  1.5989 -0.3742
 5326SOL     OW17909   1.804   5.213   6.173 -0.3206  0.0411  0.2649
 5326SOL    HW117910   1.789   5.220   6.079 -0.2032 -1.3180  0.1125
 5326SOL    HW217911   1.743   5.144   6.202  0.5970 -0.5282  0.9196
 5327SOL     OW17912   4.815   4.241   7.346 -0.4884  0.0540  0.0192
 5327SOL    HW117913   4.870   4.231   7.268  1.0882 -1.0367  1.1748
 5327SOL    HW217914   4.833   4.330   7.377  0.3077 -0.1335  0.1251
 5328SOL     OW17915   6.406   5.065   6.031 -0.1727  0.3144  0.6751
 5328SOL    HW117916   6.414   5.077   5.936  1.7220  0.1151  0.7789
 5328SOL    HW217917   6.459   4.988   6.050 -1.0688 -0.0412  1.8355
 5329SOL     OW17918   6.840   5.510   3.935  0.2552 -0.4499  0.0461
 5329SOL    HW117919   6.927   5.488   3.969 -0.5221 -0.1537  2.4612
 5329SOL    HW217920   6.822   5.597   3.971 -0.3810  0.2526 -1.8489
 5330SOL     OW17921   2.372   8.259   6.430  0.0001  0.4819  0.8897
 5330SOL    HW117922   2.461   8.225   6.424 -0.2188 -0.1006  0.9548
 5330SOL    HW217923   2.374   8.341   6.380  0.0497 -0.5777 -0.9197
 5331SOL     OW17924   3.072   0.381   4.404 -0.2528  0.0178  0.2357
 5331SOL    HW117925   3.073   0.461   4.351  0.5490  0.4140  0.8269
 5331SOL    HW217926   3.145   0.329   4.369 -1.3051 -0.8756 -0.7348
 5332SOL     OW17927   5.543   4.397   5.183 -0.9009  0.1231  0.6400
 5332SOL    HW117928   5.510   4.328   5.125 -1.9502  0.4367  0.8294
 5332SOL    HW217929   5.464   4.433   5.223 -0.3689  1.4030  0.5841
 5333SOL     OW17930   5.317   5.314   8.162  0.3028 -0.1283 -0.0082
 5333SOL    HW117931   5.359   5.232   8.188  2.8255  0.7336 -1.0570
 5333SOL    HW217932   5.362   5.381   8.212  0.1244  0.8424 -1.1085
 5334SOL     OW17933   0.027   5.258   8.506 -0.4320 -0.0295  0.0437
 5334SOL    HW117934   0.121   5.261   8.490 -0.9521  2.1227 -3.6962
 5334SOL    HW217935   0.001   5.169   8.480  0.4574 -0.5742  0.9147
 5335SOL     OW17936   1.734   5.142   8.133  0.0587  0.0769  0.1856
 5335SOL    HW117937   1.647   5.171   8.161 -1.0442  0.1120 -2.8492
 5335SOL    HW217938   1.794   5.204   8.172 -1.4129  0.9632  1.1534
 5336SOL     OW17939   3.210   0.805   0.796  0.3698  0.2379 -0.2439
 5336SOL    HW117940   3.235   0.879   0.852  3.0216 -0.9442  0.2823
 5336SOL    HW217941   3.170   0.742   0.856 -1.5078  1.0063 -0.6238
 5337SOL     OW17942   0.491   8.535   2.277 -0.1450 -0.6590 -0.0438
 5337SOL    HW117943   0.497   8.600   2.347  0.1518 -0.5799 -0.1413
 5337SOL    HW217944   0.575   8.539   2.232 -0.2713 -0.8259 -0.3046
 5338SOL     OW17945   2.742   3.420   6.119  0.4515  0.3695 -0.3833
 5338SOL    HW117946   2.761   3.499   6.068  1.6697  2.7587  3.3324
 5338SOL    HW217947   2.827   3.394   6.155 -0.1839 -1.8130 -0.3439
 5339SOL     OW17948   6.570   2.149   4.089  0.2967  0.3791  0.2532
 5339SOL    HW117949   6.635   2.205   4.131 -0.0544  1.0486 -0.0589
 5339SOL    HW217950   6.486   2.188   4.115 -0.0338 -1.1388  1.5851
 5340SOL     OW17951   2.917   4.564   4.769 -0.1483  0.0772 -0.3518
 5340SOL    HW117952   2.962   4.512   4.835 -2.0789 -0.6281  0.4756
 5340SOL    HW217953   2.905   4.503   4.695  0.4520  0.3351 -0.6652
 5341SOL     OW17954   6.206   4.879   3.449  0.3535 -0.0107  0.2965
 5341SOL    HW117955   6.150   4.858   3.373 -0.2394 -0.0835  0.7409
 5341SOL    HW217956   6.188   4.808   3.511  1.6339 -0.5362  0.0944
 5342SOL     OW17957   7.575   0.755   1.092  0.1483 -1.0940  0.1461
 5342SOL    HW117958   7.649   0.756   1.032 -0.4032  0.3405 -0.5349
 5342SOL    HW217959   7.500   0.731   1.038 -0.2266 -0.5114  0.3975
 5343SOL     OW17960   4.488   1.327   2.191 -0.1849 -0.5831 -0.1048
 5343SOL    HW117961   4.447   1.401   2.146 -2.1284 -1.3888  0.2068
 5343SOL    HW217962   4.539   1.282   2.123 -0.6538 -0.1022 -0.7866
 5344SOL     OW17963   4.193   2.084   7.038  0.6153  0.2027 -0.1972
 5344SOL    HW117964   4.183   2.097   7.132  1.4172 -0.4278 -0.0171
 5344SOL    HW217965   4.214   2.171   7.004 -0.7185  0.6408  0.0479
 5345SOL     OW17966   2.778   7.022   3.799  1.2477 -0.0424  0.3036
 5345SOL    HW117967   2.702   7.079   3.811  1.0191 -0.2914  0.0622
 5345SOL    HW217968   2.852   7.082   3.793  1.1963  0.1575  1.5153
 5346SOL     OW17969   5.008   2.251   4.804 -0.0001 -0.2816 -0.0765
 5346SOL    HW117970   5.035   2.267   4.894 -0.7299  0.2895  0.0478
 5346SOL    HW217971   5.046   2.323   4.754 -0.6035  0.0772 -0.0273
 5347SOL     OW17972   1.917   8.436   2.211 -0.2147 -0.0583  0.1137
 5347SOL    HW117973   1.961   8.401   2.289  1.5956 -0.8103 -1.1765
 5347SOL    HW217974   1.868   8.362   2.176 -0.5929  0.1359  0.2217
 5348SOL     OW17975   1.603   0.690   2.857 -0.2516 -0.0524 -0.2758
 5348SOL    HW117976   1.575   0.611   2.903 -0.1374  0.4919  0.7526
 5348SOL    HW217977   1.533   0.707   2.793 -0.0814 -1.1978 -0.7921
 5349SOL     OW17978   2.318   8.491   1.703 -0.2065 -0.6775 -0.1638
 5349SOL    HW117979   2.295   8.483   1.611 -0.3776 -1.9176 -0.0210
 5349SOL    HW217980   2.236   8.477   1.750 -0.2446  0.5569  0.1796
 5350SOL     OW17981   0.780   1.600   2.164  0.3393 -0.1331 -0.3377
 5350SOL    HW117982   0.733   1.671   2.209 -2.0606 -1.9920  0.3486
 5350SOL    HW217983   0.754   1.609   2.072 -2.1161 -1.5065  0.1185
 5351SOL     OW17984   1.020   4.883   8.498 -0.6469 -0.0184  0.6293
 5351SOL    HW117985   1.069   4.902   8.578 -0.5798  0.4855  0.4688
 5351SOL    HW217986   0.928   4.889   8.524 -0.6289  0.7360  0.5346
 5352SOL     OW17987   3.590   4.762   8.552 -0.1439 -0.0246 -0.3004
 5352SOL    HW117988   3.638   4.802   8.625 -3.0925  0.8213  1.3540
 5352SOL    HW217989   3.603   4.821   8.478 -1.4352  2.1782  1.1049
 5353SOL     OW17990   4.126   3.809   8.073 -0.6337  0.0073  0.4031
 5353SOL    HW117991   4.159   3.840   8.158 -0.7671 -0.2581  0.5544
 5353SOL    HW217992   4.138   3.883   8.014  0.2213 -0.0808  0.4578
 5354SOL     OW17993   3.854   5.150   7.577  0.0985 -0.6441  0.4762
 5354SOL    HW117994   3.794   5.166   7.504  2.0684 -0.6576 -1.2520
 5354SOL    HW217995   3.861   5.055   7.583  0.1402 -0.6398  0.5000
 5355SOL     OW17996   1.023   7.225   6.925 -0.1237 -0.3622 -0.4153
 5355SOL    HW117997   0.972   7.304   6.943 -0.3931  0.0404 -2.6855
 5355SOL    HW217998   0.991   7.161   6.989  1.4902  1.7958  2.8449
 5356SOL     OW17999   4.890   5.280   5.619  0.4211  0.1548  0.3826
 5356SOL    HW118000   4.968   5.307   5.667 -0.3314  1.3550  0.9861
 5356SOL    HW218001   4.836   5.359   5.615 -1.6910 -1.1309  1.7551
 5357SOL     OW18002   3.967   7.414   8.653  0.0691 -0.5170  0.2992
 5357SOL    HW118003   3.931   7.405   8.565 -1.5146 -0.0532  0.8645
 5357SOL    HW218004   3.956   7.327   8.692  0.7872 -0.7271  0.0375
 5358SOL     OW18005   5.064   7.670   8.196 -0.0888  0.4034  0.1256
 5358SOL    HW118006   5.137   7.719   8.159 -1.2559  1.2339 -1.1924
 5358SOL    HW218007   5.059   7.700   8.287  0.8895  0.7031  0.0892
 5359SOL     OW18008   5.846   6.050   2.315  0.0827  1.0023 -0.4434
 5359SOL    HW118009   5.846   6.143   2.336 -2.0352  1.0998 -0.5774
 5359SOL    HW218010   5.753   6.027   2.312  0.5633 -1.4759  1.0958
 5360SOL     OW18011   1.099   2.164   8.448  0.3047  0.2186  0.0626
 5360SOL    HW118012   1.181   2.144   8.403  0.9425 -0.6831  1.5593
 5360SOL    HW218013   1.052   2.221   8.388  1.9388  0.5808 -0.9257
 5361SOL     OW18014   0.189   1.173   0.201  0.0884 -0.3068 -0.1267
 5361SOL    HW118015   0.193   1.260   0.162 -0.0043 -0.0758  0.3730
 5361SOL    HW218016   0.097   1.146   0.191  0.1193 -0.3547 -0.2903
 5362SOL     OW18017   0.243   1.956   0.528 -0.1390 -0.2801  0.0435
 5362SOL    HW118018   0.307   2.014   0.487 -0.1658  0.4290  0.9562
 5362SOL    HW218019   0.203   2.009   0.597 -3.2983  0.0500 -1.8443
 5363SOL     OW18020   3.926   7.440   2.369  0.0282  0.2464 -0.9062
 5363SOL    HW118021   4.008   7.481   2.394  0.0913  0.4061 -1.3658
 5363SOL    HW218022   3.923   7.448   2.274 -0.1919 -0.3717 -0.9575
 5364SOL     OW18023   5.354   1.515   2.835  0.1404  0.0097  0.1083
 5364SOL    HW118024   5.371   1.565   2.755  1.5071  1.6434  1.3347
 5364SOL    HW218025   5.293   1.569   2.885 -1.7973 -1.6405 -0.3597
 5365SOL     OW18026   2.407   2.560   2.169 -0.2783 -0.0791 -0.3716
 5365SOL    HW118027   2.317   2.537   2.195 -0.0619 -1.9640 -1.0842
 5365SOL    HW218028   2.428   2.637   2.220 -1.5887 -0.7770  1.3303
 5366SOL     OW18029   1.355   0.895   6.561 -0.0327 -0.4921  0.2521
 5366SOL    HW118030   1.370   0.916   6.469 -1.4814 -1.6463 -0.2944
 5366SOL    HW218031   1.304   0.969   6.595 -2.2333 -1.4417 -0.7685
 5367SOL     OW18032   4.394   4.370   4.446  0.3529 -0.3132 -0.3001
 5367SOL    HW118033   4.384   4.459   4.481 -3.5383 -0.3350 -0.9665
 5367SOL    HW218034   4.433   4.320   4.518 -0.7119  1.1834  1.3964
 5368SOL     OW18035   2.874   1.483   0.271  0.5963  0.2887 -0.5468
 5368SOL    HW118036   2.791   1.437   0.261  0.1564  0.8483  0.4261
 5368SOL    HW218037   2.851   1.568   0.307  1.6729 -0.0524  1.0544
 5369SOL     OW18038   6.490   4.277   0.890 -0.1644 -0.2324 -0.0892
 5369SOL    HW118039   6.417   4.231   0.930  0.1507 -0.1950  0.5378
 5369SOL    HW218040   6.451   4.323   0.816 -1.2661  1.6916  1.5827
 5370SOL     OW18041   1.820   6.201   7.220  0.5456 -0.1038 -0.2016
 5370SOL    HW118042   1.750   6.170   7.277 -1.1016  1.3969 -1.3032
 5370SOL    HW218043   1.811   6.296   7.220 -0.1706 -0.0391 -3.6497
 5371SOL     OW18044   7.214   4.363   7.076 -0.0467 -0.2515 -0.1483
 5371SOL    HW118045   7.134   4.312   7.086 -0.2540  0.0827 -0.1074
 5371SOL    HW218046   7.252   4.332   6.994 -0.0824 -0.5946 -0.0366
 5372SOL     OW18047   8.857   2.528   2.938  0.3798 -0.2068  0.8367
 5372SOL    HW118048   8.901   2.449   2.907  2.9488  0.5865  2.2354
 5372SOL    HW218049   8.806   2.500   3.013 -0.9470 -0.9840 -0.3039
 5373SOL     OW18050   7.089   8.491   5.994 -0.3106 -0.2672 -0.4829
 5373SOL    HW118051   7.086   8.502   5.899 -1.3171 -2.0574 -0.7080
 5373SOL    HW218052   7.082   8.580   6.029  0.6971  0.4727 -2.0663
 5374SOL     OW18053   8.010   5.082   4.892  0.0702  0.1376 -0.0666
 5374SOL    HW118054   7.924   5.089   4.935  0.6561 -0.3565  1.2186
 5374SOL    HW218055   8.040   5.173   4.886  0.3771  0.1747  1.4586
 5375SOL     OW18056   8.770   4.041   2.473  0.5598 -0.1811 -0.1414
 5375SOL    HW118057   8.802   4.007   2.557  0.4126  0.2713  0.1002
 5375SOL    HW218058   8.679   4.014   2.470 -0.9916  3.8649  2.1338
 5376SOL     OW18059   6.915   6.206   3.127 -0.7384 -0.2269 -0.8552
 5376SOL    HW118060   6.984   6.176   3.068 -1.0152  0.6020 -1.6286
 5376SOL    HW218061   6.913   6.141   3.197 -0.6319 -1.4168 -1.9252
 5377SOL     OW18062   0.022   5.764   4.241  0.5322 -0.1455 -1.0642
 5377SOL    HW118063   0.019   5.716   4.159  2.0155 -0.1137 -1.1660
 5377SOL    HW218064   0.026   5.856   4.215  0.7376 -0.1204 -0.9429
 5378SOL     OW18065   7.850   3.904   3.947 -0.5276 -1.1417  0.2148
 5378SOL    HW118066   7.857   3.817   3.985 -2.0140 -1.4937 -0.2561
 5378SOL    HW218067   7.886   3.963   4.013 -1.7388 -1.8788  1.5854
 5379SOL     OW18068   8.567   0.074   3.029 -0.4019 -0.2203  0.1636
 5379SOL    HW118069   8.531   0.072   3.117  3.6593  0.1066  2.0852
 5379SOL    HW218070   8.593  -0.017   3.011 -1.0527 -0.2572 -0.6430
 5380SOL     OW18071   3.269   3.996   8.748 -0.1659 -0.4773  0.2685
 5380SOL    HW118072   3.203   4.025   8.811 -0.7618 -1.4546  0.1053
 5380SOL    HW218073   3.231   3.918   8.707 -0.0412  0.4393 -1.7132
 5381SOL     OW18074   0.982   4.801   4.285  0.3133 -0.1985  0.0808
 5381SOL    HW118075   0.999   4.843   4.201  2.3996 -0.9550  0.0679
 5381SOL    HW218076   1.024   4.858   4.349  0.2766 -0.5436  0.4122
 5382SOL     OW18077   7.077   2.692   5.010 -0.2125 -0.3328  0.5830
 5382SOL    HW118078   7.109   2.773   4.970 -2.6459  1.9286  2.8386
 5382SOL    HW218079   6.984   2.707   5.024 -0.3975 -2.8025  2.7269
 5383SOL     OW18080   1.333   4.244   3.348  0.0094 -0.5114  0.0342
 5383SOL    HW118081   1.307   4.155   3.324 -0.8538 -0.5557  1.0689
 5383SOL    HW218082   1.296   4.300   3.280  0.3204 -0.9170 -0.4715
 5384SOL     OW18083   7.799   5.225   3.569  0.5015  0.1919  0.5970
 5384SOL    HW118084   7.880   5.199   3.526  1.2694  0.4658  1.8154
 5384SOL    HW218085   7.828   5.280   3.642 -0.8945  2.1519 -0.2359
 5385SOL     OW18086   4.206   6.821   8.858 -0.1592 -0.5265  0.3950
 5385SOL    HW118087   4.151   6.808   8.935 -1.0672 -0.3966 -0.2211
 5385SOL    HW218088   4.199   6.738   8.809  0.0630 -0.4494  0.2306
 5386SOL     OW18089   8.184   2.762   8.822 -0.0932 -0.1867 -0.1202
 5386SOL    HW118090   8.239   2.745   8.898 -0.6217 -0.9454  0.0954
 5386SOL    HW218091   8.241   2.745   8.747  0.1360 -0.3814  0.0978
 5387SOL     OW18092   2.168   4.991   6.828 -0.6580 -0.8205 -0.3054
 5387SOL    HW118093   2.116   5.055   6.779  1.7649 -0.2512 -2.3344
 5387SOL    HW218094   2.181   4.918   6.767  0.0918 -1.3693  0.4771
 5388SOL     OW18095   4.336   4.933   4.885 -0.1687 -0.1035  0.5143
 5388SOL    HW118096   4.426   4.961   4.904  0.1460 -0.4907 -0.3784
 5388SOL    HW218097   4.328   4.941   4.790 -0.5197 -1.7242  0.3855
 5389SOL     OW18098   8.162   3.470   1.416  0.4156  0.3379 -0.0546
 5389SOL    HW118099   8.115   3.516   1.486  0.8937  1.1166 -0.2306
 5389SOL    HW218100   8.242   3.521   1.403  1.9536 -1.6439  1.0708
 5390SOL     OW18101   0.281   5.613   6.631 -0.9158  0.1148 -0.4456
 5390SOL    HW118102   0.276   5.659   6.715 -2.3413  0.8173 -0.8761
 5390SOL    HW218103   0.375   5.604   6.614 -0.5924  1.5617  0.3721
 5391SOL     OW18104   7.799   5.658   6.667  0.0008  0.1067 -0.4062
 5391SOL    HW118105   7.802   5.659   6.572  1.2025  1.4342 -0.3806
 5391SOL    HW218106   7.706   5.664   6.689 -0.2730 -0.0940 -1.4803
 5392SOL     OW18107   8.680   2.792   3.668 -0.1895 -0.4504 -0.3964
 5392SOL    HW118108   8.658   2.711   3.623 -2.9646 -0.9320  1.5372
 5392SOL    HW218109   8.648   2.862   3.611  1.2592 -0.7231 -1.5844
 5393SOL     OW18110   8.456   0.930   5.795 -0.3228  0.2509  0.2300
 5393SOL    HW118111   8.465   0.842   5.831 -0.6622  0.6189  1.2650
 5393SOL    HW218112   8.368   0.933   5.759 -0.5564  0.3561  0.7879
 5394SOL     OW18113   1.313   5.753   3.370 -0.1291 -0.0080  0.3075
 5394SOL    HW118114   1.375   5.747   3.297 -0.2113  0.0405  0.2333
 5394SOL    HW218115   1.274   5.666   3.375 -0.8202  0.2535 -0.3251
 5395SOL     OW18116   6.380   6.152   4.346 -0.0011 -0.2342  0.1796
 5395SOL    HW118117   6.334   6.136   4.429  2.1572 -0.1206  1.4839
 5395SOL    HW218118   6.464   6.107   4.357  0.8850  0.9467 -1.3992
 5396SOL     OW18119   3.092   7.705   3.661  0.3612 -0.0915 -0.1538
 5396SOL    HW118120   3.083   7.693   3.567  1.0515  0.2699 -0.2734
 5396SOL    HW218121   3.090   7.800   3.674 -2.9078 -0.1463  0.5556
 5397SOL     OW18122   7.632   4.434   1.959  0.3220 -0.4563  0.5025
 5397SOL    HW118123   7.693   4.436   1.885  2.4916 -0.9475  2.1802
 5397SOL    HW218124   7.609   4.526   1.973 -2.1035 -0.5023 -2.2071
 5398SOL     OW18125   1.917   2.354   7.462 -0.0073 -0.4257 -1.1368
 5398SOL    HW118126   1.952   2.439   7.487 -0.4876 -0.2453 -1.0518
 5398SOL    HW218127   1.973   2.325   7.390  1.4079 -0.9684  0.1544
 5399SOL     OW18128   4.717   3.005   7.408  0.2524  0.1265  0.6249
 5399SOL    HW118129   4.708   2.958   7.491  0.1709 -0.5931  0.2118
 5399SOL    HW218130   4.770   2.948   7.353  1.8709  1.3998  0.7810
 5400SOL     OW18131   6.589   0.223   7.772  0.2341 -0.1253 -0.0748
 5400SOL    HW118132   6.543   0.171   7.706  0.5842  0.3519 -0.6995
 5400SOL    HW218133   6.538   0.209   7.852  0.2595 -1.3404 -0.2527
 5401SOL     OW18134   6.189   4.228   8.612 -0.0261  0.1372 -0.4434
 5401SOL    HW118135   6.251   4.155   8.605 -0.1591  0.2126 -3.2265
 5401SOL    HW218136   6.243   4.303   8.639  0.7329 -0.2268 -0.9198
 5402SOL     OW18137   3.159   4.286   1.850 -0.2403 -0.2539  0.4546
 5402SOL    HW118138   3.203   4.209   1.885  2.3099  1.0571  0.4158
 5402SOL    HW218139   3.148   4.267   1.757  0.1323 -0.6720  0.4933
 5403SOL     OW18140   4.745   5.279   7.282 -0.0591 -0.4936 -0.5015
 5403SOL    HW118141   4.830   5.255   7.320 -0.7188 -0.1259  1.3306
 5403SOL    HW218142   4.754   5.372   7.261 -0.3815 -0.1022  0.9422
 5404SOL     OW18143   6.725   2.556   4.437 -0.1513 -0.1559  0.1677
 5404SOL    HW118144   6.679   2.482   4.398 -1.4321 -0.4085  2.0269
 5404SOL    HW218145   6.817   2.539   4.420 -0.5184 -1.4569 -0.6286
 5405SOL     OW18146   3.799   8.598   5.913 -0.2283  0.0150 -0.1804
 5405SOL    HW118147   3.876   8.599   5.856  1.4413  2.8111  1.8659
 5405SOL    HW218148   3.734   8.548   5.864  1.8893  0.0578 -3.3495
 5406SOL     OW18149   4.586   5.375   1.782 -0.3503 -0.3739  0.2104
 5406SOL    HW118150   4.565   5.308   1.716 -1.1472 -0.1028  0.1842
 5406SOL    HW218151   4.511   5.433   1.782 -0.3062 -0.2961  1.2782
 5407SOL     OW18152   7.646   7.638   7.319 -0.0081 -0.3340  0.3133
 5407SOL    HW118153   7.714   7.587   7.275 -0.4453 -0.5024 -0.1738
 5407SOL    HW218154   7.657   7.727   7.286  0.4260 -0.2141  0.7737
 5408SOL     OW18155   5.080   5.160   2.457 -0.3107 -0.1107 -0.2307
 5408SOL    HW118156   5.120   5.081   2.495 -0.9285 -0.1550  0.3670
 5408SOL    HW218157   4.987   5.137   2.449 -0.3866  0.3387 -0.6476
 5409SOL     OW18158   5.272   7.492   0.192 -0.4507  1.0589  0.1470
 5409SOL    HW118159   5.244   7.584   0.196 -0.4777  1.1451 -1.6198
 5409SOL    HW218160   5.364   7.496   0.166 -0.5508  0.5638 -0.2826
 5410SOL     OW18161   4.766   7.843   1.055 -0.1735  0.8380  0.0983
 5410SOL    HW118162   4.787   7.758   1.015  1.2943  2.3318 -2.6778
 5410SOL    HW218163   4.758   7.825   1.148  2.5186 -1.9769 -0.0518
 5411SOL     OW18164   6.803   7.934   8.131 -0.5051  0.0850 -0.0071
 5411SOL    HW118165   6.840   8.019   8.156  1.2815 -0.6630  0.0904
 5411SOL    HW218166   6.815   7.930   8.036  0.4826 -0.4976  0.1259
 5412SOL     OW18167   1.356   3.725   0.207  0.0452  0.5265  0.6798
 5412SOL    HW118168   1.447   3.698   0.220  0.5347  1.5807 -0.3802
 5412SOL    HW218169   1.354   3.759   0.118 -0.7499  2.9814  1.5610
 5413SOL     OW18170   7.082   8.146   0.200  0.4286 -0.2858 -0.2448
 5413SOL    HW118171   7.093   8.221   0.259  1.2185 -1.3515  1.0039
 5413SOL    HW218172   7.094   8.183   0.113  1.6882  0.9086  0.3878
 5414SOL     OW18173   8.105   0.982   7.423  0.1076  0.1963 -0.1199
 5414SOL    HW118174   8.119   1.017   7.335  0.6066 -0.7512 -0.4333
 5414SOL    HW218175   8.068   0.895   7.408  3.5359 -1.5178  0.4369
 5415SOL     OW18176   2.980   7.947   7.519 -0.3093 -0.5381 -0.3696
 5415SOL    HW118177   3.073   7.934   7.504 -0.2441 -0.2776 -0.1933
 5415SOL    HW218178   2.941   7.861   7.504 -0.0368 -0.6559 -0.4059
 5416SOL     OW18179   6.731   0.922   8.781 -0.2258 -0.0147  0.0246
 5416SOL    HW118180   6.758   0.877   8.701  0.8524 -1.4567  1.1554
 5416SOL    HW218181   6.648   0.880   8.804  0.1983 -0.6318  0.4482
 5417SOL     OW18182   6.404   4.201   1.422 -1.0581  0.1824 -0.0173
 5417SOL    HW118183   6.475   4.172   1.364 -2.0946 -1.7865 -0.3740
 5417SOL    HW218184   6.427   4.291   1.444  0.8422  0.0483 -1.2101
 5418SOL     OW18185   8.263   4.736   5.889 -0.8648 -0.2708  0.1720
 5418SOL    HW118186   8.242   4.643   5.880 -0.6767 -0.3201  0.2300
 5418SOL    HW218187   8.255   4.754   5.982 -1.9019  0.0178  0.0358
 5419SOL     OW18188   2.683   1.880   0.733 -0.4757 -0.2420  0.0621
 5419SOL    HW118189   2.663   1.964   0.693  2.1858  1.3136  1.7191
 5419SOL    HW218190   2.607   1.860   0.788 -0.6924  1.6825  0.5158
 5420SOL     OW18191   6.374   5.472   0.795  0.0003  0.3829  0.3010
 5420SOL    HW118192   6.443   5.411   0.770  0.8045  1.0701  0.7746
 5420SOL    HW218193   6.404   5.556   0.761 -0.0933  0.8729  1.4019
 5421SOL     OW18194   1.954   4.640   1.588 -0.2537  0.2243  0.0448
 5421SOL    HW118195   1.867   4.625   1.623 -0.8194  2.0318 -0.4963
 5421SOL    HW218196   1.985   4.719   1.631  1.1824 -0.4219  0.2894
 5422SOL     OW18197   2.418   4.212   0.435  0.2108  0.0885 -0.0836
 5422SOL    HW118198   2.331   4.173   0.441  0.4085 -0.3170  0.1727
 5422SOL    HW218199   2.475   4.141   0.406  0.4007  0.4380 -0.6000
 5423SOL     OW18200   3.887   4.456   1.839 -0.4057 -0.0676  0.3328
 5423SOL    HW118201   3.882   4.452   1.743 -3.0458  0.1505  0.3856
 5423SOL    HW218202   3.950   4.526   1.857  0.2350 -0.2082 -1.2373
 5424SOL     OW18203   7.185   7.461   3.314  0.3567  0.1113  0.0012
 5424SOL    HW118204   7.189   7.450   3.408 -0.3983 -1.8931 -0.1490
 5424SOL    HW218205   7.147   7.379   3.282  1.6209  0.2828 -2.1415
 5425SOL     OW18206   4.239   0.250   1.643 -0.0656 -0.0344  0.1886
 5425SOL    HW118207   4.223   0.341   1.616 -0.5012  0.2497  1.3245
 5425SOL    HW218208   4.158   0.225   1.688  0.3155 -0.7500  0.4793
 5426SOL     OW18209   0.340   6.670   5.177  0.6573  0.9945 -0.6721
 5426SOL    HW118210   0.265   6.685   5.234 -0.7002  0.4997 -2.2381
 5426SOL    HW218211   0.416   6.696   5.229 -0.6779  2.5980  0.5952
 5427SOL     OW18212   6.219   3.574   2.542 -0.3381  0.1210 -0.1071
 5427SOL    HW118213   6.167   3.494   2.543  0.5619 -0.4795  0.4560
 5427SOL    HW218214   6.160   3.642   2.576 -0.0970 -0.9952  2.8546
 5428SOL     OW18215   4.075   0.077   3.749 -0.2281 -0.2403  0.0374
 5428SOL    HW118216   4.023   0.032   3.682  0.6363 -0.6769 -0.3572
 5428SOL    HW218217   4.020   0.076   3.827 -0.8433 -0.6130 -0.3909
 5429SOL     OW18218   3.207   4.112   7.825 -0.1485  0.1095 -0.1060
 5429SOL    HW118219   3.129   4.149   7.868  0.0119  1.4975 -0.9382
 5429SOL    HW218220   3.233   4.179   7.762  1.2006 -0.7303 -0.4750
 5430SOL     OW18221   0.240   0.872   4.714  0.4342 -0.2246 -0.3515
 5430SOL    HW118222   0.206   0.792   4.753  0.9808 -1.0545 -1.5084
 5430SOL    HW218223   0.307   0.903   4.775  0.2338 -0.6647  0.0889
 5431SOL     OW18224   6.381   3.106   2.932  0.4366 -0.7414  0.3048
 5431SOL    HW118225   6.473   3.102   2.958  0.4645  0.0419  0.3698
 5431SOL    HW218226   6.359   3.016   2.908  1.4020 -0.8301 -0.3309
 5432SOL     OW18227   6.287   4.877   0.690  0.3922 -0.3215 -0.5129
 5432SOL    HW118228   6.266   4.961   0.732  1.6830 -0.0224 -0.4328
 5432SOL    HW218229   6.360   4.897   0.631  0.3772 -1.2922 -0.8802
 5433SOL     OW18230   2.883   4.659   1.002  0.0912 -0.3957  0.0996
 5433SOL    HW118231   2.952   4.695   1.058 -1.1949 -1.2677  2.3639
 5433SOL    HW218232   2.900   4.565   1.001 -1.4289 -0.7022  1.2455
 5434SOL     OW18233   7.769   1.037   2.850 -0.3119  0.0290 -0.0485
 5434SOL    HW118234   7.724   1.051   2.933 -1.4225 -0.3523 -0.5768
 5434SOL    HW218235   7.862   1.043   2.872 -0.5969  0.0503  1.1958
 5435SOL     OW18236   2.940   7.982   1.030  0.4287  0.0010  0.0625
 5435SOL    HW118237   2.895   7.911   1.077 -0.6868  1.1567  0.8241
 5435SOL    HW218238   2.884   8.000   0.955  1.1779 -0.5048 -0.6329
 5436SOL     OW18239   3.334   8.344   5.969 -0.1721  0.2366 -0.3406
 5436SOL    HW118240   3.375   8.391   6.042 -0.8163  0.6273 -0.2228
 5436SOL    HW218241   3.361   8.253   5.982 -1.1854  0.0969  1.0471
 5437SOL     OW18242   4.925   2.063   2.653  0.2428 -0.7391  0.4817
 5437SOL    HW118243   4.864   1.990   2.646  0.3127 -0.6637 -1.1696
 5437SOL    HW218244   4.908   2.117   2.576  0.8479  0.4912  1.1815
 5438SOL     OW18245   6.285   2.099   0.789  0.0107  0.8618  0.3328
 5438SOL    HW118246   6.272   2.122   0.881  0.5753 -0.0589  0.6568
 5438SOL    HW218247   6.347   2.026   0.791 -1.5554 -0.5795 -0.6611
 5439SOL     OW18248   4.516   2.634   1.005 -0.0951  0.0663 -0.1816
 5439SOL    HW118249   4.543   2.594   1.088  1.1549  1.5233  0.1392
 5439SOL    HW218250   4.583   2.607   0.942 -0.3036  0.0767 -0.4116
 5440SOL     OW18251   6.552   1.216   5.196  0.1422 -1.0067  0.1583
 5440SOL    HW118252   6.631   1.236   5.246 -0.7308  1.5903  0.6522
 5440SOL    HW218253   6.581   1.213   5.105  1.1535 -2.3069  0.5020
 5441SOL     OW18254   4.883   3.407   0.329  0.7488 -0.9044  0.1826
 5441SOL    HW118255   4.796   3.391   0.366  0.2879 -0.3251 -0.6024
 5441SOL    HW218256   4.927   3.463   0.393  0.3332 -0.7444  0.3316
 5442SOL     OW18257   1.316   7.953   8.801 -0.2372  0.0308  0.7183
 5442SOL    HW118258   1.324   7.999   8.885 -0.8053 -0.6337  1.1470
 5442SOL    HW218259   1.225   7.922   8.798 -1.2357  2.7597 -1.5956
 5443SOL     OW18260   7.527   6.811   5.132  0.3000  0.1068  0.5762
 5443SOL    HW118261   7.457   6.802   5.197 -2.2448  0.2701 -1.9451
 5443SOL    HW218262   7.524   6.903   5.105 -1.4544 -0.6624 -2.4035
 5444SOL     OW18263   4.595   1.407   4.463  0.2166 -0.8704 -0.4520
 5444SOL    HW118264   4.648   1.428   4.540 -0.4158  2.3585 -0.7778
 5444SOL    HW218265   4.658   1.406   4.391  0.1482  1.3892 -0.6030
 5445SOL     OW18266   6.132   8.665   5.765 -0.2467  0.0764 -0.0539
 5445SOL    HW118267   6.182   8.643   5.843 -0.5554 -1.6065 -0.2793
 5445SOL    HW218268   6.041   8.651   5.789 -0.2597 -2.2371 -1.1611
 5446SOL     OW18269   3.743   6.861   6.604 -0.3220 -0.4904 -0.0648
 5446SOL    HW118270   3.699   6.928   6.553 -0.3198  0.2510  0.8872
 5446SOL    HW218271   3.782   6.908   6.678  1.0583 -1.2954 -0.2417
 5447SOL     OW18272   0.740   2.224   1.730 -0.2717 -0.3493 -0.1928
 5447SOL    HW118273   0.834   2.207   1.732 -0.2901 -0.4881  2.0505
 5447SOL    HW218274   0.701   2.138   1.745 -0.7260 -0.1466 -0.2174
 5448SOL     OW18275   4.629   5.987   5.250  0.2506 -1.1115 -0.0634
 5448SOL    HW118276   4.546   6.030   5.229  0.8870  0.0706 -0.2612
 5448SOL    HW218277   4.624   5.902   5.206 -0.3106 -0.5094 -1.2152
 5449SOL     OW18278   8.444   1.007   7.798 -0.0695  0.3773 -0.9189
 5449SOL    HW118279   8.400   0.998   7.714  0.7200  0.2248 -1.3242
 5449SOL    HW218280   8.373   1.015   7.861 -0.6684  1.9961 -1.7573
 5450SOL     OW18281   7.961   8.443   1.544 -1.0695 -0.6146  0.1090
 5450SOL    HW118282   8.010   8.411   1.468 -1.1880 -0.6993  0.0694
 5450SOL    HW218283   7.920   8.524   1.514 -0.9491 -0.5389  0.1446
 5451SOL     OW18284   2.128   3.590   1.255 -0.1643  0.1561 -0.1227
 5451SOL    HW118285   2.051   3.586   1.199 -0.1630 -1.9788 -0.0793
 5451SOL    HW218286   2.099   3.636   1.333 -0.7765  1.2532 -0.9734
 5452SOL     OW18287   3.442   8.358   6.406  0.2654  0.7253 -0.6521
 5452SOL    HW118288   3.473   8.289   6.347  0.1327  1.6065 -1.7831
 5452SOL    HW218289   3.381   8.409   6.354 -1.1872  0.5306  0.7876
 5453SOL     OW18290   4.647   2.354   4.495  0.8600 -0.4697 -0.2134
 5453SOL    HW118291   4.685   2.295   4.560 -1.0241 -0.3984  1.0324
 5453SOL    HW218292   4.710   2.356   4.424  2.3381 -1.6628  1.0124
 5454SOL     OW18293   2.765   3.931   7.360  0.5718  0.3292  0.4163
 5454SOL    HW118294   2.723   4.009   7.396 -1.5348  0.4461 -2.0180
 5454SOL    HW218295   2.748   3.862   7.424 -1.4116  0.9058  0.5750
 5455SOL     OW18296   7.569   3.032   2.743  0.7096  0.2131  0.4105
 5455SOL    HW118297   7.533   3.009   2.657  1.8194  1.0908 -0.3170
 5455SOL    HW218298   7.649   3.080   2.723  0.2746  1.6481  1.9100
 5456SOL     OW18299   3.154   3.727   0.747  0.1099  0.0559  0.1134
 5456SOL    HW118300   3.204   3.748   0.826 -0.7898  0.6280  0.5523
 5456SOL    HW218301   3.067   3.704   0.779 -0.3234  0.4811 -0.7216
 5457SOL     OW18302   3.772   3.501   5.716 -0.5788  0.1423  0.0805
 5457SOL    HW118303   3.866   3.494   5.701 -0.4086 -1.2820  1.4907
 5457SOL    HW218304   3.732   3.484   5.631  0.3975 -2.5428  0.0459
 5458SOL     OW18305   2.910   3.005   6.335 -0.4806  0.0741 -0.1163
 5458SOL    HW118306   2.926   2.911   6.330 -0.7901  0.0758 -1.4866
 5458SOL    HW218307   2.894   3.022   6.427  1.9973 -0.8089  0.5715
 5459SOL     OW18308   5.930   3.744   6.180  0.3286  0.4795  0.1316
 5459SOL    HW118309   5.994   3.676   6.163  0.4216  1.0737 -2.3324
 5459SOL    HW218310   5.874   3.709   6.249  1.6506 -1.1597  0.4213
 5460SOL     OW18311   5.574   0.769   7.680 -0.3742  0.4338  0.2435
 5460SOL    HW118312   5.621   0.805   7.756  0.9922 -1.4550  0.3823
 5460SOL    HW218313   5.521   0.842   7.647  1.4176  2.2219  1.1028
 5461SOL     OW18314   1.545   1.903   0.586  0.2189  0.5603  0.5568
 5461SOL    HW118315   1.596   1.831   0.623  0.5058  1.9903  3.1793
 5461SOL    HW218316   1.460   1.863   0.565  0.5865 -0.6818  1.3137
 5462SOL     OW18317   1.448   1.581   1.656  0.0674  0.2722 -0.1088
 5462SOL    HW118318   1.424   1.617   1.570 -1.0263  0.2266  0.1537
 5462SOL    HW218319   1.446   1.486   1.642  0.6422  0.2720 -0.2157
 5463SOL     OW18320   3.378   4.917   8.699 -0.2888  0.2311 -0.2154
 5463SOL    HW118321   3.442   4.874   8.641 -0.3645  1.6678 -1.4426
 5463SOL    HW218322   3.382   5.010   8.674 -2.2292  0.4956  0.2850
 5464SOL     OW18323   8.673   1.038   1.628  0.2024  0.3117  0.1993
 5464SOL    HW118324   8.764   1.052   1.657 -0.1586  0.6121  1.2349
 5464SOL    HW218325   8.681   0.986   1.548  1.3556  1.5363 -0.5225
 5465SOL     OW18326   4.752   1.165   6.290  0.1612  0.2123 -0.0257
 5465SOL    HW118327   4.789   1.252   6.279  0.0996 -0.0160 -2.8052
 5465SOL    HW218328   4.696   1.171   6.367  2.2468  1.8375  1.4837
 5466SOL     OW18329   0.205   6.147   5.181  0.1143  0.7098  0.4814
 5466SOL    HW118330   0.164   6.231   5.162 -0.9666  0.2840  0.8326
 5466SOL    HW218331   0.150   6.083   5.136  0.5201  0.1310  0.7952
 5467SOL     OW18332   3.176   6.349   2.166 -0.2664  0.6916  0.4851
 5467SOL    HW118333   3.082   6.337   2.152  0.0762 -0.7722 -0.8679
 5467SOL    HW218334   3.202   6.270   2.214  0.6708 -0.1813 -1.3696
 5468SOL     OW18335   6.758   3.864   5.865 -0.0988  0.3113  0.0643
 5468SOL    HW118336   6.787   3.896   5.951 -1.0735  0.4085  0.3768
 5468SOL    HW218337   6.799   3.778   5.856  1.2079  0.9153 -0.0405
 5469SOL     OW18338   6.964   3.696   7.887  0.0670  0.7555 -0.2568
 5469SOL    HW118339   7.057   3.683   7.869  0.1324  0.7865  0.0618
 5469SOL    HW218340   6.921   3.623   7.843  0.4662 -0.8260  1.8721
 5470SOL     OW18341   7.369   0.507   6.079  0.6143  0.0845 -0.5756
 5470SOL    HW118342   7.428   0.529   6.151 -0.0668  1.0906 -0.3070
 5470SOL    HW218343   7.332   0.591   6.051 -0.5148 -0.4949 -0.8874
 5471SOL     OW18344   1.253   8.700   7.601  0.0168  0.2181  0.3593
 5471SOL    HW118345   1.262   8.621   7.655 -2.7031 -0.0576  0.5511
 5471SOL    HW218346   1.284   8.674   7.515  2.6381  0.0929  1.2621
 5472SOL     OW18347   8.485   8.134   2.147 -0.0977 -0.0415 -0.2373
 5472SOL    HW118348   8.450   8.056   2.105 -1.0321  0.0265  0.3911
 5472SOL    HW218349   8.519   8.102   2.231  2.3905 -0.3066 -1.2379
 5473SOL     OW18350   0.875   4.127   3.475 -0.4219  0.8579 -0.1027
 5473SOL    HW118351   0.847   4.194   3.413 -1.3180  0.2497 -0.3732
 5473SOL    HW218352   0.925   4.065   3.422  0.7870  1.5141  0.2281
 5474SOL     OW18353   3.137   7.703   3.354  0.6488 -0.0171  0.0415
 5474SOL    HW118354   3.128   7.709   3.259 -0.7008 -2.0300 -0.0234
 5474SOL    HW218355   3.227   7.672   3.368  1.2891  1.5388 -0.4717
 5475SOL     OW18356   1.321   6.691   8.030 -0.0851 -0.1356 -0.1418
 5475SOL    HW118357   1.276   6.659   8.108  0.8020  0.4787  0.6465
 5475SOL    HW218358   1.271   6.656   7.957 -0.9961 -0.6384  0.7048
 5476SOL     OW18359   3.554   3.411   8.439 -0.8891 -0.6636  0.9594
 5476SOL    HW118360   3.582   3.464   8.514 -2.1815 -0.8605  1.6109
 5476SOL    HW218361   3.544   3.323   8.474  0.3891 -1.1841  0.0787
 5477SOL     OW18362   8.040   2.933   2.289  0.0628  0.3485  0.5236
 5477SOL    HW118363   7.995   2.902   2.368 -1.2615 -0.6082 -0.5521
 5477SOL    HW218364   7.976   2.990   2.246 -0.2775 -1.1386 -1.0947
 5478SOL     OW18365   5.646   5.577   1.520  0.0121  0.2389 -0.1044
 5478SOL    HW118366   5.559   5.549   1.490  0.6147  0.5832 -2.3519
 5478SOL    HW218367   5.657   5.533   1.605 -2.7827  1.0844  0.8147
 5479SOL     OW18368   7.023   0.711   7.265 -0.3184  0.7955 -0.1978
 5479SOL    HW118369   6.973   0.631   7.249  1.4247 -0.3206 -0.3373
 5479SOL    HW218370   7.073   0.692   7.344 -1.5346  2.6281  1.1149
 5480SOL     OW18371   8.110   3.021   6.431  0.5538 -0.4617  0.3856
 5480SOL    HW118372   8.139   2.973   6.509  1.7604  2.5242  1.9091
 5480SOL    HW218373   8.070   2.954   6.375  0.7198 -2.9307  3.0226
 5481SOL     OW18374   0.806   6.409   6.930  0.0215 -0.1081 -0.3280
 5481SOL    HW118375   0.753   6.462   6.871  0.2946  0.0951 -0.3875
 5481SOL    HW218376   0.798   6.453   7.015  0.0322 -0.1240 -0.3189
 5482SOL     OW18377   4.733   7.367   8.815  0.2054  0.8202 -0.4796
 5482SOL    HW118378   4.786   7.302   8.861 -1.1561  0.0421  0.0456
 5482SOL    HW218379   4.665   7.316   8.772  0.6266  1.6768 -2.2437
 5483SOL     OW18380   4.512   2.788   6.348  0.0392  0.1636 -0.0774
 5483SOL    HW118381   4.438   2.792   6.408 -1.5281  1.9923 -1.9881
 5483SOL    HW218382   4.578   2.847   6.386 -0.3269  0.1453  0.5879
 5484SOL     OW18383   1.755   0.214   2.384  0.4584 -0.1401 -0.1323
 5484SOL    HW118384   1.691   0.240   2.318 -1.3287 -1.4496  1.0051
 5484SOL    HW218385   1.819   0.162   2.335 -0.6958 -0.8838 -0.9132
 5485SOL     OW18386   6.107   2.595   3.790 -0.3472  0.1835 -0.3890
 5485SOL    HW118387   6.064   2.680   3.795 -0.6804  0.0756 -1.2868
 5485SOL    HW218388   6.196   2.614   3.760 -0.4586  0.2082 -0.7070
 5486SOL     OW18389   3.715   5.821   4.529 -0.1477  0.2780  0.3137
 5486SOL    HW118390   3.775   5.884   4.571  1.2896 -0.8765  0.0605
 5486SOL    HW218391   3.762   5.738   4.531 -2.2474 -0.9749  1.1827
 5487SOL     OW18392   1.219   3.793   3.953  0.0308  0.3008  0.0008
 5487SOL    HW118393   1.174   3.729   3.898 -1.0015 -0.2089  1.3611
 5487SOL    HW218394   1.207   3.876   3.908 -1.3749 -0.0002 -0.2377
 5488SOL     OW18395   4.774   2.461   6.204  0.2879 -0.2165  0.1205
 5488SOL    HW118396   4.829   2.514   6.262  0.5696 -0.9636  0.5652
 5488SOL    HW218397   4.709   2.521   6.170 -0.1870  0.1540  1.6109
 5489SOL     OW18398   5.419   0.579   7.265  0.0014  0.1262  0.2468
 5489SOL    HW118399   5.403   0.639   7.337 -1.6653  0.8722 -0.6729
 5489SOL    HW218400   5.450   0.635   7.194 -0.0094 -0.3372 -0.1299
 5490SOL     OW18401   4.110   8.006   2.685 -0.4060  0.1927 -0.0540
 5490SOL    HW118402   4.164   8.067   2.635 -0.4064  0.1248 -0.1363
 5490SOL    HW218403   4.023   8.012   2.645  0.4538 -2.8729 -2.8011
 5491SOL     OW18404   2.547   0.233   8.566 -0.0623  0.4563 -0.0899
 5491SOL    HW118405   2.552   0.163   8.501  0.3263 -0.4633  0.8870
 5491SOL    HW218406   2.615   0.295   8.540  0.7237 -0.3655 -0.0723
 5492SOL     OW18407   2.730   4.428   7.290 -0.0209 -0.4268  0.0375
 5492SOL    HW118408   2.713   4.340   7.326 -0.2779 -2.0413 -3.6338
 5492SOL    HW218409   2.819   4.422   7.254 -0.2898  0.6370 -0.8218
 5493SOL     OW18410   3.782   0.964   7.542 -0.0156  0.0331 -0.0642
 5493SOL    HW118411   3.752   1.048   7.575 -0.3507  0.3839 -1.2148
 5493SOL    HW218412   3.704   0.922   7.507  0.3257 -0.3054 -0.4385
 5494SOL     OW18413   3.601   3.755   7.523  1.1204 -0.0255  0.4171
 5494SOL    HW118414   3.554   3.838   7.526 -0.3735 -0.8597  1.2256
 5494SOL    HW218415   3.692   3.779   7.505  0.4580  1.6594 -0.9457
 5495SOL     OW18416   4.565   4.178   0.242  0.2333 -0.3370  0.2281
 5495SOL    HW118417   4.641   4.201   0.188 -1.8191  1.3047 -2.1981
 5495SOL    HW218418   4.515   4.117   0.188 -1.2947  0.3764  0.8017
 5496SOL     OW18419   2.030   1.526   1.190  0.4958 -0.5202  0.5506
 5496SOL    HW118420   2.085   1.596   1.225  0.0085  0.2164 -0.1028
 5496SOL    HW218421   1.941   1.559   1.201  0.1150 -1.9781  2.1964
 5497SOL     OW18422   0.994   3.369   5.278 -0.2056 -0.0493 -0.5412
 5497SOL    HW118423   0.933   3.393   5.208  0.2112  0.5030 -0.7294
 5497SOL    HW218424   1.032   3.286   5.249 -0.5159 -0.1543 -0.6514
 5498SOL     OW18425   0.562   2.487   4.008  0.3872 -0.0404 -0.2869
 5498SOL    HW118426   0.621   2.548   3.963 -0.5338  0.9033 -0.2408
 5498SOL    HW218427   0.480   2.494   3.960 -0.7017  1.1936  1.6478
 5499SOL     OW18428   6.644   6.076   0.913  0.4224 -0.0822  0.3351
 5499SOL    HW118429   6.626   6.148   0.973 -0.9380 -1.6451  1.9452
 5499SOL    HW218430   6.558   6.054   0.876  0.2667 -2.5366  1.9334
 5500SOL     OW18431   7.925   7.185   0.407  0.2772  0.5370 -0.2383
 5500SOL    HW118432   7.832   7.204   0.396  0.3474  1.1957  0.2687
 5500SOL    HW218433   7.928   7.124   0.482  0.1596 -0.5153 -1.0629
 5501SOL     OW18434   5.483   3.272   2.186 -0.5884  0.3519 -0.4706
 5501SOL    HW118435   5.516   3.187   2.159  0.2199  1.1699 -2.2289
 5501SOL    HW218436   5.390   3.269   2.167 -0.8095 -0.5546  0.6706
 5502SOL     OW18437   8.659   6.905   3.704  0.2115  0.3181 -0.5220
 5502SOL    HW118438   8.727   6.879   3.766 -0.3976  0.2417  0.1262
 5502SOL    HW218439   8.641   6.997   3.726 -0.4632  0.1060 -0.1319
 5503SOL     OW18440   6.198   5.226   1.826 -0.2866  0.2120  0.2137
 5503SOL    HW118441   6.216   5.201   1.736  1.1470  1.6758  0.0538
 5503SOL    HW218442   6.135   5.298   1.819  0.2270  0.6796  0.3404
 5504SOL     OW18443   8.488   2.686   6.467  0.3347 -0.0971  0.0453
 5504SOL    HW118444   8.494   2.780   6.486  2.4682 -0.4155  1.2550
 5504SOL    HW218445   8.483   2.645   6.553  1.4516 -1.1797 -0.3840
 5505SOL     OW18446   2.678   3.830   6.931  0.0502  0.0737 -0.0151
 5505SOL    HW118447   2.736   3.755   6.941 -0.3721 -0.3506 -0.6260
 5505SOL    HW218448   2.591   3.792   6.924 -0.1762  0.6255 -0.2693
 5506SOL     OW18449   2.552   3.807   5.114  0.3130 -0.4160  0.2082
 5506SOL    HW118450   2.549   3.727   5.061  1.3653  0.7419 -1.7018
 5506SOL    HW218451   2.461   3.838   5.117 -0.1312 -1.7170  1.0928
 5507SOL     OW18452   8.023   2.112   7.250  0.2531 -0.0137  0.3042
 5507SOL    HW118453   7.934   2.083   7.274  0.0385  0.5288  0.1842
 5507SOL    HW218454   8.031   2.198   7.290 -0.2440  1.0853 -1.8531
 5508SOL     OW18455   8.008   6.732   7.586  0.3384  0.7282 -0.1755
 5508SOL    HW118456   7.964   6.806   7.543 -1.1244  1.1903  1.9792
 5508SOL    HW218457   7.961   6.721   7.668  1.7134 -1.4547  0.3806
 5509SOL     OW18458   0.121   2.104   0.760 -0.3446 -0.0854  0.1577
 5509SOL    HW118459   0.093   2.187   0.720 -1.2214 -1.3952 -2.1243
 5509SOL    HW218460   0.059   2.039   0.728  1.2625 -1.9317  0.5699
 5510SOL     OW18461   8.683   3.290   0.502  0.2738  0.4261 -0.3185
 5510SOL    HW118462   8.689   3.385   0.493 -0.1031  0.6840  1.8235
 5510SOL    HW218463   8.767   3.264   0.540 -0.0159  0.0429  0.0669
 5511SOL     OW18464   3.412   8.068   5.296  0.3955 -0.0357  0.2741
 5511SOL    HW118465   3.395   8.103   5.209  0.1279 -1.3376 -0.2213
 5511SOL    HW218466   3.337   8.097   5.349 -0.0619 -0.2481 -0.2488
 5512SOL     OW18467   7.849   0.309   7.574  0.4871  0.5397  0.0838
 5512SOL    HW118468   7.881   0.219   7.573 -0.7715  0.0752 -0.6431
 5512SOL    HW218469   7.916   0.359   7.527 -0.3584 -0.6160 -2.5390
 5513SOL     OW18470   1.860   1.378   6.241  0.3059 -0.1236 -0.6792
 5513SOL    HW118471   1.875   1.449   6.303  2.4525 -0.3439 -0.8629
 5513SOL    HW218472   1.916   1.400   6.166  1.5782 -2.2938 -0.4556
 5514SOL     OW18473   6.431   3.296   0.742 -0.7251 -0.8281 -0.1974
 5514SOL    HW118474   6.425   3.368   0.679  0.3375 -0.4232  0.1401
 5514SOL    HW218475   6.345   3.253   0.737 -0.2834 -1.6042 -2.8346
 5515SOL     OW18476   0.065   5.658   7.289 -0.2349 -0.1898  0.3381
 5515SOL    HW118477   0.083   5.664   7.383 -0.0012  0.0636  0.2778
 5515SOL    HW218478   0.149   5.635   7.250 -0.4035 -0.6185  0.2240
 5516SOL     OW18479   7.020   6.778   5.993 -0.1562 -0.2415  0.4092
 5516SOL    HW118480   7.006   6.871   5.979  0.8495 -0.2226 -0.5747
 5516SOL    HW218481   6.936   6.746   6.028 -1.2390  0.6167 -1.2864
 5517SOL     OW18482   0.036   6.170   2.031 -0.0847 -0.2879 -0.8107
 5517SOL    HW118483   0.004   6.162   1.942  0.7241 -1.5154 -1.0084
 5517SOL    HW218484  -0.039   6.147   2.086 -0.2306 -0.7467 -1.2017
 5518SOL     OW18485   7.234   3.442   4.106  0.1043 -0.2188 -0.0962
 5518SOL    HW118486   7.220   3.348   4.091 -1.9922  0.1932 -1.0705
 5518SOL    HW218487   7.287   3.471   4.032  0.3778 -0.5501 -0.0319
 5519SOL     OW18488   8.751   1.215   6.134  0.4407 -0.1493 -0.6606
 5519SOL    HW118489   8.723   1.199   6.224  2.7996  2.5843  0.7111
 5519SOL    HW218490   8.844   1.192   6.132  0.7719  1.0891 -1.9873
 5520SOL     OW18491   0.537   5.113   6.430  0.2877 -0.0176  0.1564
 5520SOL    HW118492   0.489   5.102   6.512  0.3023 -0.9272  0.0576
 5520SOL    HW218493   0.510   5.198   6.397  0.1153  0.2661  0.9957
 5521SOL     OW18494   7.145   4.391   3.704  0.6034 -0.3168  0.0590
 5521SOL    HW118495   7.067   4.444   3.684 -0.6107 -1.3290  1.8656
 5521SOL    HW218496   7.200   4.449   3.757  0.2506 -0.1642  0.2674
 5522SOL     OW18497   8.591   1.518   0.492 -0.3599  0.4192  0.0385
 5522SOL    HW118498   8.584   1.474   0.577 -0.2351 -0.4247 -0.3755
 5522SOL    HW218499   8.510   1.495   0.447  0.3374 -0.6231 -0.7379
 5523SOL     OW18500   3.734   8.811   3.969  0.1931 -0.4633 -0.5436
 5523SOL    HW118501   3.746   8.716   3.977  0.0731 -0.3409  1.5478
 5523SOL    HW218502   3.823   8.846   3.968  0.2271 -0.5455 -0.9454
 5524SOL     OW18503   5.288   6.039   1.049  0.1139  0.2796 -0.1016
 5524SOL    HW118504   5.360   6.080   1.097  0.9383 -1.7475  0.4987
 5524SOL    HW218505   5.291   6.080   0.963  0.9535  1.3830  0.4221
 5525SOL     OW18506   5.324   2.271   4.575  0.0639 -0.0672  0.0209
 5525SOL    HW118507   5.299   2.295   4.664 -1.2719 -0.4966 -0.2127
 5525SOL    HW218508   5.380   2.194   4.586  0.3793  0.2272  0.5164
 5526SOL     OW18509   0.250   3.553   5.063 -0.4173  0.0828  0.4431
 5526SOL    HW118510   0.163   3.537   5.026  0.5632  0.8856 -2.4686
 5526SOL    HW218511   0.264   3.647   5.054  1.3221 -0.2299 -0.6409
 5527SOL     OW18512   8.761   7.678   8.307 -0.3925 -0.0038  0.2370
 5527SOL    HW118513   8.847   7.665   8.267 -0.3054  0.2876  0.3351
 5527SOL    HW218514   8.722   7.750   8.258 -1.2213 -1.1468 -0.8783
 5528SOL     OW18515   0.765   0.471   3.307  0.1475  0.2230 -0.0654
 5528SOL    HW118516   0.767   0.548   3.250  1.1156 -1.1873 -2.0567
 5528SOL    HW218517   0.686   0.424   3.280  0.1546 -0.0359  0.3640
 5529SOL     OW18518   1.461   4.063   7.165 -0.6144  0.5148 -0.4269
 5529SOL    HW118519   1.427   4.049   7.076 -1.7287  1.0592 -0.1064
 5529SOL    HW218520   1.536   4.121   7.153  0.2983 -0.7527 -1.1606
 5530SOL     OW18521   2.130   4.742   1.035 -0.8640  0.0470 -0.7445
 5530SOL    HW118522   2.212   4.751   0.986 -0.6082 -1.5950 -0.6574
 5530SOL    HW218523   2.112   4.648   1.036 -2.3862  0.3076 -0.1481
 5531SOL     OW18524   3.577   8.635   6.993  0.3614  0.2416  0.0943
 5531SOL    HW118525   3.657   8.603   6.950  0.2213  1.3218 -1.0256
 5531SOL    HW218526   3.508   8.579   6.957  0.4871 -0.0835  0.3510
 5532SOL     OW18527   7.806   5.595   5.186 -0.8770 -0.3664 -0.6524
 5532SOL    HW118528   7.878   5.574   5.127 -0.6823  1.4022 -1.1055
 5532SOL    HW218529   7.745   5.521   5.178 -1.3333  0.2217 -3.8587
 5533SOL     OW18530   5.371   1.748   5.989  0.0318  0.1504  0.9226
 5533SOL    HW118531   5.296   1.697   5.960  0.0206 -0.2534  1.6362
 5533SOL    HW218532   5.335   1.834   6.009 -0.0982  0.1944  0.5082
 5534SOL     OW18533   7.509   1.752   5.606  0.1273 -0.3395 -0.5021
 5534SOL    HW118534   7.488   1.811   5.534  1.6287  0.1545 -0.5702
 5534SOL    HW218535   7.462   1.671   5.586  0.0485 -0.0055 -1.7114
 5535SOL     OW18536   6.512   0.864   2.134  0.2557  0.0610  0.0971
 5535SOL    HW118537   6.465   0.812   2.069 -0.8352 -0.5955  1.3520
 5535SOL    HW218538   6.490   0.954   2.114  1.3001  0.0082 -1.4498
 5536SOL     OW18539   5.537   5.842   8.205 -0.4032 -0.0368 -0.8039
 5536SOL    HW118540   5.562   5.932   8.227  2.6515 -0.4950 -1.7920
 5536SOL    HW218541   5.521   5.800   8.289  1.3948  0.6581 -0.0608
 5537SOL     OW18542   8.420   0.933   1.160 -0.4476  0.6186  0.0895
 5537SOL    HW118543   8.422   0.897   1.248 -0.3645  0.4508  0.0203
 5537SOL    HW218544   8.493   0.995   1.156  0.4775 -0.4580 -0.3169
 5538SOL     OW18545   5.443   5.582   4.193 -0.7456  0.0430  0.3969
 5538SOL    HW118546   5.415   5.609   4.106 -0.0503 -0.4541  0.0114
 5538SOL    HW218547   5.500   5.654   4.223  1.8579 -1.2710 -1.0014
 5539SOL     OW18548   7.676   5.897   5.616 -0.0103 -0.8479  0.2873
 5539SOL    HW118549   7.685   5.909   5.710 -0.8558  1.8718  0.1003
 5539SOL    HW218550   7.755   5.849   5.590 -0.4282 -2.9473  2.5004
 5540SOL     OW18551   6.294   5.776   0.859  0.4384 -0.5089  0.2132
 5540SOL    HW118552   6.335   5.733   0.784  1.9077  1.6346 -0.2903
 5540SOL    HW218553   6.204   5.793   0.831  0.8190 -0.2156 -0.8731
 5541SOL     OW18554   6.212   6.724   7.623  0.6641 -0.5547 -0.1889
 5541SOL    HW118555   6.263   6.805   7.623  0.0744 -0.1719 -1.0356
 5541SOL    HW218556   6.121   6.754   7.631  0.1514 -0.9036 -3.4653
 5542SOL     OW18557   7.641   4.481   5.747  0.0039 -0.1654  0.6738
 5542SOL    HW118558   7.568   4.447   5.799  0.5465 -0.2083  1.4189
 5542SOL    HW218559   7.604   4.493   5.659 -0.8687 -0.2799  1.0161
 5543SOL     OW18560   0.678   7.346   8.475 -0.0747  0.2894  0.4069
 5543SOL    HW118561   0.724   7.286   8.534  0.7818  0.4317 -0.0948
 5543SOL    HW218562   0.747   7.405   8.444 -0.7436  0.9633  0.1985
 5544SOL     OW18563   1.966   1.943   2.048 -0.4625 -0.5955  0.0495
 5544SOL    HW118564   1.998   1.864   2.093 -0.4845 -2.2474 -2.5922
 5544SOL    HW218565   1.878   1.956   2.082 -0.5037 -1.8137  0.4673
 5545SOL     OW18566   2.359   7.635   2.447  1.0055  0.1419 -0.4387
 5545SOL    HW118567   2.384   7.726   2.465 -0.5385  0.1807  1.8490
 5545SOL    HW218568   2.430   7.602   2.393  0.9894  3.0714 -2.5473
 5546SOL     OW18569   4.133   2.219   4.631  0.2359 -0.4503  1.2999
 5546SOL    HW118570   4.044   2.216   4.595  0.9520 -1.8165 -0.4740
 5546SOL    HW218571   4.133   2.152   4.699 -0.0913 -0.4327  1.3217
 5547SOL     OW18572   5.112   3.098   0.011  0.7364 -0.6039 -0.0105
 5547SOL    HW118573   5.072   3.149  -0.059 -0.8032 -0.0909  1.1945
 5547SOL    HW218574   5.184   3.152   0.043  0.9084 -0.4653 -0.6279
 5548SOL     OW18575   2.053   7.416   7.004  0.1938  0.2639  0.0164
 5548SOL    HW118576   2.145   7.392   7.000  0.6536  1.8694  0.5418
 5548SOL    HW218577   2.036   7.459   6.921  0.4590  1.7413  0.7004
 5549SOL     OW18578   7.578   2.729   8.163 -0.0903  0.2496  0.4266
 5549SOL    HW118579   7.486   2.706   8.161 -0.0333  0.0241 -0.7782
 5549SOL    HW218580   7.608   2.715   8.073  1.1420  0.2014  0.8196
 5550SOL     OW18581   8.674   7.823   0.450 -0.0340 -0.1789  0.3466
 5550SOL    HW118582   8.647   7.843   0.361  0.4707 -0.6286  0.0867
 5550SOL    HW218583   8.714   7.904   0.482  0.5839 -0.2784 -0.1490
 5551SOL     OW18584   1.607   6.142   1.868 -0.0815 -0.3522 -0.4942
 5551SOL    HW118585   1.607   6.156   1.773  1.4509 -2.6620 -0.9215
 5551SOL    HW218586   1.565   6.057   1.880 -0.7673  0.1630  0.9860
 5552SOL     OW18587   7.637   8.152   6.623 -0.6165 -0.4510  0.4030
 5552SOL    HW118588   7.590   8.188   6.698 -0.3179  0.8945 -0.0291
 5552SOL    HW218589   7.654   8.228   6.567  2.0563 -0.8669  0.5408
 5553SOL     OW18590   7.835   4.430   0.114 -0.2607  0.1228 -0.1542
 5553SOL    HW118591   7.900   4.398   0.051 -0.8133 -0.0019 -0.6690
 5553SOL    HW218592   7.772   4.358   0.121 -0.2399  0.1643  0.4923
 5554SOL     OW18593   4.657   4.747   2.252  0.2958  0.3949 -0.5343
 5554SOL    HW118594   4.696   4.728   2.167 -0.4326 -1.2376 -0.5360
 5554SOL    HW218595   4.729   4.739   2.314  0.5964  0.4933 -0.8670
 5555SOL     OW18596   4.062   3.292   3.945  0.1529 -0.2254  0.2312
 5555SOL    HW118597   3.972   3.292   3.977  0.9470  0.8142  2.6707
 5555SOL    HW218598   4.086   3.199   3.941 -0.7309 -0.4696  0.4726
 5556SOL     OW18599   4.932   5.563   4.258  0.1041  0.6283  0.2973
 5556SOL    HW118600   5.019   5.585   4.226 -0.1300 -0.5304 -1.2390
 5556SOL    HW218601   4.888   5.648   4.268  1.3468  1.2122  0.9714
 5557SOL     OW18602   0.318   0.851   4.433 -0.0123  0.0233  0.1736
 5557SOL    HW118603   0.379   0.779   4.453 -1.6584 -1.8934 -1.2669
 5557SOL    HW218604   0.275   0.870   4.516  0.1896 -0.9169  0.5061
 5558SOL     OW18605   0.343   8.303   2.258  0.3394  0.1147 -0.0691
 5558SOL    HW118606   0.353   8.254   2.177  1.2994  0.8124 -0.3881
 5558SOL    HW218607   0.386   8.387   2.241  0.7046  0.2103  1.2121
 5559SOL     OW18608   4.784   0.256   2.755  0.6985  0.4455 -0.1338
 5559SOL    HW118609   4.729   0.329   2.783  1.9619  1.8527 -1.2060
 5559SOL    HW218610   4.874   0.288   2.762  1.2105 -0.1600 -2.7360
 5560SOL     OW18611   6.062   2.378   3.631 -0.0458  0.3799 -0.1331
 5560SOL    HW118612   6.155   2.360   3.619  0.2406  2.0504 -0.7000
 5560SOL    HW218613   6.059   2.469   3.660 -1.5151  0.4347 -0.3892
 5561SOL     OW18614   8.564   3.264   1.130 -0.4561 -0.4559  0.5402
 5561SOL    HW118615   8.560   3.360   1.132  2.4618 -0.1653 -0.9997
 5561SOL    HW218616   8.477   3.237   1.102 -1.1837  1.8026  0.3958
 5562SOL     OW18617   0.658   2.099   6.291 -0.2044  0.3287  0.4868
 5562SOL    HW118618   0.594   2.097   6.220  0.9642 -0.3472 -0.5891
 5562SOL    HW218619   0.630   2.031   6.352 -1.5302  1.2835  1.0067
 5563SOL     OW18620   5.945   8.377   6.816  0.3476  0.4511  0.6100
 5563SOL    HW118621   5.912   8.384   6.726 -1.3593  3.0719  1.3083
 5563SOL    HW218622   5.866   8.366   6.869  0.9915  2.0359  1.9832
 5564SOL     OW18623   8.426   8.447   4.486  0.5457 -0.2454 -0.2300
 5564SOL    HW118624   8.393   8.448   4.396  1.3211  1.0158 -0.5303
 5564SOL    HW218625   8.509   8.494   4.481  1.6767 -2.0360  0.7776
 5565SOL     OW18626   1.881   7.792   7.843  0.9619  0.2328  0.0120
 5565SOL    HW118627   1.820   7.781   7.769 -0.2393  0.1396  0.9777
 5565SOL    HW218628   1.897   7.886   7.846  1.4323  0.1825 -0.6763
 5566SOL     OW18629   0.088   4.500   0.065  0.1738  0.7463 -0.5060
 5566SOL    HW118630   0.156   4.492   0.133 -0.2023  0.2654 -0.1778
 5566SOL    HW218631   0.009   4.524   0.112  0.0546  1.0616 -0.8615
 5567SOL     OW18632   3.585   8.090   4.748  0.2481 -0.1482 -0.0620
 5567SOL    HW118633   3.633   8.142   4.683  0.4606  0.5063  0.6008
 5567SOL    HW218634   3.653   8.060   4.809 -0.0771  0.1347  0.4467
 5568SOL     OW18635   1.311   8.574   4.638  0.1215 -0.2925  0.6192
 5568SOL    HW118636   1.273   8.661   4.645  1.7733  0.4752  0.4675
 5568SOL    HW218637   1.360   8.563   4.720 -0.1550 -1.1184  0.6795
 5569SOL     OW18638   6.161   4.079   5.366  0.1645  0.3844  0.0923
 5569SOL    HW118639   6.248   4.047   5.389  0.2818  0.9365  0.4383
 5569SOL    HW218640   6.106   4.001   5.362  0.8070 -0.0290 -0.7311
 5570SOL     OW18641   2.221   3.926   2.677 -0.5299  0.2867  0.0414
 5570SOL    HW118642   2.151   3.863   2.694  0.0933 -0.6196 -0.6664
 5570SOL    HW218643   2.250   3.953   2.765  0.1936 -1.5459  0.3961
 5571SOL     OW18644   2.173   2.210   6.396 -1.0502  0.0746 -0.2339
 5571SOL    HW118645   2.192   2.130   6.443 -1.3031  0.2011  0.0825
 5571SOL    HW218646   2.237   2.273   6.428  0.1461 -0.4048 -1.5844
 5572SOL     OW18647   2.586   2.068   0.250 -0.0607  0.1031  0.2475
 5572SOL    HW118648   2.552   1.996   0.302  2.5828 -0.5936  1.1721
 5572SOL    HW218649   2.677   2.077   0.277  0.0802  2.9732 -0.7782
 5573SOL     OW18650   1.279   5.434   0.261  0.0459 -0.2254  0.6602
 5573SOL    HW118651   1.316   5.362   0.311  0.8145  0.3049  0.8866
 5573SOL    HW218652   1.226   5.483   0.324 -1.2461 -1.0970  0.2896
 5574SOL     OW18653   1.589   5.534   4.503  0.1276  0.1674  0.3100
 5574SOL    HW118654   1.543   5.607   4.544 -0.3490 -0.4536  0.9182
 5574SOL    HW218655   1.672   5.528   4.551 -0.6613 -0.9047  1.6101
 5575SOL     OW18656   4.618   3.063   2.662 -0.4698  0.2412 -0.1283
 5575SOL    HW118657   4.681   3.037   2.730 -0.7395  0.4441  0.2056
 5575SOL    HW218658   4.630   3.158   2.654  0.0168  0.1213 -0.8352
 5576SOL     OW18659   6.025   6.052   1.139  0.0769  0.1743 -0.0154
 5576SOL    HW118660   5.932   6.069   1.153  0.3190  0.8242  0.8883
 5576SOL    HW218661   6.040   6.078   1.049 -0.6302 -0.0140 -0.1996
 5577SOL     OW18662   5.158   7.763   0.155 -0.0318  0.4253 -0.0470
 5577SOL    HW118663   5.237   7.797   0.113 -0.5929  1.0228 -0.6253
 5577SOL    HW218664   5.099   7.744   0.083 -0.5290  0.2536  0.4024
 5578SOL     OW18665   0.344   1.686   5.356  0.1974 -0.3004  0.1525
 5578SOL    HW118666   0.438   1.700   5.343  0.0306 -0.2446 -1.1071
 5578SOL    HW218667   0.315   1.643   5.275 -0.7878 -0.6835  0.6948
 5579SOL     OW18668   0.393   3.686   6.297 -0.7387 -0.0484 -0.7327
 5579SOL    HW118669   0.454   3.678   6.369 -0.7907  0.0715 -0.6756
 5579SOL    HW218670   0.446   3.672   6.218 -1.0471 -2.3666 -0.6094
 5580SOL     OW18671   3.642   2.637   1.284  0.0505 -0.0819 -0.1784
 5580SOL    HW118672   3.723   2.683   1.307 -0.4302  0.7782 -0.1467
 5580SOL    HW218673   3.665   2.584   1.207  0.6338  0.1898 -0.1941
 5581SOL     OW18674   1.587   2.945   2.768  0.4099 -0.4622  0.3009
 5581SOL    HW118675   1.617   2.997   2.842 -0.0322  0.2062  0.0129
 5581SOL    HW218676   1.503   2.984   2.743 -0.2297 -1.6785  0.4659
 5582SOL     OW18677   8.160   0.560   8.209 -0.2013  0.3264  0.1224
 5582SOL    HW118678   8.077   0.561   8.257  0.0178  1.2832  0.4857
 5582SOL    HW218679   8.218   0.617   8.259  1.3689 -1.9327  1.0453
 5583SOL     OW18680   5.368   3.500   5.345 -0.5190  0.3705  0.3913
 5583SOL    HW118681   5.398   3.503   5.254  0.0562 -1.6719  0.4789
 5583SOL    HW218682   5.448   3.504   5.397 -0.8107  0.9065  0.8139
 5584SOL     OW18683   2.141   7.734   8.291  0.0688  0.5751  0.5154
 5584SOL    HW118684   2.108   7.818   8.258  0.2129  0.4338  0.0057
 5584SOL    HW218685   2.228   7.754   8.323  0.7637  0.3174 -1.0941
 5585SOL     OW18686   5.357   6.927   4.346  0.3943  0.0605  0.1290
 5585SOL    HW118687   5.297   6.914   4.420 -1.2092  0.8763 -0.9715
 5585SOL    HW218688   5.380   7.020   4.351 -0.8012  0.4533 -1.1319
 5586SOL     OW18689   8.015   7.441   3.067 -0.1879  0.1760  0.1841
 5586SOL    HW118690   8.049   7.352   3.061 -1.6512 -0.6436  2.4757
 5586SOL    HW218691   7.934   7.440   3.015 -0.6253 -0.0970  0.8552
 5587SOL     OW18692   3.587   3.030   0.316  0.1569  0.0202  0.0122
 5587SOL    HW118693   3.574   3.086   0.393  0.4739 -2.1160  1.7037
 5587SOL    HW218694   3.673   2.991   0.329  0.0697 -0.6570 -1.2884
 5588SOL     OW18695   6.630   7.599   8.138  0.2922 -0.1603 -0.1095
 5588SOL    HW118696   6.668   7.686   8.136 -0.0379  0.0072  0.6339
 5588SOL    HW218697   6.544   7.608   8.096  0.6919 -0.3524 -0.9831
 5589SOL     OW18698   0.733   3.143   6.367 -0.5554  0.0717 -0.0950
 5589SOL    HW118699   0.776   3.073   6.318 -0.2931 -0.6096  1.0454
 5589SOL    HW218700   0.639   3.123   6.360 -0.4573 -0.7655  0.7054
 5590SOL     OW18701   0.038   3.176   3.023  0.4953  0.4364  0.0734
 5590SOL    HW118702   0.015   3.091   2.984  0.5128  1.0212 -1.2535
 5590SOL    HW218703   0.134   3.175   3.026  0.4749 -0.2716  1.6801
 5591SOL     OW18704   5.009   6.212   5.529  0.5401 -0.5121 -0.5796
 5591SOL    HW118705   5.014   6.232   5.436 -0.1781 -0.6658 -0.6569
 5591SOL    HW218706   4.953   6.280   5.565 -0.4863 -1.3545 -0.5421
 5592SOL     OW18707   8.237   7.616   3.108 -0.0191  0.0059 -0.3515
 5592SOL    HW118708   8.154   7.567   3.107 -0.0570 -0.0378  1.2150
 5592SOL    HW218709   8.226   7.679   3.180  1.3489 -0.0984 -0.0290
 5593SOL     OW18710   5.704   7.717   0.784 -0.4004 -0.2664  0.4917
 5593SOL    HW118711   5.695   7.626   0.755 -1.9634 -0.3033  1.0179
 5593SOL    HW218712   5.614   7.747   0.798  0.1015  1.3488  0.3908
 5594SOL     OW18713   8.704   2.107   0.491  0.1354 -0.5666 -1.0820
 5594SOL    HW118714   8.791   2.147   0.493 -0.4161  0.6822 -1.0876
 5594SOL    HW218715   8.702   2.051   0.569  0.2041  1.0812  0.1671
 5595SOL     OW18716   2.508   2.202   5.994 -0.5368  0.2048 -0.4580
 5595SOL    HW118717   2.508   2.138   5.923 -0.2986 -1.1358  0.6785
 5595SOL    HW218718   2.461   2.277   5.960 -0.2391 -0.3102 -2.0876
 5596SOL     OW18719   6.912   4.282   5.070 -0.2752 -0.1233  0.4794
 5596SOL    HW118720   6.865   4.352   5.116 -1.8508 -1.3986  0.8988
 5596SOL    HW218721   6.928   4.318   4.982 -0.7251  0.8908  0.7961
 5597SOL     OW18722   3.625   4.295   8.284  0.8239 -0.1744 -0.5087
 5597SOL    HW118723   3.616   4.276   8.190 -0.6993 -1.5591 -0.1372
 5597SOL    HW218724   3.596   4.386   8.292 -0.8840 -0.6085 -1.1734
 5598SOL     OW18725   7.279   7.475   1.501 -0.2484 -0.3190 -0.4687
 5598SOL    HW118726   7.289   7.526   1.581 -0.4285 -0.0497 -0.6158
 5598SOL    HW218727   7.360   7.425   1.493 -0.3819 -0.6301  0.0781
 5599SOL     OW18728   7.171   4.506   0.237  0.4211  0.0069  0.8263
 5599SOL    HW118729   7.220   4.458   0.170  0.5217  1.1141  0.0738
 5599SOL    HW218730   7.161   4.594   0.200  0.4107  0.6235  2.2479
 5600SOL     OW18731   2.811   5.074   5.559 -0.2660 -0.3287  0.0287
 5600SOL    HW118732   2.823   5.009   5.629 -0.8101 -1.1429 -0.6225
 5600SOL    HW218733   2.894   5.073   5.511  0.3758  0.7384  1.0453
 5601SOL     OW18734   5.871   8.481   4.844  0.2830 -0.6388  0.2420
 5601SOL    HW118735   5.949   8.429   4.826  0.0969 -0.6263 -0.6414
 5601SOL    HW218736   5.811   8.420   4.887  0.6618 -0.7336  0.6353
 5602SOL     OW18737   3.781   4.297   3.889 -0.2915  0.0353 -0.4900
 5602SOL    HW118738   3.830   4.379   3.892 -0.4768  0.1207  0.6018
 5602SOL    HW218739   3.823   4.242   3.955 -0.2199 -0.7258 -1.1507
 5603SOL     OW18740   4.233   4.732   1.124 -0.1519  0.0188 -0.4281
 5603SOL    HW118741   4.144   4.756   1.099 -0.2807 -0.4342 -0.4132
 5603SOL    HW218742   4.276   4.710   1.041 -0.8614 -2.4306 -0.2271
 5604SOL     OW18743   4.948   4.380   6.498 -0.9353 -0.4583  0.6221
 5604SOL    HW118744   5.037   4.374   6.534 -0.6325 -1.6391 -0.2699
 5604SOL    HW218745   4.900   4.309   6.539 -0.6738 -1.6155 -0.9896
 5605SOL     OW18746   5.490   0.284   8.269  0.2365 -0.1377 -0.4033
 5605SOL    HW118747   5.575   0.317   8.242 -0.3432  1.4621 -0.3604
 5605SOL    HW218748   5.436   0.286   8.190 -0.5738  1.6469  0.1378
 5606SOL     OW18749   8.574   2.270   5.022  0.6543 -0.3483  0.2289
 5606SOL    HW118750   8.537   2.184   5.040 -0.0834 -0.1556 -0.3113
 5606SOL    HW218751   8.513   2.331   5.063  1.4091 -0.0900  0.9967
 5607SOL     OW18752   0.920   4.746   7.214  0.0984 -0.0101  0.2606
 5607SOL    HW118753   0.913   4.829   7.261 -0.1892 -0.7751  1.6243
 5607SOL    HW218754   0.951   4.684   7.280  1.4929 -0.7477 -1.0294
 5608SOL     OW18755   6.780   4.811   6.446 -0.2460  0.3706  0.1191
 5608SOL    HW118756   6.804   4.845   6.532  0.2744 -0.5555  0.3539
 5608SOL    HW218757   6.841   4.853   6.385  0.3358 -0.0751  0.3921
 5609SOL     OW18758   3.677   3.271   4.259  0.1240 -0.4026 -0.3663
 5609SOL    HW118759   3.632   3.194   4.295  1.0213  0.3528  2.6437
 5609SOL    HW218760   3.612   3.340   4.263 -0.0981 -0.5487 -1.2734
 5610SOL     OW18761   5.049   2.008   4.682 -0.0407 -0.4654  0.5833
 5610SOL    HW118762   5.058   2.091   4.729 -1.1281 -0.9455  1.6809
 5610SOL    HW218763   4.985   2.026   4.613  1.7009  0.2921 -0.9155
 5611SOL     OW18764   8.361   1.597   0.817  0.1301  0.5598 -0.7343
 5611SOL    HW118765   8.268   1.586   0.838  0.5341 -0.5697  0.6591
 5611SOL    HW218766   8.365   1.680   0.769 -1.3481  1.6710  0.9193
 5612SOL     OW18767   3.454   6.261   6.854 -0.1656 -0.2688  0.1232
 5612SOL    HW118768   3.478   6.258   6.947  1.4006 -1.3759 -0.2805
 5612SOL    HW218769   3.532   6.293   6.810  0.0011 -2.1756 -1.0675
 5613SOL     OW18770   5.359   0.966   6.241  0.4643 -0.3620  0.3173
 5613SOL    HW118771   5.264   0.974   6.234  0.5253 -0.4305 -0.8020
 5613SOL    HW218772   5.375   0.873   6.254  0.3965 -0.4391 -0.1177
 5614SOL     OW18773   1.222   1.686   6.655 -0.3873 -0.0321 -0.3891
 5614SOL    HW118774   1.269   1.642   6.584  0.9500 -1.5212  1.3327
 5614SOL    HW218775   1.274   1.764   6.674  1.1296 -1.3373  1.0742
 5615SOL     OW18776   7.535   5.984   7.050  0.0706  0.0521 -0.3984
 5615SOL    HW118777   7.488   5.916   7.002 -0.2318  0.3519 -0.5363
 5615SOL    HW218778   7.466   6.039   7.087  0.2639  1.5737 -2.1260
 5616SOL     OW18779   5.735   7.712   2.042  0.1508  0.0409  0.5405
 5616SOL    HW118780   5.767   7.650   1.976 -0.5820  0.7403 -0.4993
 5616SOL    HW218781   5.773   7.796   2.016  0.9032  0.1153  1.7725
 5617SOL     OW18782   1.200   7.408   0.395  0.1652 -0.2673 -0.3126
 5617SOL    HW118783   1.161   7.464   0.463 -0.2231 -0.3929 -0.4269
 5617SOL    HW218784   1.294   7.410   0.413  0.0286 -0.6239  0.4712
 5618SOL     OW18785   4.552   7.965   4.526 -0.0840  0.2627 -0.6462
 5618SOL    HW118786   4.527   8.057   4.522 -2.0852 -0.1820  0.4015
 5618SOL    HW218787   4.608   7.958   4.603 -0.2346  0.5210 -0.5129
 5619SOL     OW18788   4.544   8.480   6.725  0.1629  0.5112 -0.2350
 5619SOL    HW118789   4.636   8.480   6.751 -0.0607 -0.8699  0.6611
 5619SOL    HW218790   4.537   8.408   6.662 -0.4614 -0.0030  0.3949
 5620SOL     OW18791   3.749   4.037   0.645  0.2805  0.4040  0.1268
 5620SOL    HW118792   3.805   4.111   0.623  1.8422 -1.3014 -2.1069
 5620SOL    HW218793   3.781   4.006   0.730  0.5980  1.3441  0.3572
 5621SOL     OW18794   4.501   0.387   2.066 -0.2255  0.0066  0.3715
 5621SOL    HW118795   4.537   0.350   1.985  0.9733 -0.2936  1.0297
 5621SOL    HW218796   4.453   0.465   2.037 -0.7308 -0.6941 -0.7436
 5622SOL     OW18797   2.257   6.336   8.813 -0.2086 -0.3722 -0.1106
 5622SOL    HW118798   2.166   6.323   8.786 -0.0666  1.6671 -1.8284
 5622SOL    HW218799   2.304   6.261   8.777 -1.0456 -1.0068  0.0788
 5623SOL     OW18800   4.021   2.362   7.584 -0.0754 -0.2987  0.1121
 5623SOL    HW118801   4.037   2.268   7.580 -0.4301 -0.3776  0.4236
 5623SOL    HW218802   4.022   2.383   7.677 -2.1616 -0.3992  0.2005
 5624SOL     OW18803   3.701   6.721   8.545  0.2185  0.2377  0.6697
 5624SOL    HW118804   3.660   6.762   8.468  3.0281  0.1266 -1.0223
 5624SOL    HW218805   3.708   6.629   8.522  1.7976  0.3357  0.6865
 5625SOL     OW18806   6.080   1.940   7.425 -0.3070  0.5630  0.1874
 5625SOL    HW118807   6.143   1.911   7.491  0.4104  2.1620  0.2575
 5625SOL    HW218808   6.124   2.013   7.381 -1.6664  0.9633 -0.5491
 5626SOL     OW18809   5.940   6.281   3.137 -0.3697 -0.4298 -0.2010
 5626SOL    HW118810   5.877   6.332   3.188 -0.3598 -0.6353  0.0211
 5626SOL    HW218811   5.951   6.200   3.187  0.4413 -0.1885  0.0244
 5627SOL     OW18812   6.764   3.651   0.449 -0.1828  0.4869  0.1161
 5627SOL    HW118813   6.750   3.737   0.409 -1.8451 -0.2501 -1.0002
 5627SOL    HW218814   6.817   3.604   0.384 -0.4275  0.2312  0.1019
 5628SOL     OW18815   1.684   2.429   3.914 -0.3373  0.1538 -0.1371
 5628SOL    HW118816   1.759   2.456   3.968  0.0311 -0.6657 -0.2251
 5628SOL    HW218817   1.671   2.337   3.935  0.5173 -0.5082 -2.2127
 5629SOL     OW18818   8.708   1.012   4.975  0.1844 -0.0724  0.0135
 5629SOL    HW118819   8.719   1.016   5.070 -0.1191  0.4992  0.0291
 5629SOL    HW218820   8.635   1.071   4.957  0.3658 -0.0286 -0.5961
 5630SOL     OW18821   0.833   4.518   5.184 -0.4301  0.0037 -0.3937
 5630SOL    HW118822   0.781   4.584   5.139  0.4801  1.2737  0.3727
 5630SOL    HW218823   0.769   4.464   5.230 -1.0893  1.4300  0.3934
 5631SOL     OW18824   1.190   0.482   5.204  0.1387 -0.3235  0.2723
 5631SOL    HW118825   1.118   0.482   5.141  1.0186  0.0996 -0.7571
 5631SOL    HW218826   1.175   0.405   5.258  0.0269 -1.3787 -1.2193
 5632SOL     OW18827   0.837   1.298   1.102 -0.0433  0.0701 -0.2890
 5632SOL    HW118828   0.751   1.299   1.061  0.4221 -1.3327 -1.3942
 5632SOL    HW218829   0.896   1.332   1.036  0.4824 -0.5984 -0.1786
 5633SOL     OW18830   8.197   1.136   5.094 -0.2349  0.3802  0.1047
 5633SOL    HW118831   8.194   1.051   5.136 -0.0002 -0.9640 -2.4109
 5633SOL    HW218832   8.282   1.173   5.120  0.1152 -0.6105  0.4181
 5634SOL     OW18833   7.959   7.019   4.346  0.3755 -0.4659 -0.6062
 5634SOL    HW118834   7.990   7.003   4.434  0.3159  1.9222 -0.0816
 5634SOL    HW218835   7.882   6.962   4.337 -0.0446 -0.2418  1.1537
 5635SOL     OW18836   0.442   5.828   8.671  1.0374  0.2904 -0.2333
 5635SOL    HW118837   0.459   5.875   8.589  2.4668 -1.5069 -1.0289
 5635SOL    HW218838   0.502   5.869   8.734  1.1975  0.5258 -0.5343
 5636SOL     OW18839   5.531   7.117   1.911 -0.1781 -0.1640  0.7567
 5636SOL    HW118840   5.597   7.124   1.841  0.8933 -0.2582  1.7257
 5636SOL    HW218841   5.479   7.197   1.903 -0.1698 -0.2465 -0.2411
 5637SOL     OW18842   4.845   1.985   3.914 -0.0728 -0.0601  0.5093
 5637SOL    HW118843   4.799   2.033   3.983 -0.1392  1.8474 -0.8022
 5637SOL    HW218844   4.776   1.954   3.856  0.1042 -0.0820  0.3105
 5638SOL     OW18845   4.406   0.649   4.047  0.2190 -0.1511  0.1439
 5638SOL    HW118846   4.387   0.557   4.032  1.5855 -0.0463 -3.0621
 5638SOL    HW218847   4.501   0.656   4.038  0.0096  1.7463 -1.1413
 5639SOL     OW18848   3.947   8.763   7.591 -0.1778  0.4444  0.2792
 5639SOL    HW118849   4.034   8.804   7.587  0.5330 -0.9771  0.4711
 5639SOL    HW218850   3.920   8.773   7.682  1.3042 -2.0166  1.0704
 5640SOL     OW18851   6.733   8.404   6.637  0.4183  0.1761 -0.0896
 5640SOL    HW118852   6.743   8.323   6.686 -1.5036 -0.3007 -0.3969
 5640SOL    HW218853   6.700   8.467   6.701 -2.1546 -0.4637 -0.6332
 5641SOL     OW18854   2.785   1.315   8.847  0.1185 -0.0013 -0.3359
 5641SOL    HW118855   2.741   1.320   8.762 -2.4143 -1.4730  0.7811
 5641SOL    HW218856   2.822   1.227   8.850  0.3286  0.0969  0.0387
 5642SOL     OW18857   1.701   2.272   7.646 -0.5331 -0.2078 -0.7313
 5642SOL    HW118858   1.639   2.217   7.599 -0.6554 -1.1029  0.4336
 5642SOL    HW218859   1.696   2.357   7.601 -1.1312 -0.8276 -1.8799
 5643SOL     OW18860   3.541   8.024   7.619  0.5170  0.2306 -0.6734
 5643SOL    HW118861   3.574   8.113   7.636  0.6582 -0.0256  0.4845
 5643SOL    HW218862   3.585   7.970   7.685 -0.9441 -0.3957 -0.1772
 5644SOL     OW18863   5.749   8.053   7.340  0.1394 -0.2411 -0.7779
 5644SOL    HW118864   5.688   8.052   7.267  1.3620  1.0208 -1.8778
 5644SOL    HW218865   5.714   8.121   7.399  0.5660  0.6103 -1.4939
 5645SOL     OW18866   6.064   6.706   6.935  0.6272 -0.1103  0.1636
 5645SOL    HW118867   6.056   6.662   7.019 -0.7423  0.9204  0.6037
 5645SOL    HW218868   5.976   6.701   6.897  0.9133  0.5813 -0.6161
 5646SOL     OW18869   0.431   8.572   6.300  0.9619 -0.1518 -0.2206
 5646SOL    HW118870   0.411   8.528   6.218  1.1044 -1.4428  0.4128
 5646SOL    HW218871   0.346   8.592   6.339  0.8394  2.0009 -1.4168
 5647SOL     OW18872   3.291   0.215   3.124 -0.5714 -0.8213 -0.6182
 5647SOL    HW118873   3.367   0.159   3.137 -0.7058 -1.1150 -1.0465
 5647SOL    HW218874   3.272   0.207   3.030 -0.3290  0.2845 -0.7694
 5648SOL     OW18875   2.600   4.371   6.125 -0.2304  0.0528 -0.0849
 5648SOL    HW118876   2.583   4.299   6.186  0.7839  1.2388  1.7072
 5648SOL    HW218877   2.687   4.353   6.091 -2.0578 -2.5522 -4.2225
 5649SOL     OW18878   5.454   4.169   3.884 -0.3301  0.3696 -0.4388
 5649SOL    HW118879   5.486   4.217   3.807  1.4841 -0.7108 -0.4049
 5649SOL    HW218880   5.381   4.117   3.850  1.3287 -1.2054 -1.8625
 5650SOL     OW18881   5.912   4.407   1.075 -0.0218  0.6532  0.3497
 5650SOL    HW118882   5.998   4.407   1.032 -0.0440  0.8422  0.3050
 5650SOL    HW218883   5.906   4.493   1.116 -1.0378  1.4276 -1.3288
 5651SOL     OW18884   1.893   7.477   2.417  0.3859  0.4649 -0.3142
 5651SOL    HW118885   1.965   7.470   2.354  0.3575 -0.3692 -0.2750
 5651SOL    HW218886   1.936   7.471   2.503  0.2719 -0.1057 -0.2920
 5652SOL     OW18887   3.547   6.445   3.560  0.1771  0.9180  0.2012
 5652SOL    HW118888   3.520   6.399   3.481 -1.7604  1.7210  0.3264
 5652SOL    HW218889   3.539   6.380   3.630  1.4950  0.3253 -0.1626
 5653SOL     OW18890   3.785   7.327   4.644  0.4726  0.1578  0.5855
 5653SOL    HW118891   3.834   7.389   4.698  0.7434  0.5693 -0.1195
 5653SOL    HW218892   3.715   7.379   4.604  0.3726 -0.1014  0.4175
 5654SOL     OW18893   3.331   5.905   6.980  0.1669 -0.6574  0.2758
 5654SOL    HW118894   3.425   5.919   6.983  0.2958 -0.9859 -1.3775
 5654SOL    HW218895   3.293   5.991   7.000  0.8457 -0.1246 -0.6454
 5655SOL     OW18896   5.561   6.242   6.207 -0.1124  0.1288 -0.3209
 5655SOL    HW118897   5.577   6.330   6.242  3.9971 -0.0909 -1.1133
 5655SOL    HW218898   5.539   6.189   6.283 -0.7815  1.4767  0.4537
 5656SOL     OW18899   3.014   8.214   7.603 -0.4687 -0.3216  0.6904
 5656SOL    HW118900   3.100   8.252   7.586 -0.8188  0.1068 -0.1938
 5656SOL    HW218901   3.031   8.120   7.608  0.0041 -0.2756  0.1301
 5657SOL     OW18902   6.466   0.385   6.333  0.3775  0.0658 -0.0849
 5657SOL    HW118903   6.443   0.300   6.370  0.9488  0.2303  0.6921
 5657SOL    HW218904   6.561   0.393   6.347  0.5543  0.2838 -1.3168
 5658SOL     OW18905   0.851   3.428   5.054 -0.1828 -0.5106  0.2589
 5658SOL    HW118906   0.820   3.338   5.042  0.5982 -0.7534  0.0011
 5658SOL    HW218907   0.881   3.454   4.967  0.8646 -0.4858  0.6199
 5659SOL     OW18908   0.410   7.863   4.993  0.0830 -0.2222  0.1934
 5659SOL    HW118909   0.325   7.845   5.034 -0.5420  0.6676 -0.6436
 5659SOL    HW218910   0.451   7.928   5.050  0.4849 -1.1134  0.9338
 5660SOL     OW18911   8.567   4.234   8.256 -0.1000  0.3455  0.5915
 5660SOL    HW118912   8.520   4.209   8.336 -1.2145 -0.5571 -0.2967
 5660SOL    HW218913   8.511   4.201   8.185  1.1925  0.5169 -0.5425
 5661SOL     OW18914   1.310   2.276   0.359 -0.0479 -0.0965 -0.0989
 5661SOL    HW118915   1.258   2.230   0.293  1.0846  0.4125 -1.4069
 5661SOL    HW218916   1.367   2.208   0.396  2.7053  0.3196 -3.0935
 5662SOL     OW18917   8.778   6.774   7.106  0.4220  0.0718 -0.3694
 5662SOL    HW118918   8.843   6.831   7.147 -0.3208 -0.5115  1.7340
 5662SOL    HW218919   8.803   6.686   7.132 -1.8879 -0.0853  1.6670
 5663SOL     OW18920   3.585   4.327   5.296 -0.1976 -0.1106  0.0036
 5663SOL    HW118921   3.630   4.402   5.335 -0.1720  0.5126 -1.1583
 5663SOL    HW218922   3.509   4.365   5.252 -0.7027 -0.8939  0.1758
 5664SOL     OW18923   4.595   1.566   2.397  0.0311  0.0736 -0.0047
 5664SOL    HW118924   4.531   1.496   2.390  0.1190 -0.0590  0.4995
 5664SOL    HW218925   4.652   1.553   2.321 -0.5222  0.1843 -0.4486
 5665SOL     OW18926   7.665   0.755   6.086  0.2394  0.0301  0.0770
 5665SOL    HW118927   7.709   0.726   6.006 -0.7541  0.9319 -0.8390
 5665SOL    HW218928   7.676   0.850   6.086  1.0081 -0.0417  1.5174
 5666SOL     OW18929   0.711   0.470   6.728  0.5916 -0.5514 -0.0047
 5666SOL    HW118930   0.645   0.401   6.723 -0.7712  0.4470  2.2488
 5666SOL    HW218931   0.675   0.542   6.677 -0.4046  0.1608  1.5972
 5667SOL     OW18932   0.433   7.802   4.688 -0.3078 -0.3756 -0.0804
 5667SOL    HW118933   0.386   7.867   4.636  2.3881  1.4002 -0.4746
 5667SOL    HW218934   0.434   7.838   4.776  2.2764  0.8879 -0.5406
 5668SOL     OW18935   7.773   7.654   8.745  0.4280  0.2050 -0.0443
 5668SOL    HW118936   7.867   7.670   8.746  0.2792  1.1903 -0.2213
 5668SOL    HW218937   7.749   7.664   8.653  0.0257  0.8537  0.1202
 5669SOL     OW18938   7.403   3.895   6.076 -0.0752  0.0785 -0.5357
 5669SOL    HW118939   7.458   3.920   6.002 -1.1973  1.1243 -1.0424
 5669SOL    HW218940   7.365   3.811   6.051  1.8809 -1.1127  0.1819
 5670SOL     OW18941   1.983   0.629   1.443 -0.3066  0.0376  0.3805
 5670SOL    HW118942   1.961   0.714   1.482  1.2262  2.0716 -2.7570
 5670SOL    HW218943   1.905   0.605   1.393  0.3590  1.3893 -1.4122
 5671SOL     OW18944   4.279   3.866   0.180 -1.2360 -0.1874  0.1026
 5671SOL    HW118945   4.359   3.815   0.195 -0.4330  0.2346 -2.2062
 5671SOL    HW218946   4.308   3.957   0.188 -2.3597  0.0154  2.8463
 5672SOL     OW18947   2.162   5.283   0.110  0.2111  0.4700  0.8341
 5672SOL    HW118948   2.248   5.255   0.141 -0.7099 -2.4628  1.0253
 5672SOL    HW218949   2.132   5.212   0.053 -1.5567  2.0187 -0.3085
 5673SOL     OW18950   1.488   8.576   4.108 -0.2340  0.5285 -0.2454
 5673SOL    HW118951   1.552   8.506   4.118 -0.4063  0.4562  0.4057
 5673SOL    HW218952   1.468   8.604   4.198 -1.6721  0.0395 -0.3868
 5674SOL     OW18953   1.197   0.684   8.174 -0.2647  0.2430  0.3727
 5674SOL    HW118954   1.139   0.707   8.101 -0.6445  1.2119  0.9716
 5674SOL    HW218955   1.156   0.606   8.212 -0.5043  0.2057  0.0494
 5675SOL     OW18956   1.562   4.882   6.420  0.2732  0.5221  0.2608
 5675SOL    HW118957   1.544   4.818   6.489  1.2369  1.2191  1.1892
 5675SOL    HW218958   1.521   4.963   6.451 -0.9210  0.4030 -0.8955
 5676SOL     OW18959   5.357   2.917   4.365  0.2033  0.0422  0.5767
 5676SOL    HW118960   5.313   2.835   4.389 -1.7773  0.3890 -1.5590
 5676SOL    HW218961   5.435   2.889   4.318  0.7532 -0.5809  1.7995
 5677SOL     OW18962   4.472   2.150   4.258  0.1887 -0.7281  0.3916
 5677SOL    HW118963   4.379   2.170   4.264 -0.3424 -2.8097  0.0960
 5677SOL    HW218964   4.492   2.106   4.341  0.7610 -0.8451  0.1956
 5678SOL     OW18965   2.892   4.297   4.688 -0.2170  0.6761  0.4614
 5678SOL    HW118966   2.960   4.265   4.748  1.5920  1.3486 -1.1133
 5678SOL    HW218967   2.814   4.305   4.743  0.9806 -0.0179  2.4022
 5679SOL     OW18968   8.796   3.456   4.420  0.1568 -0.4959 -0.2452
 5679SOL    HW118969   8.747   3.489   4.344  1.2919  1.6930 -0.1203
 5679SOL    HW218970   8.852   3.388   4.383 -0.4797 -0.5997 -1.0629
 5680SOL     OW18971   6.441   5.731   5.710 -0.2278 -0.0929  0.0337
 5680SOL    HW118972   6.533   5.708   5.693 -0.0251  0.5781  0.2053
 5680SOL    HW218973   6.403   5.652   5.747  0.5946 -0.0041  1.1136
 5681SOL     OW18974   8.728   3.944   5.520  0.5692 -0.3010  0.2115
 5681SOL    HW118975   8.736   3.974   5.610 -0.6427 -0.2808  0.3314
 5681SOL    HW218976   8.817   3.948   5.485  1.0638 -0.4079  1.4249
 5682SOL     OW18977   2.258   1.575   6.277  0.6023 -1.1693 -0.1713
 5682SOL    HW118978   2.350   1.567   6.302  1.0342  1.1550 -0.8433
 5682SOL    HW218979   2.219   1.628   6.346  0.3201 -0.1737 -1.0794
 5683SOL     OW18980   2.782   1.748   0.353  0.9088  0.9897 -0.6254
 5683SOL    HW118981   2.697   1.713   0.382  0.3356  1.1800 -1.9636
 5683SOL    HW218982   2.790   1.832   0.398  1.1110  0.3134  0.6619
 5684SOL     OW18983   2.972   4.833   5.532  0.3785 -0.3037 -0.7547
 5684SOL    HW118984   2.930   4.777   5.596  1.1733  1.1222  1.1067
 5684SOL    HW218985   2.932   4.809   5.448 -2.5307 -0.4968  0.5850
 5685SOL     OW18986   5.390   2.903   3.996 -0.0704  0.2536 -0.0663
 5685SOL    HW118987   5.409   2.990   4.032 -0.0847  0.2178  0.0305
 5685SOL    HW218988   5.456   2.846   4.035  0.3939  0.3478 -0.6993
 5686SOL     OW18989   3.093   5.138   5.499 -0.0610 -0.1557 -0.2880
 5686SOL    HW118990   3.148   5.080   5.552  0.4351  0.7875  0.2641
 5686SOL    HW218991   3.114   5.116   5.409  2.1451  0.9495 -0.1229
 5687SOL     OW18992   1.449   2.625   7.904 -0.3693 -0.3291  0.0288
 5687SOL    HW118993   1.369   2.603   7.855 -1.3141  2.6993  0.0123
 5687SOL    HW218994   1.418   2.650   7.991  0.7566 -0.6384  0.5344
 5688SOL     OW18995   5.177   8.346   6.527 -0.2369  0.1720  0.0490
 5688SOL    HW118996   5.158   8.253   6.520 -3.8513  0.5461  2.0949
 5688SOL    HW218997   5.246   8.352   6.593 -1.4569 -1.0326  1.4925
 5689SOL     OW18998   2.023   1.164   0.569  0.8442  0.4092 -0.2259
 5689SOL    HW118999   2.000   1.173   0.661  0.0511 -0.0555 -0.3714
 5689SOL    HW219000   1.939   1.153   0.524  1.3235 -3.9489 -0.4865
 5690SOL     OW19001   4.912   4.510   5.581 -0.3791  0.2895 -0.4940
 5690SOL    HW119002   4.881   4.500   5.491  1.3129  0.7619 -1.1595
 5690SOL    HW219003   4.901   4.604   5.600  0.3395  0.4071 -0.6346
 5691SOL     OW19004   6.918   2.573   1.002  0.2741 -0.4187  0.6075
 5691SOL    HW119005   6.949   2.483   1.005  0.4497 -0.4277 -0.7584
 5691SOL    HW219006   6.823   2.566   1.008  0.2926 -0.6937  0.5726
 5692SOL     OW19007   4.634   3.839   4.643  0.5950 -0.0178  0.2813
 5692SOL    HW119008   4.676   3.783   4.578  2.1671 -0.1178  1.3300
 5692SOL    HW219009   4.622   3.923   4.599 -2.6223 -1.2934 -1.6348
 5693SOL     OW19010   1.849   2.721   6.562  0.4611 -0.2778  0.2215
 5693SOL    HW119011   1.913   2.691   6.627 -0.3117 -2.0932  0.1783
 5693SOL    HW219012   1.902   2.763   6.494  1.4714 -0.3983  0.9082
 5694SOL     OW19013   0.984   2.986   1.056  0.2040  0.2814 -0.2206
 5694SOL    HW119014   1.009   3.042   0.982  1.6203  2.2105  1.6229
 5694SOL    HW219015   0.888   2.994   1.059  0.2313  1.1868 -1.0632
 5695SOL     OW19016   2.254   4.601   6.341 -0.8437 -0.7010  0.3757
 5695SOL    HW119017   2.166   4.632   6.318  0.2333  1.2437 -1.3796
 5695SOL    HW219018   2.275   4.537   6.273 -0.4002 -0.2234  0.0659
 5696SOL     OW19019   5.968   1.127   2.736 -0.3835  0.2455 -0.4640
 5696SOL    HW119020   6.007   1.122   2.822 -2.5822 -1.9936  0.5434
 5696SOL    HW219021   5.941   1.218   2.726 -0.8720  0.3555  1.6063
 5697SOL     OW19022   4.790   7.615   5.077  0.0446 -0.8540  0.3145
 5697SOL    HW119023   4.849   7.541   5.091  0.5276 -0.0955  2.8247
 5697SOL    HW219024   4.704   7.575   5.066  0.5719 -1.8464 -0.3952
 5698SOL     OW19025   4.742   4.416   7.040  0.4511  0.3361 -0.1787
 5698SOL    HW119026   4.726   4.415   6.945 -0.3278  2.4548 -0.1112
 5698SOL    HW219027   4.705   4.333   7.070 -1.1554  0.5078 -1.4882
 5699SOL     OW19028   3.340   2.459   0.764  0.2134 -0.0599  0.5166
 5699SOL    HW119029   3.336   2.363   0.766  1.7600 -0.1585  0.3756
 5699SOL    HW219030   3.426   2.479   0.801  0.1874  1.2518 -0.1090
 5700SOL     OW19031   5.722   0.806   1.690  0.0913  0.2529  0.5810
 5700SOL    HW119032   5.665   0.762   1.753 -1.6982  2.4508  0.6285
 5700SOL    HW219033   5.792   0.844   1.742 -0.5266  0.7335  1.0828
 5701SOL     OW19034   6.386   2.475   1.535 -0.7126  0.9278  0.5315
 5701SOL    HW119035   6.474   2.504   1.511  0.6262 -2.6291  0.5570
 5701SOL    HW219036   6.330   2.512   1.466  0.6363  3.5067  0.6624
 5702SOL     OW19037   8.201   6.762   4.748 -0.4082 -0.1637 -0.6796
 5702SOL    HW119038   8.147   6.817   4.691 -1.7744  0.3049  0.9898
 5702SOL    HW219039   8.238   6.823   4.812  1.7245 -0.5634 -1.4609
 5703SOL     OW19040   6.313   5.428   5.183 -0.1628  0.1122 -0.0529
 5703SOL    HW119041   6.247   5.377   5.230 -0.5949 -0.0730 -0.8449
 5703SOL    HW219042   6.264   5.496   5.138  0.1580 -0.1023 -0.7466
 5704SOL     OW19043   4.722   0.482   1.378 -0.0535 -0.2996  0.1287
 5704SOL    HW119044   4.778   0.508   1.305 -0.4200  0.7636  0.2110
 5704SOL    HW219045   4.776   0.494   1.455 -0.0522 -0.2795  0.1246
 5705SOL     OW19046   8.051   1.410   6.497  0.4414  0.0597  0.1665
 5705SOL    HW119047   7.993   1.455   6.437  0.8212  0.3186 -0.0107
 5705SOL    HW219048   8.125   1.382   6.443 -0.5612 -2.3188 -0.1166
 5706SOL     OW19049   1.329   4.013   7.524  0.1700  0.0280  0.0204
 5706SOL    HW119050   1.349   4.104   7.545  0.3218  0.0501 -0.2278
 5706SOL    HW219051   1.341   3.966   7.607  0.6286  0.1409  0.0175
 5707SOL     OW19052   6.587   1.841   6.626  0.5404 -0.0698  0.1044
 5707SOL    HW119053   6.636   1.883   6.556 -1.8194  2.9526  0.0823
 5707SOL    HW219054   6.577   1.908   6.694 -0.6605 -1.6242  1.5773
 5708SOL     OW19055   3.990   3.233   6.285  0.2110 -0.3460  0.2289
 5708SOL    HW119056   3.940   3.271   6.213  2.1125  1.2058 -0.3679
 5708SOL    HW219057   4.018   3.147   6.252 -0.3249 -0.3561 -0.2180
 5709SOL     OW19058   0.305   0.238   5.033  0.3882  0.7484 -0.1097
 5709SOL    HW119059   0.270   0.234   5.122 -3.0783 -1.2980 -1.3574
 5709SOL    HW219060   0.246   0.297   4.986  1.2345  0.6188 -1.4095
 5710SOL     OW19061   3.845   0.291   3.462  0.2195 -0.5399 -0.3079
 5710SOL    HW119062   3.934   0.259   3.449  0.1186 -0.4107 -1.4015
 5710SOL    HW219063   3.832   0.356   3.393 -0.5705 -0.2279  0.1173
 5711SOL     OW19064   0.318   8.469   3.447  0.1104 -0.0339  0.0507
 5711SOL    HW119065   0.304   8.477   3.353  2.3322 -1.5458 -0.4807
 5711SOL    HW219066   0.368   8.547   3.471 -4.1145  2.7282  0.9931
 5712SOL     OW19067   6.276   8.500   3.832  0.3598  0.0752  0.2768
 5712SOL    HW119068   6.368   8.522   3.849  2.1597 -1.1044 -5.5875
 5712SOL    HW219069   6.269   8.407   3.853  1.0889 -0.2373 -0.7825
 5713SOL     OW19070   5.311   5.633   3.940  0.4613  0.7262  0.0957
 5713SOL    HW119071   5.295   5.567   3.872  0.3578 -0.3632  1.1391
 5713SOL    HW219072   5.386   5.683   3.909  0.3852  0.2736 -0.8345
 5714SOL     OW19073   7.833   6.249   0.162 -0.3979  0.2443  0.2640
 5714SOL    HW119074   7.920   6.242   0.124  0.1174 -2.1256  1.6789
 5714SOL    HW219075   7.832   6.333   0.207  2.5341 -1.1097  3.2530
 5715SOL     OW19076   2.156   7.191   7.595 -0.1641 -0.6890 -0.0363
 5715SOL    HW119077   2.183   7.156   7.510 -0.8725  0.3629 -0.7037
 5715SOL    HW219078   2.071   7.150   7.612 -0.6548  0.1232 -0.4797
 5716SOL     OW19079   2.112   0.896   1.002  0.1341 -0.2953  0.6036
 5716SOL    HW119080   2.120   0.829   1.070 -0.3091 -1.6965 -0.6792
 5716SOL    HW219081   2.165   0.864   0.930  0.2857  0.9835  0.1234
 5717SOL     OW19082   5.006   8.541   8.598  0.4283  0.5805  0.2781
 5717SOL    HW119083   4.992   8.603   8.526  1.1767 -0.0444 -0.4429
 5717SOL    HW219084   5.009   8.455   8.554  0.5706  0.1564  1.1046
 5718SOL     OW19085   0.091   4.705   0.387 -0.2487  0.1716 -0.3655
 5718SOL    HW119086   0.026   4.640   0.358 -2.2498  0.5140  2.9320
 5718SOL    HW219087   0.135   4.663   0.460 -0.2639  1.8083  0.6181
 5719SOL     OW19088   1.719   8.495   5.297  0.6296  0.3122 -0.2449
 5719SOL    HW119089   1.780   8.555   5.253  0.2775  2.1139  1.6172
 5719SOL    HW219090   1.648   8.483   5.234  1.9582 -0.3216 -1.6963
 5720SOL     OW19091   0.425   6.408   8.602  0.1214 -0.1805  0.0450
 5720SOL    HW119092   0.503   6.463   8.609  0.1488 -0.4043  2.3847
 5720SOL    HW219093   0.353   6.465   8.628 -0.4899 -0.0955 -1.6895
 5721SOL     OW19094   0.192   0.592   4.134 -0.6928 -0.1224 -0.0879
 5721SOL    HW119095   0.163   0.592   4.225 -0.2451  1.3156  0.0864
 5721SOL    HW219096   0.134   0.656   4.091 -0.1286  0.0946 -0.5301
 5722SOL     OW19097   0.805   1.823   6.723 -0.5605 -0.4611  0.2605
 5722SOL    HW119098   0.735   1.888   6.725  0.2235  0.3731  1.0633
 5722SOL    HW219099   0.769   1.749   6.773 -1.1421 -0.3285  0.0475
 5723SOL     OW19100   1.435   0.366   6.253 -0.0008  0.7873  0.5795
 5723SOL    HW119101   1.361   0.307   6.235  0.6868  0.0951 -0.0821
 5723SOL    HW219102   1.512   0.310   6.243  0.6123  1.4937  1.2934
 5724SOL     OW19103   5.586   5.270   6.087  0.7546  0.4274  0.0547
 5724SOL    HW119104   5.668   5.296   6.045  2.0864 -0.7524  1.7520
 5724SOL    HW219105   5.582   5.175   6.075  1.4243 -0.0346  2.7921
 5725SOL     OW19106   3.074   3.907   5.186 -0.1664  0.5100  0.0849
 5725SOL    HW119107   3.029   3.971   5.131 -2.1984 -1.2366 -0.4425
 5725SOL    HW219108   3.099   3.836   5.126  1.2714  0.3987  0.7771
 5726SOL     OW19109   0.884   8.772   0.867 -0.1827 -0.9980  0.6653
 5726SOL    HW119110   0.798   8.736   0.847 -0.7814 -0.0934  1.5341
 5726SOL    HW219111   0.896   8.757   0.960  0.3912 -0.6769  0.6516
 5727SOL     OW19112   1.230   0.741   5.106  0.1373 -0.4095 -0.5154
 5727SOL    HW119113   1.315   0.746   5.150  0.1043  0.3367 -0.5267
 5727SOL    HW219114   1.201   0.651   5.121 -0.6134  0.2157  2.4418
 5728SOL     OW19115   0.805   3.169   6.648 -0.0683  0.0547  0.1467
 5728SOL    HW119116   0.799   3.129   6.561 -1.2276 -1.7367  0.9793
 5728SOL    HW219117   0.880   3.126   6.690 -1.7175 -1.8976  1.2849
 5729SOL     OW19118   8.536   2.053   6.653  0.0877  0.3628 -0.1714
 5729SOL    HW119119   8.540   2.117   6.724  1.2922  0.0502  0.0768
 5729SOL    HW219120   8.458   2.076   6.603 -1.8299 -0.4528  2.2410
 5730SOL     OW19121   1.307   7.342   4.169 -0.1830  0.4835 -0.2293
 5730SOL    HW119122   1.252   7.362   4.094 -0.4062 -0.1157 -0.2249
 5730SOL    HW219123   1.351   7.260   4.146  0.8930  1.0683 -0.3368
 5731SOL     OW19124   0.266   6.556   5.789  0.2755 -0.1847  0.0494
 5731SOL    HW119125   0.192   6.510   5.747  2.0156 -1.7808 -1.4757
 5731SOL    HW219126   0.249   6.648   5.772 -0.6315 -0.6086 -1.5941
 5732SOL     OW19127   0.462   7.194   5.675  0.6191  0.5165  0.4430
 5732SOL    HW119128   0.414   7.273   5.702  0.8805  0.7906  0.1149
 5732SOL    HW219129   0.526   7.226   5.611 -0.1369 -0.1578 -0.6856
 5733SOL     OW19130   5.572   1.298   1.760 -0.3383 -0.0718 -0.0050
 5733SOL    HW119131   5.513   1.374   1.752 -1.0099 -0.6025 -0.1943
 5733SOL    HW219132   5.562   1.252   1.677 -1.7586 -1.6537  0.9935
 5734SOL     OW19133   1.648   8.117   1.471  0.4366 -0.0579 -0.4837
 5734SOL    HW119134   1.556   8.112   1.444  0.4433 -0.1013 -0.4992
 5734SOL    HW219135   1.693   8.055   1.414  0.5565  0.3245 -0.8039
 5735SOL     OW19136   0.175   7.845   5.146  0.0962  0.7966 -0.2322
 5735SOL    HW119137   0.150   7.761   5.184  1.3930  0.8778  0.8656
 5735SOL    HW219138   0.128   7.848   5.062 -1.4076 -0.1904  0.5186
 5736SOL     OW19139   7.543   7.199   4.808 -0.4796 -0.1439 -0.2615
 5736SOL    HW119140   7.475   7.237   4.863 -1.5644 -0.7955 -1.1248
 5736SOL    HW219141   7.539   7.105   4.825  0.8004 -0.1232  0.3151
 5737SOL     OW19142   2.928   6.712   4.949  0.4523 -0.5325 -0.1678
 5737SOL    HW119143   2.930   6.719   4.853  0.0059  1.3648 -0.0917
 5737SOL    HW219144   3.014   6.745   4.976 -0.4890  1.8939  0.1373
 5738SOL     OW19145   7.586   3.677   6.860  0.2168  0.9563 -0.1348
 5738SOL    HW119146   7.658   3.655   6.920 -1.4563 -1.0006  1.3379
 5738SOL    HW219147   7.513   3.702   6.918 -1.3079 -0.4567 -1.3289
 5739SOL     OW19148   7.241   3.206   5.531 -1.1169 -0.1215 -0.2281
 5739SOL    HW119149   7.316   3.221   5.588 -0.2824  0.8080 -1.5110
 5739SOL    HW219150   7.220   3.113   5.542 -1.5897  0.2127  2.2519
 5740SOL     OW19151   0.535   6.291   4.442 -0.3738 -0.1368 -0.2198
 5740SOL    HW119152   0.505   6.382   4.432 -1.0148 -0.1667  1.1406
 5740SOL    HW219153   0.456   6.239   4.430 -0.2332 -0.4295  0.1045
 5741SOL     OW19154   3.688   8.552   8.540 -0.3032 -0.5302 -0.6096
 5741SOL    HW119155   3.782   8.561   8.523 -0.4507  0.8660 -0.7947
 5741SOL    HW219156   3.665   8.466   8.504  0.7204 -0.4860 -1.3939
 5742SOL     OW19157   6.858   6.045   4.065  0.1004  0.0532  0.4505
 5742SOL    HW119158   6.904   6.129   4.055 -0.4165  0.2057 -0.8243
 5742SOL    HW219159   6.849   6.034   4.160  1.0071  0.9788  0.6644
 5743SOL     OW19160   0.026   3.128   1.477  0.5368 -0.1933 -0.2244
 5743SOL    HW119161  -0.043   3.143   1.412 -0.4665  0.6739  1.0098
 5743SOL    HW219162  -0.021   3.111   1.558  1.7771  0.5568  0.6716
 5744SOL     OW19163   5.351   0.000   6.383 -0.5141 -0.2566  0.1447
 5744SOL    HW119164   5.434   0.048   6.378 -0.9713  0.6878  1.3090
 5744SOL    HW219165   5.341  -0.023   6.475 -0.7766 -1.7947 -0.2399
 5745SOL     OW19166   5.086   7.989   6.915  0.3567  0.0547 -0.2981
 5745SOL    HW119167   5.018   8.023   6.974 -0.0452 -0.1204 -0.6560
 5745SOL    HW219168   5.092   7.896   6.937  1.5455  0.3585  0.7702
 5746SOL     OW19169   4.863   8.643   6.077  0.2184 -0.4056  0.2203
 5746SOL    HW119170   4.940   8.623   6.023  0.1904  2.5736 -1.0950
 5746SOL    HW219171   4.899   8.692   6.152 -0.1907 -1.1026  0.8926
 5747SOL     OW19172   6.441   0.473   3.991  0.8273  0.2392 -0.2977
 5747SOL    HW119173   6.425   0.479   4.085  0.0983 -1.4125 -0.2860
 5747SOL    HW219174   6.534   0.493   3.981  1.2671 -1.0347  0.9594
 5748SOL     OW19175   1.078   3.840   2.125  0.4599 -0.0124  0.3436
 5748SOL    HW119176   1.035   3.755   2.120  0.0518  0.1634  0.8408
 5748SOL    HW219177   1.112   3.846   2.214  1.2187 -0.0005  0.0610
 5749SOL     OW19178   2.368   7.940   5.058  0.2156 -0.2168  0.0522
 5749SOL    HW119179   2.294   7.998   5.077 -0.1382 -1.0312  1.3340
 5749SOL    HW219180   2.353   7.910   4.969  0.0047  1.0550 -0.3680
 5750SOL     OW19181   4.887   7.092   6.023  0.4799  0.1849  0.3169
 5750SOL    HW119182   4.818   7.158   6.029  0.0067 -0.2908  0.1843
 5750SOL    HW219183   4.968   7.142   6.024  0.1173  0.8115 -0.3815
 5751SOL     OW19184   6.292   2.184   6.917  0.6151  0.0248  0.1293
 5751SOL    HW119185   6.238   2.127   6.972  1.9159 -0.7864  0.6181
 5751SOL    HW219186   6.230   2.248   6.881 -0.4491 -0.0681  1.6804
 5752SOL     OW19187   7.068   4.245   8.819  0.2848  0.1125  0.3125
 5752SOL    HW119188   7.019   4.232   8.738 -0.5554  0.3983  0.7579
 5752SOL    HW219189   7.094   4.157   8.845 -1.9891 -0.3701  1.2597
 5753SOL     OW19190   8.509   0.970   0.649 -0.7219  0.0045  0.0642
 5753SOL    HW119191   8.438   1.010   0.699 -1.0723 -0.8652  0.2796
 5753SOL    HW219192   8.567   0.932   0.716  0.2231  1.1422 -0.0839
 5754SOL     OW19193   4.699   8.033   2.708 -0.0654 -0.3020  0.3125
 5754SOL    HW119194   4.685   8.110   2.653  0.5475  0.6165  1.3947
 5754SOL    HW219195   4.781   7.995   2.676 -0.5335 -0.6993 -0.4311
 5755SOL     OW19196   7.273   8.002   7.106 -0.5247  0.2906 -0.0155
 5755SOL    HW119197   7.214   8.059   7.056 -0.6174  0.6160  0.4580
 5755SOL    HW219198   7.359   8.015   7.066 -0.0060  2.8062  1.7312
 5756SOL     OW19199   7.546   8.757   1.506  0.6054  0.1695  0.1403
 5756SOL    HW119200   7.473   8.800   1.459  0.9995 -0.1506 -0.7838
 5756SOL    HW219201   7.522   8.765   1.598 -0.0445  1.0935 -0.0859
 5757SOL     OW19202   6.069   7.638   2.040  0.1498  0.1275 -0.2710
 5757SOL    HW119203   6.092   7.557   2.086  0.4584  0.3515 -0.0341
 5757SOL    HW219204   5.989   7.616   1.993 -0.6107  0.1275  0.9851
 5758SOL     OW19205   8.145   0.869   7.810  0.7811 -0.3985 -0.3711
 5758SOL    HW119206   8.199   0.825   7.744  1.2855  1.2417 -1.1105
 5758SOL    HW219207   8.133   0.804   7.878  3.7572 -0.8819 -0.1496
 5759SOL     OW19208   3.562   1.697   5.420 -0.2267  0.0530 -0.0553
 5759SOL    HW119209   3.483   1.643   5.431  0.3587 -0.7808  0.1046
 5759SOL    HW219210   3.626   1.659   5.480 -0.0614  1.4622  0.7051
 5760SOL     OW19211   8.725   1.050   4.614  0.3450 -0.1761  0.4641
 5760SOL    HW119212   8.641   1.093   4.601 -0.1220 -1.2000 -0.0438
 5760SOL    HW219213   8.778   1.113   4.663 -0.3173  0.9482 -0.2360
 5761SOL     OW19214   6.908   5.522   2.283 -0.9379  0.3709  0.3009
 5761SOL    HW119215   6.844   5.474   2.231 -0.8507  2.3933 -1.8454
 5761SOL    HW219216   6.866   5.605   2.304  0.1966  0.8673  0.7370
 5762SOL     OW19217   1.345   3.860   6.542 -0.1189 -0.6347 -0.1911
 5762SOL    HW119218   1.406   3.804   6.493  2.4167 -0.3447  2.3769
 5762SOL    HW219219   1.308   3.802   6.609 -1.9983 -0.5302 -1.0509
 5763SOL     OW19220   8.231   2.297   0.566 -0.2727 -0.2781  0.0384
 5763SOL    HW119221   8.248   2.207   0.595 -1.1948 -0.5113 -0.1061
 5763SOL    HW219222   8.318   2.332   0.545  0.1205 -1.0605  0.2972
 5764SOL     OW19223   2.734   4.518   8.193 -0.1079  0.1495  0.7303
 5764SOL    HW119224   2.677   4.585   8.231  1.4860  2.1191 -0.1744
 5764SOL    HW219225   2.727   4.532   8.098  0.8561 -0.4390  0.5634
 5765SOL     OW19226   1.847   5.830   5.815 -0.5228  0.3438 -0.1642
 5765SOL    HW119227   1.851   5.734   5.819 -0.7682  0.3458  0.2073
 5765SOL    HW219228   1.757   5.849   5.787 -0.7704  0.4812  0.7010
 5766SOL     OW19229   8.455   5.392   4.937 -0.0397 -0.2374  0.3051
 5766SOL    HW119230   8.530   5.447   4.914 -0.3598 -0.7018 -2.1043
 5766SOL    HW219231   8.478   5.355   5.022  1.1904  1.8080  0.9291
 5767SOL     OW19232   1.701   3.848   6.357  0.0803  0.3506  0.4126
 5767SOL    HW119233   1.641   3.902   6.307 -0.5411  0.2466  1.0397
 5767SOL    HW219234   1.680   3.866   6.449  0.5992 -0.1348  0.6351
 5768SOL     OW19235   7.965   2.608   3.688  0.5299 -0.2345 -0.0254
 5768SOL    HW119236   8.016   2.531   3.711 -0.1341 -0.1409  1.8683
 5768SOL    HW219237   7.932   2.589   3.600  1.8723 -1.2898 -0.3369
 5769SOL     OW19238   3.499   0.385   8.492  0.3671 -0.0885 -0.5257
 5769SOL    HW119239   3.506   0.339   8.576  3.1966 -1.1144 -1.2142
 5769SOL    HW219240   3.583   0.369   8.449 -0.8997  0.6036 -3.4813
 5770SOL     OW19241   5.284   5.626   2.736  0.0751 -0.6133 -0.5842
 5770SOL    HW119242   5.305   5.533   2.741  1.2798 -0.3737 -0.8858
 5770SOL    HW219243   5.363   5.670   2.769 -0.4979  0.2954 -0.3994
 5771SOL     OW19244   8.110   4.818   8.780 -0.0529 -0.1275  0.8204
 5771SOL    HW119245   8.129   4.907   8.809 -0.9534  0.2405  0.3070
 5771SOL    HW219246   8.171   4.763   8.830  0.3351  0.7452  1.3245
 5772SOL     OW19247   1.404   1.138   8.735  0.2146  0.3055 -0.1874
 5772SOL    HW119248   1.335   1.112   8.674 -1.5862  1.2451  1.3579
 5772SOL    HW219249   1.387   1.230   8.753  0.5331  0.0134  1.8718
 5773SOL     OW19250   4.601   8.708   1.141 -0.0965 -0.4745  0.3212
 5773SOL    HW119251   4.641   8.761   1.210  0.1450 -0.1553 -0.0617
 5773SOL    HW219252   4.651   8.730   1.062 -0.8057 -0.3399 -0.0916
 5774SOL     OW19253   3.443   1.267   1.992  0.1132  0.0826  0.5464
 5774SOL    HW119254   3.419   1.189   2.042  1.5936 -1.3651 -0.8907
 5774SOL    HW219255   3.539   1.267   1.990  0.1596 -0.1300 -2.4830
 5775SOL     OW19256   8.262   2.018   5.861  0.4916  0.1137 -0.0886
 5775SOL    HW119257   8.217   2.084   5.914  0.6125  0.5205 -0.4872
 5775SOL    HW219258   8.298   2.067   5.787 -0.0334 -0.5060 -0.7700
 5776SOL     OW19259   0.021   0.240   2.759 -0.1907  0.0834  0.0108
 5776SOL    HW119260   0.024   0.232   2.663  0.8145  2.0759 -0.1647
 5776SOL    HW219261   0.107   0.272   2.783 -0.6442  0.2081  1.5439
 5777SOL     OW19262   1.279   4.940   0.816 -0.3792 -0.1709 -0.7375
 5777SOL    HW119263   1.250   4.973   0.731 -0.3166 -1.6318 -1.3521
 5777SOL    HW219264   1.296   4.847   0.801  0.1288 -0.3401  0.7547
 5778SOL     OW19265   5.511   6.028   3.583  0.3254 -0.6252 -0.5513
 5778SOL    HW119266   5.490   5.950   3.531  1.3708 -0.4119 -1.3243
 5778SOL    HW219267   5.588   6.066   3.540 -0.4862  1.1562 -0.5247
 5779SOL     OW19268   5.677   0.869   6.287  0.1420  0.4425  0.0245
 5779SOL    HW119269   5.594   0.822   6.286  0.0568  0.5851  0.2574
 5779SOL    HW219270   5.689   0.898   6.196  0.4403 -0.4449 -0.2309
 5780SOL     OW19271   4.253   5.551   4.642  0.6803  0.4760 -0.2028
 5780SOL    HW119272   4.257   5.481   4.707  1.3591  1.0322  0.3701
 5780SOL    HW219273   4.303   5.516   4.567  1.1586  0.4103  0.1424
 5781SOL     OW19274   2.386   2.772   3.744 -0.0964  0.4653  0.5634
 5781SOL    HW119275   2.439   2.695   3.763  0.4169  1.1095  1.8754
 5781SOL    HW219276   2.423   2.806   3.662  1.1385  0.5514  1.1352
 5782SOL     OW19277   0.639   1.549   1.892  0.8945 -0.6234 -0.5088
 5782SOL    HW119278   0.658   1.618   1.828  0.5348 -0.8323 -0.8493
 5782SOL    HW219279   0.673   1.469   1.850 -1.2212 -1.1106 -1.4122
 5783SOL     OW19280   8.528   5.115   4.149 -0.1221  0.2961  0.1718
 5783SOL    HW119281   8.519   5.204   4.117  0.1498  0.8135  1.4859
 5783SOL    HW219282   8.595   5.120   4.217 -0.7837 -0.7228  0.9407
 5784SOL     OW19283   0.440   5.259   1.531 -0.2703 -0.1195 -0.0898
 5784SOL    HW119284   0.404   5.346   1.514  0.0419 -0.1136 -0.7548
 5784SOL    HW219285   0.394   5.202   1.469 -0.9987 -0.5540  0.8448
 5785SOL     OW19286   4.184   8.279   1.743  0.4288  0.3509  0.4082
 5785SOL    HW119287   4.231   8.197   1.758  1.2539  0.3257 -1.8649
 5785SOL    HW219288   4.205   8.333   1.819  2.0405 -0.6156  0.6894
 5786SOL     OW19289   3.519   7.263   7.335  0.3196 -0.2828 -0.3591
 5786SOL    HW119290   3.483   7.183   7.295 -0.2380 -0.9982  1.4422
 5786SOL    HW219291   3.585   7.293   7.273  0.4150 -2.0455 -1.1890
 5787SOL     OW19292   6.342   8.492   0.637 -0.4087  0.5203 -0.1278
 5787SOL    HW119293   6.361   8.480   0.544 -0.2237  1.3505 -0.2057
 5787SOL    HW219294   6.260   8.541   0.639 -1.8132 -1.6778  0.1932
 5788SOL     OW19295   5.013   3.929   7.177  0.1056  0.6515 -0.3966
 5788SOL    HW119296   4.923   3.901   7.163  0.3838 -0.2160 -0.4610
 5788SOL    HW219297   5.014   3.958   7.268  0.5339 -2.5120  0.7314
 5789SOL     OW19298   3.669   3.951   5.526  0.0650 -0.2834  0.2978
 5789SOL    HW119299   3.615   4.030   5.526 -1.5535 -1.2291 -2.3303
 5789SOL    HW219300   3.735   3.966   5.593  0.9713  4.0857 -1.2588
 5790SOL     OW19301   1.409   8.870   1.947 -0.7292  0.3082 -0.1914
 5790SOL    HW119302   1.347   8.797   1.947 -2.0874  1.3613  2.5629
 5790SOL    HW219303   1.452   8.864   2.032 -0.0535  2.0756 -0.3814
 5791SOL     OW19304   1.111   4.381   8.173  0.4095 -0.1357  0.4604
 5791SOL    HW119305   1.038   4.410   8.118 -0.4739  1.0580  2.2079
 5791SOL    HW219306   1.171   4.338   8.111 -1.6337 -0.9853 -1.0610
 5792SOL     OW19307   1.341   0.407   0.475 -0.2799  0.2755  0.0100
 5792SOL    HW119308   1.322   0.349   0.549  1.3352  1.3882  1.3553
 5792SOL    HW219309   1.425   0.376   0.442  0.0754  1.1899  0.0557
 5793SOL     OW19310   0.466   7.993   2.843 -0.6202 -0.8965  0.2682
 5793SOL    HW119311   0.409   8.069   2.854 -0.2827 -0.3401 -1.5343
 5793SOL    HW219312   0.553   8.024   2.868 -0.3795 -0.4938 -1.0091
 5794SOL     OW19313   4.627   0.520   2.789  0.3728 -0.3539  0.2884
 5794SOL    HW119314   4.637   0.583   2.717  0.2551 -0.8572 -0.1768
 5794SOL    HW219315   4.622   0.574   2.868 -2.9785  0.4916 -0.3264
 5795SOL     OW19316   3.938   5.956   6.572  0.2303  0.2065 -0.7480
 5795SOL    HW119317   3.892   5.879   6.537 -0.0238 -0.1117  0.2634
 5795SOL    HW219318   3.905   6.029   6.520 -1.2320 -0.0533 -0.2457
 5796SOL     OW19319   3.261   5.120   6.818  0.6152 -0.0571  0.1379
 5796SOL    HW119320   3.252   5.058   6.745  0.5545  0.1900 -0.0675
 5796SOL    HW219321   3.219   5.076   6.892 -0.6018  0.2780 -0.3286
 5797SOL     OW19322   1.358   0.451   1.521  0.0737  0.1430  0.1849
 5797SOL    HW119323   1.358   0.388   1.449 -0.7825  0.6509 -0.2723
 5797SOL    HW219324   1.451   0.466   1.539  0.3373  0.6334 -1.3803
 5798SOL     OW19325   4.200   4.827   3.319  0.5445 -0.0594 -0.5076
 5798SOL    HW119326   4.232   4.760   3.379 -0.4765 -1.1007 -1.0803
 5798SOL    HW219327   4.259   4.901   3.331  1.1278 -0.7164  0.8297
 5799SOL     OW19328   0.160   2.495   4.774 -0.2757  0.0404  0.5662
 5799SOL    HW119329   0.098   2.430   4.741  0.6468  0.3938 -2.1327
 5799SOL    HW219330   0.236   2.444   4.801 -0.8041 -0.2156  1.5976
 5800SOL     OW19331   7.661   6.796   6.748 -0.6811  0.2805  0.5104
 5800SOL    HW119332   7.668   6.700   6.744 -1.0762  0.2662  0.0982
 5800SOL    HW219333   7.567   6.813   6.743 -0.5426  0.7475 -0.7285
 5801SOL     OW19334   1.611   4.823   6.692  0.2392 -0.2855 -0.3967
 5801SOL    HW119335   1.523   4.838   6.725 -0.2496 -1.7128 -0.9905
 5801SOL    HW219336   1.666   4.882   6.744 -1.2549  2.0831 -1.3120
 5802SOL     OW19337   1.648   8.361   4.172  0.5043 -0.2052 -0.2691
 5802SOL    HW119338   1.705   8.418   4.223 -0.1426  0.8360 -0.6891
 5802SOL    HW219339   1.691   8.355   4.087  0.1919  0.2818 -0.4670
 5803SOL     OW19340   8.568   1.116   8.811  0.1263 -0.6900  0.0172
 5803SOL    HW119341   8.643   1.175   8.810  1.0756 -1.8639 -0.8456
 5803SOL    HW219342   8.492   1.173   8.797  0.7540  0.6029  1.5649
 5804SOL     OW19343   4.200   2.989   5.675 -0.0200  0.1574 -0.4244
 5804SOL    HW119344   4.119   3.001   5.725  0.5738 -1.2805  0.9670
 5804SOL    HW219345   4.269   3.019   5.734  0.8606 -3.1975  0.4630
 5805SOL     OW19346   7.628   0.763   3.931 -0.2274  0.2681 -0.3346
 5805SOL    HW119347   7.650   0.856   3.945  1.1235 -0.0990  0.1266
 5805SOL    HW219348   7.547   0.750   3.980  0.3366  0.8787  0.8097
 5806SOL     OW19349   7.015   1.754   4.943 -0.4498  0.2421 -0.1228
 5806SOL    HW119350   7.099   1.708   4.955 -0.6186 -0.5992 -1.8649
 5806SOL    HW219351   7.039   1.837   4.904 -0.3548  0.4685  0.4101
 5807SOL     OW19352   6.386   7.270   7.114 -0.0774  0.2300  0.2343
 5807SOL    HW119353   6.296   7.272   7.146 -0.4103  1.1142 -0.6814
 5807SOL    HW219354   6.439   7.296   7.189 -0.4975 -1.0405  1.0010
 5808SOL     OW19355   5.923   7.764   7.643  0.1671 -0.2592  0.4048
 5808SOL    HW119356   5.872   7.691   7.678 -1.4045 -0.6043 -2.2982
 5808SOL    HW219357   5.945   7.817   7.720 -2.7304 -1.0691  1.9698
 5809SOL     OW19358   0.803   5.555   7.183  0.1621  0.5074 -0.3224
 5809SOL    HW119359   0.878   5.504   7.215 -0.1804  0.8936  1.2050
 5809SOL    HW219360   0.840   5.641   7.163  0.5506 -0.0026 -1.9224
 5810SOL     OW19361   5.450   6.364   8.382  0.4963 -0.3139  0.2080
 5810SOL    HW119362   5.463   6.423   8.457  0.7295 -0.8043  0.5621
 5810SOL    HW219363   5.534   6.363   8.337  0.0425  0.8402 -0.7103
 5811SOL     OW19364   6.956   3.029   1.757  0.2766  0.0768 -0.0824
 5811SOL    HW119365   7.051   3.025   1.768  0.1560 -2.2148  0.6304
 5811SOL    HW219366   6.935   2.951   1.704 -1.2622  0.2082  0.2890
 5812SOL     OW19367   2.854   7.155   4.589  0.2317 -0.2391 -0.3171
 5812SOL    HW119368   2.927   7.107   4.628 -0.4868 -0.2907  1.0280
 5812SOL    HW219369   2.877   7.247   4.599  0.0989 -0.2548  0.1309
 5813SOL     OW19370   1.615   1.129   6.760  0.2829  0.0612 -0.0329
 5813SOL    HW119371   1.668   1.190   6.708 -0.7212  2.0378  1.1496
 5813SOL    HW219372   1.673   1.055   6.776  1.6175  0.7600 -1.4054
 5814SOL     OW19373   4.244   1.608   7.018  0.8497 -0.0762 -0.2189
 5814SOL    HW119374   4.232   1.657   6.937 -1.0331 -1.2031 -0.6742
 5814SOL    HW219375   4.339   1.605   7.030  1.1487  0.5307 -2.1045
 5815SOL     OW19376   4.993   7.357   1.411  0.0028 -0.1187 -0.1169
 5815SOL    HW119377   4.976   7.422   1.480  1.4731 -0.2802  0.4519
 5815SOL    HW219378   5.044   7.405   1.346  1.2506 -0.7097  0.3922
 5816SOL     OW19379   6.693   4.030   3.176 -0.4521 -0.3316  0.4887
 5816SOL    HW119380   6.717   4.010   3.266  1.3747  1.4124  0.4683
 5816SOL    HW219381   6.722   4.120   3.163 -0.4556 -0.6080 -1.9064
 5817SOL     OW19382   7.732   4.046   8.538  0.5646 -0.1351  0.5521
 5817SOL    HW119383   7.679   4.054   8.618 -2.1778 -0.6021 -1.0946
 5817SOL    HW219384   7.713   4.125   8.489  0.6895 -0.7208 -0.4659
 5818SOL     OW19385   7.317   3.574   3.857  0.4348 -0.0017  0.3401
 5818SOL    HW119386   7.223   3.580   3.871  0.2309  0.3795 -1.0347
 5818SOL    HW219387   7.350   3.662   3.874  0.2904  0.2772 -0.7337
 5819SOL     OW19388   3.772   3.603   0.216 -0.0065 -0.5640  0.1032
 5819SOL    HW119389   3.796   3.573   0.128 -0.0898  1.1708 -0.5545
 5819SOL    HW219390   3.846   3.657   0.244  0.5554 -2.0410  1.6260
 5820SOL     OW19391   4.960   8.194   5.161 -0.1289  0.1989  0.0143
 5820SOL    HW119392   4.870   8.181   5.190  0.2750 -1.1346  0.7763
 5820SOL    HW219393   4.958   8.276   5.111 -1.8309 -0.0007 -0.3149
 5821SOL     OW19394   6.912   7.019   2.964 -0.1428  0.0314  0.0130
 5821SOL    HW119395   7.003   6.997   2.983  0.6985  0.7066 -2.6696
 5821SOL    HW219396   6.879   6.944   2.913 -1.5381 -0.7607  1.9768
 5822SOL     OW19397   3.946   2.063   3.311 -0.1018  0.4066  0.3126
 5822SOL    HW119398   3.862   2.026   3.337 -0.4715  1.0636  0.0512
 5822SOL    HW219399   3.963   2.025   3.225  0.0280  0.0244  0.5032
 5823SOL     OW19400   2.528   7.670   1.652  0.1007  0.4946 -1.1221
 5823SOL    HW119401   2.537   7.579   1.679 -0.2683  0.4171 -1.2606
 5823SOL    HW219402   2.558   7.720   1.728 -0.2776  0.2629 -0.8160
 5824SOL     OW19403   2.740   6.876   1.034  0.1130  0.1252 -0.0537
 5824SOL    HW119404   2.709   6.965   1.014 -1.4700 -0.4381 -0.2338
 5824SOL    HW219405   2.689   6.820   0.976  0.4068 -0.9929  0.7544
 5825SOL     OW19406   6.515   4.131   5.587 -0.3831  0.5059 -0.7359
 5825SOL    HW119407   6.593   4.162   5.541 -0.7940  0.8197 -1.2328
 5825SOL    HW219408   6.483   4.058   5.533  0.6750 -0.9346  0.5138
 5826SOL     OW19409   0.348   2.691   0.685  0.0812 -0.1500 -0.3850
 5826SOL    HW119410   0.278   2.747   0.720  0.1307 -0.1740 -0.2460
 5826SOL    HW219411   0.341   2.701   0.590 -0.6733 -0.8237 -0.4148
 5827SOL     OW19412   2.302   7.169   5.146  0.3129 -0.1683 -0.2732
 5827SOL    HW119413   2.238   7.120   5.198  1.5168  0.4869  1.9833
 5827SOL    HW219414   2.381   7.168   5.200  0.3562  4.4432  0.1682
 5828SOL     OW19415   6.122   7.020   7.771  0.1795  0.5470  0.1716
 5828SOL    HW119416   6.056   6.969   7.723  0.1255  0.0743  0.7353
 5828SOL    HW219417   6.095   7.111   7.760 -0.4278  0.3727  0.1906
 5829SOL     OW19418   2.360   1.740   7.926 -0.0018  0.3081 -0.0247
 5829SOL    HW119419   2.316   1.692   7.996  0.5909  1.4678  1.2083
 5829SOL    HW219420   2.314   1.715   7.846  0.3912 -2.3773  0.5236
 5830SOL     OW19421   5.188   8.870   1.170  0.4884  0.7028 -0.0345
 5830SOL    HW119422   5.193   8.939   1.104  1.5184  3.0284  2.3024
 5830SOL    HW219423   5.140   8.910   1.243  0.2762 -1.4107  1.0591
 5831SOL     OW19424   6.394   0.039   8.401  0.3258 -1.0140 -0.1928
 5831SOL    HW119425   6.473   0.000   8.363  0.5474 -0.5921 -0.1723
 5831SOL    HW219426   6.381  -0.007   8.484  0.6154 -1.0079 -0.1447
 5832SOL     OW19427   1.052   6.028   0.674  0.0728 -0.3543 -0.4341
 5832SOL    HW119428   0.959   6.005   0.676 -1.0807  3.6094 -0.7296
 5832SOL    HW219429   1.070   6.045   0.582  0.6537  0.3119 -0.2074
 5833SOL     OW19430   2.698   0.184   3.715  0.8926  0.0086  0.2847
 5833SOL    HW119431   2.658   0.268   3.693 -2.5135 -0.5220  3.3993
 5833SOL    HW219432   2.775   0.207   3.767  1.0227  1.1428 -0.3780
 5834SOL     OW19433   5.275   7.514   0.841 -0.9094  0.3852 -0.4099
 5834SOL    HW119434   5.294   7.429   0.882 -0.4459 -0.1996 -1.7384
 5834SOL    HW219435   5.236   7.490   0.757  3.4909  1.1981 -3.0323
 5835SOL     OW19436   2.800   2.859   7.613  0.0768 -0.2522  0.1299
 5835SOL    HW119437   2.871   2.855   7.678  1.3615 -0.5433 -1.2374
 5835SOL    HW219438   2.807   2.947   7.576 -0.5358 -0.1510  0.2476
 5836SOL     OW19439   0.941   3.158   4.746  0.5346 -1.2265  0.2105
 5836SOL    HW119440   0.871   3.122   4.800  0.1897 -1.0301 -0.1001
 5836SOL    HW219441   0.902   3.166   4.659  0.3558  0.5753  0.4173
 5837SOL     OW19442   8.544   0.705   7.838 -0.1623  0.6328 -0.3271
 5837SOL    HW119443   8.615   0.742   7.786 -1.0063  1.0320 -1.2215
 5837SOL    HW219444   8.522   0.773   7.902 -0.2904  0.8461 -0.5953
 5838SOL     OW19445   1.569   7.219   8.690 -0.2658  0.0905 -0.9471
 5838SOL    HW119446   1.503   7.273   8.648  0.1229  0.7874 -0.6816
 5838SOL    HW219447   1.623   7.186   8.618 -0.4353  0.1445 -1.0992
 5839SOL     OW19448   1.264   0.000   2.488  0.1888  0.0454 -0.3132
 5839SOL    HW119449   1.307   0.075   2.447  0.6063 -0.3451 -0.6020
 5839SOL    HW219450   1.337  -0.054   2.519 -0.0416 -1.1756 -1.7795
 5840SOL     OW19451   7.315   0.627   3.487 -0.2662 -0.2746 -0.4205
 5840SOL    HW119452   7.248   0.561   3.506 -0.8643  0.1177 -1.1306
 5840SOL    HW219453   7.346   0.606   3.399 -0.0442  0.0433 -0.4201
 5841SOL     OW19454   2.354   4.591   4.320  0.2028 -0.6205 -0.1368
 5841SOL    HW119455   2.321   4.542   4.245  0.9289 -0.8334 -0.3154
 5841SOL    HW219456   2.306   4.556   4.395 -1.0917  0.1159 -0.5823
 5842SOL     OW19457   6.536   4.437   1.486 -0.4361  0.4043  0.3347
 5842SOL    HW119458   6.537   4.479   1.399 -2.5246 -0.9252 -0.4115
 5842SOL    HW219459   6.624   4.452   1.521 -0.0552  2.4178 -1.3040
 5843SOL     OW19460   0.999   2.705   7.635  0.0105 -0.7488 -0.3602
 5843SOL    HW119461   0.984   2.800   7.637  1.0149 -0.2515 -4.9830
 5843SOL    HW219462   0.911   2.668   7.625 -0.1736 -0.0025 -1.6841
 5844SOL     OW19463   4.206   0.216   8.223  0.4079  0.1132 -0.2002
 5844SOL    HW119464   4.121   0.193   8.260  0.8495 -5.1111 -1.6499
 5844SOL    HW219465   4.260   0.236   8.299 -0.9068 -1.5425  1.2596
 5845SOL     OW19466   5.325   0.327   7.366 -0.3830 -0.3898 -0.0032
 5845SOL    HW119467   5.356   0.405   7.321  1.9570 -1.1444  0.1534
 5845SOL    HW219468   5.290   0.271   7.296 -1.5125  0.5103 -0.1839
 5846SOL     OW19469   3.419   4.621   3.809 -0.7930 -0.0449 -0.2376
 5846SOL    HW119470   3.491   4.637   3.748 -0.0167 -0.9792  0.3998
 5846SOL    HW219471   3.361   4.695   3.797  0.0664  0.5275 -1.0634
 5847SOL     OW19472   4.071   0.485   6.021  0.3399 -0.1381  0.2419
 5847SOL    HW119473   4.119   0.408   5.990  0.5350  0.7700 -1.9401
 5847SOL    HW219474   4.130   0.559   6.003 -1.3066  0.8820 -1.3428
 5848SOL     OW19475   2.600   6.153   0.044  0.4518 -0.1545 -0.2877
 5848SOL    HW119476   2.695   6.146   0.050  0.4218  0.0662  0.4758
 5848SOL    HW219477   2.581   6.244   0.068 -0.0726 -0.6098  1.0996
 5849SOL     OW19478   1.343   3.069   2.639 -0.3216  0.1580 -0.1944
 5849SOL    HW119479   1.304   3.154   2.658  0.4425  0.8088 -1.4604
 5849SOL    HW219480   1.388   3.080   2.555  1.0131 -1.0913  0.3092
 5850SOL     OW19481   6.146   3.965   2.190  0.1069  0.0470  0.3931
 5850SOL    HW119482   6.196   3.955   2.109 -1.0114  1.2388 -0.4966
 5850SOL    HW219483   6.116   3.876   2.211  2.3640 -0.6724  0.8624
 5851SOL     OW19484   7.148   0.667   5.548  0.1988 -0.0873  0.4191
 5851SOL    HW119485   7.125   0.742   5.603  1.5030 -0.0321  0.9256
 5851SOL    HW219486   7.225   0.696   5.499  0.1550 -0.7812 -0.0838
 5852SOL     OW19487   0.717   5.809   6.549  0.1802 -0.2763  0.0772
 5852SOL    HW119488   0.641   5.865   6.567  1.2140  1.2757 -0.1573
 5852SOL    HW219489   0.701   5.775   6.461 -0.0157  0.4666 -0.1850
 5853SOL     OW19490   8.689   4.751   6.554 -0.7709  0.3709  0.3755
 5853SOL    HW119491   8.778   4.785   6.554 -0.4717 -0.2776  2.7229
 5853SOL    HW219492   8.692   4.673   6.609 -2.4553 -0.6673 -0.8887
 5854SOL     OW19493   3.411   3.992   2.230 -0.7700  0.4203 -0.3031
 5854SOL    HW119494   3.430   3.976   2.322 -0.9851  1.5572 -0.0548
 5854SOL    HW219495   3.442   4.081   2.214 -0.9904  0.3340 -1.2618
 5855SOL     OW19496   4.333   3.976   3.614 -0.0912 -0.3710  0.1116
 5855SOL    HW119497   4.332   4.062   3.572  1.4838 -1.0341 -1.3844
 5855SOL    HW219498   4.384   3.989   3.694 -0.5390  0.2376  0.3090
 5856SOL     OW19499   3.386   0.630   4.437 -0.2632  0.9586 -0.3797
 5856SOL    HW119500   3.360   0.554   4.386 -0.8220 -0.2757  1.5964
 5856SOL    HW219501   3.466   0.602   4.482 -1.5766  0.6670  1.9745
 5857SOL     OW19502   2.507   4.452   5.747  0.2214  0.0812  0.2817
 5857SOL    HW119503   2.424   4.408   5.763 -0.1926  0.8098  0.2102
 5857SOL    HW219504   2.573   4.396   5.789 -0.2233 -0.8449 -0.2337
 5858SOL     OW19505   7.570   0.717   6.537  0.1021  0.2719  0.1131
 5858SOL    HW119506   7.540   0.669   6.613  0.5316  0.5850  0.4877
 5858SOL    HW219507   7.512   0.793   6.532  0.7914  0.8634  0.8216
 5859SOL     OW19508   3.249   2.177   6.921  0.0822  0.4666  0.4245
 5859SOL    HW119509   3.278   2.112   6.985  0.1588 -1.2279 -1.2399
 5859SOL    HW219510   3.155   2.187   6.938 -0.3564 -1.5844 -0.4888
 5860SOL     OW19511   0.688   5.751   3.269 -0.1423  0.2731 -0.0124
 5860SOL    HW119512   0.665   5.696   3.193 -0.8186 -1.0433  1.0838
 5860SOL    HW219513   0.677   5.841   3.238  0.5436 -0.1986 -1.7488
 5861SOL     OW19514   1.429   1.095   7.316  0.1920 -0.3133  0.3880
 5861SOL    HW119515   1.422   1.041   7.237 -1.2046  0.2931  0.0587
 5861SOL    HW219516   1.340   1.100   7.349  0.5788  0.4088  1.3588
 5862SOL     OW19517   0.353   0.146   0.864  0.2061  0.2629 -0.3640
 5862SOL    HW119518   0.259   0.128   0.858  0.0077  0.8774  0.5910
 5862SOL    HW219519   0.358   0.241   0.875  0.9200  0.1910 -0.0098
 5863SOL     OW19520   2.653   5.936   2.565  0.1509 -0.8989  0.1240
 5863SOL    HW119521   2.632   5.863   2.507 -0.9011  0.1026 -0.8290
 5863SOL    HW219522   2.571   5.983   2.574  0.3519 -0.8847  2.2898
 5864SOL     OW19523   6.317   1.215   2.218  0.1440  0.2860  0.4093
 5864SOL    HW119524   6.242   1.162   2.244 -0.6753  1.0343 -0.3595
 5864SOL    HW219525   6.377   1.154   2.176 -0.9681  0.0113 -0.8334
 5865SOL     OW19526   0.029   0.895   2.203  0.5941  0.2459  0.2972
 5865SOL    HW119527  -0.061   0.871   2.182  0.3256  2.2145 -1.1847
 5865SOL    HW219528   0.072   0.813   2.224 -0.9910 -1.0617 -1.2381
 5866SOL     OW19529   0.866   0.361   1.285 -0.3418 -0.1232 -0.4006
 5866SOL    HW119530   0.801   0.382   1.351  0.3205 -0.2666  0.3188
 5866SOL    HW219531   0.950   0.381   1.327  0.2008 -2.0182 -0.4744
 5867SOL     OW19532   1.620   3.193   6.184  0.0766 -0.1256  0.2212
 5867SOL    HW119533   1.552   3.133   6.216 -1.4331  0.2029 -2.0934
 5867SOL    HW219534   1.680   3.136   6.136 -1.3807  0.0951 -2.0133
 5868SOL     OW19535   2.630   8.769   7.415 -0.1786  1.0360  0.4942
 5868SOL    HW119536   2.647   8.714   7.492 -0.3533  1.0118  0.5144
 5868SOL    HW219537   2.674   8.723   7.343 -1.0103  0.4438  0.3537
 5869SOL     OW19538   4.408   2.436   5.272 -0.3578  0.2155 -0.2903
 5869SOL    HW119539   4.491   2.398   5.300  0.7212  1.1663 -2.0415
 5869SOL    HW219540   4.348   2.362   5.268  0.9604 -0.8487 -0.9878
 5870SOL     OW19541   7.054   8.599   1.210 -0.2353 -0.2206  0.0622
 5870SOL    HW119542   7.130   8.610   1.154  0.2279  2.5757  1.1203
 5870SOL    HW219543   7.090   8.590   1.298 -1.0937  1.9641  0.6785
 5871SOL     OW19544   8.020   7.845   7.445  0.5200  0.0833 -0.3061
 5871SOL    HW119545   7.977   7.869   7.527 -1.1119 -0.0141 -1.0907
 5871SOL    HW219546   8.064   7.925   7.417 -0.5417  0.6979 -0.2895
 5872SOL     OW19547   6.444   2.619   2.645 -0.3484 -0.3629  0.1960
 5872SOL    HW119548   6.523   2.590   2.599 -0.1847 -0.4230  0.5149
 5872SOL    HW219549   6.461   2.600   2.737 -1.6920 -2.6095  0.0365
 5873SOL     OW19550   7.007   8.127   0.848 -0.0094  0.4625  0.0349
 5873SOL    HW119551   7.018   8.079   0.930 -0.3222 -0.4117 -0.4229
 5873SOL    HW219552   6.978   8.061   0.786 -0.4530  1.2540 -0.6120
 5874SOL     OW19553   2.281   6.813   7.925  0.3161 -0.0944 -0.0355
 5874SOL    HW119554   2.266   6.720   7.905  0.7754 -0.4417  1.1509
 5874SOL    HW219555   2.303   6.814   8.018 -1.5919  1.4325  0.4699
 5875SOL     OW19556   0.858   5.771   8.085  0.5957 -0.1510  0.0373
 5875SOL    HW119557   0.921   5.842   8.099  0.5134 -0.1407  0.3776
 5875SOL    HW219558   0.890   5.725   8.007 -0.0030  0.9619 -0.8847
 5876SOL     OW19559   1.379   0.980   2.188  0.1990 -0.5995  0.2661
 5876SOL    HW119560   1.391   1.068   2.153 -4.8331  0.4865  0.4887
 5876SOL    HW219561   1.379   0.923   2.111 -1.5134  0.4106 -0.5325
 5877SOL     OW19562   2.230   4.143   6.644 -0.1090  0.1235  0.2597
 5877SOL    HW119563   2.308   4.092   6.625 -0.5610 -0.0530 -1.2859
 5877SOL    HW219564   2.231   4.214   6.580 -1.0969  0.2524  0.3562
 5878SOL     OW19565   3.392   7.322   3.309  0.0289  0.1861 -0.3217
 5878SOL    HW119566   3.427   7.289   3.392 -0.3864 -0.9527 -0.5859
 5878SOL    HW219567   3.302   7.290   3.306  0.0233  0.2673 -1.1826
 5879SOL     OW19568   8.809   8.559   8.798  0.3109  0.3822  0.0613
 5879SOL    HW119569   8.746   8.629   8.813  2.4048  2.5254 -0.5864
 5879SOL    HW219570   8.804   8.543   8.703  1.1947  1.0633 -0.1119
 5880SOL     OW19571   7.248   2.322   3.664  0.2506 -0.2109  0.0805
 5880SOL    HW119572   7.281   2.261   3.729  0.2367  0.0798  0.3614
 5880SOL    HW219573   7.192   2.268   3.607 -0.5902 -0.2678  0.9326
 5881SOL     OW19574   3.805   0.278   8.568 -0.2079  0.2574  0.8091
 5881SOL    HW119575   3.842   0.362   8.594 -0.5014  0.0485  1.9119
 5881SOL    HW219576   3.801   0.227   8.648  1.5140 -1.4292 -0.0999
 5882SOL     OW19577   0.576   1.386   6.799 -0.0522 -0.1815  0.3076
 5882SOL    HW119578   0.503   1.448   6.803  1.0902  1.2793 -0.3372
 5882SOL    HW219579   0.654   1.442   6.803  1.0183 -1.5506 -0.7665
 5883SOL     OW19580   3.555   8.480   2.937 -0.2321  0.2052  0.2692
 5883SOL    HW119581   3.585   8.486   2.846 -1.1007  1.2022  0.0229
 5883SOL    HW219582   3.587   8.396   2.968  1.1354  0.3852 -0.5751
 5884SOL     OW19583   3.917   5.420   7.212 -0.2018  0.1665 -0.6331
 5884SOL    HW119584   3.984   5.474   7.170  0.0499 -1.0005 -1.7966
 5884SOL    HW219585   3.962   5.382   7.287  0.1834  0.0922 -0.8952
 5885SOL     OW19586   6.579   6.858   2.323 -0.2266 -0.5358  0.3484
 5885SOL    HW119587   6.572   6.923   2.393  0.7408  0.1039 -0.1205
 5885SOL    HW219588   6.506   6.799   2.337 -1.1941  0.7107  0.7475
 5886SOL     OW19589   3.485   5.911   6.713  0.4177 -0.8467 -0.1350
 5886SOL    HW119590   3.453   5.953   6.792 -0.2884 -0.7985 -0.4365
 5886SOL    HW219591   3.539   5.839   6.744  1.6118  0.2359  0.3911
 5887SOL     OW19592   5.636   6.946   6.066  0.3320  0.5444 -0.4918
 5887SOL    HW119593   5.639   6.863   6.113  0.5246  1.1778  0.6552
 5887SOL    HW219594   5.564   6.994   6.107  0.8541  1.3251 -0.4720
 5888SOL     OW19595   6.065   3.491   6.141  0.2747  0.2688  0.0340
 5888SOL    HW119596   6.104   3.507   6.055 -0.6517  0.6165 -0.3365
 5888SOL    HW219597   6.055   3.396   6.146  0.6653  0.2197 -0.0883
 5889SOL     OW19598   0.497   1.530   4.450  0.6410 -0.1237 -0.2242
 5889SOL    HW119599   0.438   1.459   4.474  1.7267 -0.1069  2.9678
 5889SOL    HW219600   0.583   1.500   4.478  1.3962  1.7397 -0.3940
 5890SOL     OW19601   3.956   3.358   5.167  0.3197 -0.0166 -0.1446
 5890SOL    HW119602   4.015   3.364   5.243 -1.6770  1.8690  1.3739
 5890SOL    HW219603   3.899   3.284   5.187  1.8237 -1.6203 -1.4518
 5891SOL     OW19604   7.975   6.734   3.490  0.3742 -0.0269  0.2722
 5891SOL    HW119605   7.998   6.824   3.513  0.6232 -0.0902  0.2757
 5891SOL    HW219606   7.884   6.724   3.518 -0.3066  0.8346 -1.4618
 5892SOL     OW19607   3.208   1.489   2.097  0.0992 -0.2335 -0.7951
 5892SOL    HW119608   3.251   1.568   2.130 -1.3207  0.3757 -0.3299
 5892SOL    HW219609   3.115   1.506   2.109 -0.2595 -1.7122 -1.3253
 5893SOL     OW19610   5.851   7.167   5.443  0.0144 -0.4426 -0.0366
 5893SOL    HW119611   5.861   7.217   5.362 -1.7291 -1.6877 -1.0848
 5893SOL    HW219612   5.832   7.233   5.510 -0.5552  0.4345 -1.0426
 5894SOL     OW19613   1.082   3.863   4.960 -0.7678  0.7744  0.0780
 5894SOL    HW119614   1.033   3.800   4.907 -0.7781  1.2265 -0.4579
 5894SOL    HW219615   1.104   3.815   5.040  0.4846 -0.3991 -0.9124
 5895SOL     OW19616   6.648   4.618   3.883  0.2002  0.7104 -0.0747
 5895SOL    HW119617   6.576   4.679   3.899 -1.2468 -1.1386  0.7988
 5895SOL    HW219618   6.673   4.587   3.970 -0.8702 -1.8547 -0.5842
 5896SOL     OW19619   6.703   0.301   0.790  0.1996  0.2008 -0.0871
 5896SOL    HW119620   6.645   0.361   0.837 -1.1158 -0.9309 -0.1918
 5896SOL    HW219621   6.736   0.352   0.716  1.6182  1.7290  1.5280
 5897SOL     OW19622   3.307   8.411   1.742 -0.1858 -0.1335  0.3971
 5897SOL    HW119623   3.363   8.337   1.719  1.4419  1.1243  0.0599
 5897SOL    HW219624   3.361   8.463   1.802 -1.6817  0.2649  1.4343
 5898SOL     OW19625   4.911   8.788   6.311  0.0674  0.4029  0.3202
 5898SOL    HW119626   4.827   8.762   6.350 -0.8404  0.5629 -1.4161
 5898SOL    HW219627   4.971   8.718   6.335 -1.4225 -1.5101 -1.2004
 5899SOL     OW19628   1.977   1.436   1.456  0.0722 -0.6035  0.2269
 5899SOL    HW119629   1.902   1.461   1.509  2.0002  0.9449  2.3885
 5899SOL    HW219630   1.941   1.373   1.393 -2.9101 -0.2627  1.4136
 5900SOL     OW19631   3.954   3.636   0.875  0.0785 -0.1769 -0.8025
 5900SOL    HW119632   3.859   3.642   0.867  0.3562  2.2144 -3.8449
 5900SOL    HW219633   3.978   3.712   0.929  0.2464 -1.6906  1.3864
 5901SOL     OW19634   5.486   7.499   5.852  0.2195 -0.5491  0.7282
 5901SOL    HW119635   5.461   7.430   5.914  0.7193 -0.0625  1.4972
 5901SOL    HW219636   5.424   7.570   5.871  0.9351 -0.0640  1.3021
 5902SOL     OW19637   1.557   7.379   4.898  0.1130  0.4626 -0.1831
 5902SOL    HW119638   1.599   7.456   4.936  1.7786  0.2429 -1.4317
 5902SOL    HW219639   1.464   7.395   4.908  0.4500  1.6843  1.4101
 5903SOL     OW19640   1.716   5.998   2.083  0.3520  0.2127  0.9238
 5903SOL    HW119641   1.743   6.052   2.157  0.1926  0.5151  0.7641
 5903SOL    HW219642   1.679   6.060   2.021  0.4696 -0.0429  0.5971
 5904SOL     OW19643   7.002   2.000   7.010 -0.5797 -0.2279 -0.4310
 5904SOL    HW119644   6.966   1.912   7.018 -1.6858  0.2864  0.4468
 5904SOL    HW219645   6.943   2.045   6.950 -0.0467 -0.0603 -0.8340
 5905SOL     OW19646   8.259   7.199   8.252 -0.7600 -0.0774 -0.0507
 5905SOL    HW119647   8.298   7.286   8.260  3.8963 -1.8306 -0.6410
 5905SOL    HW219648   8.217   7.184   8.337 -0.7004  2.2475  0.4723
 5906SOL     OW19649   2.506   7.471   3.560  0.4694 -0.3466  0.6284
 5906SOL    HW119650   2.514   7.421   3.479 -2.1691 -0.9089  0.6306
 5906SOL    HW219651   2.506   7.405   3.629 -0.3376 -0.1360  0.8391
 5907SOL     OW19652   7.923   5.332   4.379 -0.2278  0.0744  0.3954
 5907SOL    HW119653   7.959   5.421   4.374  0.0210  0.1184  2.2527
 5907SOL    HW219654   7.839   5.343   4.423 -0.4008 -0.5750  0.2334
 5908SOL     OW19655   8.575   0.858   0.879 -0.0717  0.0719  0.1550
 5908SOL    HW119656   8.633   0.783   0.884  0.8780  0.6147 -1.7468
 5908SOL    HW219657   8.523   0.854   0.959  0.7665 -1.9181  0.6495
 5909SOL     OW19658   7.426   1.975   1.586 -0.2537 -0.2102  0.4767
 5909SOL    HW119659   7.466   2.045   1.536 -1.6387  1.3702  1.4979
 5909SOL    HW219660   7.386   1.918   1.520 -0.4788  0.8203 -0.2986
 5910SOL     OW19661   0.852   3.648   6.097 -0.2950 -0.7964 -0.2075
 5910SOL    HW119662   0.808   3.701   6.163 -0.7006 -2.2773  0.7539
 5910SOL    HW219663   0.910   3.590   6.147  2.7085  0.9404 -1.4022
 5911SOL     OW19664   6.966   3.917   4.181  0.0331  1.1758  0.0432
 5911SOL    HW119665   7.014   3.838   4.157 -0.0797  1.5187 -1.4010
 5911SOL    HW219666   6.947   3.906   4.274 -0.0089 -0.5013 -0.1358
 5912SOL     OW19667   5.404   1.269   2.670  0.5078  0.2800  0.3084
 5912SOL    HW119668   5.339   1.301   2.608  0.7167  0.7544  0.3280
 5912SOL    HW219669   5.402   1.331   2.742 -0.0485 -0.5229  0.9951
 5913SOL     OW19670   3.774   1.806   8.371 -0.0742 -0.4247 -0.6459
 5913SOL    HW119671   3.690   1.846   8.390  0.0379  0.1707 -1.3597
 5913SOL    HW219672   3.789   1.744   8.443  1.0269  2.7212  2.0636
 5914SOL     OW19673   3.164   3.464   1.816 -0.0398 -0.2247  0.5796
 5914SOL    HW119674   3.078   3.420   1.808 -1.2475  2.1338 -0.4421
 5914SOL    HW219675   3.175   3.509   1.732  1.1094  1.4117  1.5595
 5915SOL     OW19676   1.987   5.875   3.257  0.0026  0.4664 -0.7990
 5915SOL    HW119677   2.021   5.786   3.268 -2.3184 -0.4763 -0.8146
 5915SOL    HW219678   2.048   5.916   3.195  0.8346 -1.2621 -1.1848
 5916SOL     OW19679   4.275   3.891   6.499 -0.3617 -0.2817 -0.0715
 5916SOL    HW119680   4.309   3.877   6.411 -0.2896 -0.9441  0.0568
 5916SOL    HW219681   4.325   3.964   6.534  1.9261 -2.0558  0.6133
 5917SOL     OW19682   5.240   7.879   1.283  0.8193  0.3466  0.4991
 5917SOL    HW119683   5.220   7.802   1.229  2.5239  0.4904 -0.4020
 5917SOL    HW219684   5.220   7.954   1.227 -0.2756  0.5923  1.1725
 5918SOL     OW19685   8.096   5.303   7.096 -0.1970  0.6702  0.2794
 5918SOL    HW119686   8.172   5.330   7.147 -0.8185  0.9556  1.0866
 5918SOL    HW219687   8.046   5.246   7.155 -0.9687  1.0671  0.0289
 5919SOL     OW19688   7.583   8.118   1.417  0.1216  0.3255 -0.1124
 5919SOL    HW119689   7.626   8.203   1.414  0.8334 -0.0308 -0.1605
 5919SOL    HW219690   7.655   8.055   1.422 -0.4190 -0.2175  1.2936
 5920SOL     OW19691   1.867   1.324   6.733 -0.0433 -0.6175  0.2581
 5920SOL    HW119692   1.951   1.286   6.705 -0.1767 -2.1406  1.7724
 5920SOL    HW219693   1.805   1.296   6.665  0.6663  0.8091 -1.0612
 5921SOL     OW19694   5.583   2.127   1.829 -0.1300  0.3376  0.0758
 5921SOL    HW119695   5.557   2.101   1.917 -0.9588 -0.8357 -0.4925
 5921SOL    HW219696   5.502   2.159   1.788  0.5572  2.4884  0.2415
 5922SOL     OW19697   3.812   8.333   3.434 -0.1685  0.1166  0.1883
 5922SOL    HW119698   3.872   8.297   3.368 -0.3591  2.5139 -1.4359
 5922SOL    HW219699   3.761   8.257   3.464  0.2872 -1.1778 -2.0557
 5923SOL     OW19700   8.365   1.731   6.955  0.1639  0.2237 -0.3074
 5923SOL    HW119701   8.458   1.755   6.950 -0.2444  1.8817 -0.1921
 5923SOL    HW219702   8.347   1.689   6.871  0.7604  0.8602 -0.7663
 5924SOL     OW19703   1.314   3.874   5.893 -0.2414 -0.4433 -0.1669
 5924SOL    HW119704   1.390   3.916   5.853 -0.6864 -0.5164 -1.1281
 5924SOL    HW219705   1.302   3.793   5.842 -0.3359 -0.9628  0.6532
 5925SOL     OW19706   2.480   3.441   2.364 -0.0804 -0.5996  0.3094
 5925SOL    HW119707   2.546   3.433   2.296  0.5657 -0.7949  0.9445
 5925SOL    HW219708   2.520   3.498   2.430 -0.3652 -1.0696  0.8999
 5926SOL     OW19709   3.037   3.616   2.494  0.2326 -0.3413 -0.4555
 5926SOL    HW119710   2.988   3.693   2.463 -0.8817 -0.6348  0.5294
 5926SOL    HW219711   3.123   3.651   2.516 -0.3941  0.7335  0.4036
 5927SOL     OW19712   0.118   1.413   7.586  0.0363  0.4440  0.1720
 5927SOL    HW119713   0.096   1.322   7.607 -1.8814  0.6474 -0.7829
 5927SOL    HW219714   0.208   1.409   7.554  0.0392 -1.0926  0.3125
 5928SOL     OW19715   7.838   5.980   0.264 -0.1417 -0.1979  0.0230
 5928SOL    HW119716   7.804   5.926   0.192 -0.0393  0.5496 -0.6066
 5928SOL    HW219717   7.833   6.069   0.230  0.4257  0.1169  0.7512
 5929SOL     OW19718   1.953   3.428   3.127  0.0018  0.0385  0.6136
 5929SOL    HW119719   1.904   3.509   3.115 -1.2638 -0.9476 -1.6434
 5929SOL    HW219720   1.940   3.380   3.045  1.7561 -1.9042  1.3683
 5930SOL     OW19721   8.712   7.699   5.409 -0.2048 -0.1370  0.7306
 5930SOL    HW119722   8.731   7.742   5.492 -0.7245 -0.7608  1.1880
 5930SOL    HW219723   8.698   7.771   5.347  0.6902  0.3308  1.0557
 5931SOL     OW19724   8.195   8.732   4.017 -0.3492 -0.5525  0.1597
 5931SOL    HW119725   8.133   8.743   3.945  0.3111 -2.0096 -0.6642
 5931SOL    HW219726   8.282   8.738   3.976  0.0531 -0.0978  1.0438
 5932SOL     OW19727   5.929   7.304   5.232 -0.4004 -0.4720  0.4071
 5932SOL    HW119728   6.010   7.260   5.205 -0.2974 -1.0911  1.6526
 5932SOL    HW219729   5.906   7.359   5.157  1.6029  0.3330  0.3132
 5933SOL     OW19730   3.480   1.530   4.170 -0.1513 -0.2626 -0.6957
 5933SOL    HW119731   3.518   1.578   4.244 -2.8511 -0.7261  1.1319
 5933SOL    HW219732   3.534   1.452   4.162  1.5303  0.8539 -0.7311
 5934SOL     OW19733   0.553   7.279   0.199  0.1275  0.6855  0.1254
 5934SOL    HW119734   0.601   7.202   0.169  0.6035 -0.8394  4.1530
 5934SOL    HW219735   0.461   7.256   0.188  0.2740  0.2658 -0.2527
 5935SOL     OW19736   3.994   1.460   8.865 -0.1901  0.3926 -0.6125
 5935SOL    HW119737   4.047   1.538   8.880  0.1932  0.4452 -2.1103
 5935SOL    HW219738   4.042   1.411   8.799 -0.6154 -0.9469  0.0353
 5936SOL     OW19739   0.407   8.430   4.114  1.0039  0.0481  0.0206
 5936SOL    HW119740   0.387   8.520   4.140 -0.1141  0.7590 -2.8917
 5936SOL    HW219741   0.432   8.387   4.195  0.0875  2.5762  1.7852
 5937SOL     OW19742   3.072   7.887   5.292 -0.0656 -0.2215  0.3203
 5937SOL    HW119743   3.010   7.910   5.361 -2.0981 -1.3931 -1.0035
 5937SOL    HW219744   3.082   7.967   5.241 -0.8406 -0.1180  0.3170
 5938SOL     OW19745   5.805   0.418   7.060  0.1191 -0.0167  0.0292
 5938SOL    HW119746   5.714   0.393   7.069 -0.0837  0.4015 -0.7511
 5938SOL    HW219747   5.813   0.500   7.110 -0.0190  0.1315 -0.1898
 5939SOL     OW19748   6.443   1.241   3.004  0.0204 -0.3824  0.7278
 5939SOL    HW119749   6.399   1.293   3.072 -1.0468 -0.8986  0.4483
 5939SOL    HW219750   6.406   1.153   3.013 -0.6423 -0.3148 -0.9260
 5940SOL     OW19751   4.667   3.625   3.884 -0.7987 -0.3083  0.1475
 5940SOL    HW119752   4.626   3.539   3.888 -0.5280 -0.4012  1.2005
 5940SOL    HW219753   4.600   3.686   3.914 -0.7189 -0.2565  0.2220
 5941SOL     OW19754   4.852   6.377   5.654  0.4704  0.1648 -0.4220
 5941SOL    HW119755   4.821   6.314   5.719 -0.4758  0.4989 -0.5397
 5941SOL    HW219756   4.778   6.389   5.595 -0.1580  2.9900  0.8003
 5942SOL     OW19757   5.977   6.385   0.241 -0.6727 -0.4984 -1.0023
 5942SOL    HW119758   6.048   6.382   0.177  1.2752 -1.8071  1.0720
 5942SOL    HW219759   5.996   6.463   0.293 -2.2877  0.6026 -1.9894
 5943SOL     OW19760   8.225   2.950   0.887  0.5214  0.3410  0.1395
 5943SOL    HW119761   8.299   3.010   0.891  0.0326  0.9838 -0.2153
 5943SOL    HW219762   8.159   2.989   0.945  1.0718 -1.1233  1.8355
 5944SOL     OW19763   8.422   6.722   3.906 -0.4291  0.0770  0.5810
 5944SOL    HW119764   8.414   6.709   3.812  1.5320 -1.7832  0.6019
 5944SOL    HW219765   8.407   6.635   3.944 -0.2862  0.6079  1.9187
 5945SOL     OW19766   0.781   3.113   8.287 -0.1774 -0.4220 -0.2912
 5945SOL    HW119767   0.864   3.077   8.255  0.5191  1.0533 -0.2324
 5945SOL    HW219768   0.788   3.109   8.382 -0.3977 -0.7912 -0.2915
 5946SOL     OW19769   5.942   2.576   8.259  0.1963 -0.3690 -0.3925
 5946SOL    HW119770   5.948   2.498   8.314 -0.4404  1.2269  2.0927
 5946SOL    HW219771   6.029   2.615   8.263  0.2755 -0.4912 -0.9124
 5947SOL     OW19772   5.454   0.438   7.735  0.1246 -0.1408  0.1826
 5947SOL    HW119773   5.538   0.447   7.780 -0.6037 -0.7365  1.7399
 5947SOL    HW219774   5.421   0.527   7.729  0.3913 -0.0154  0.5252
 5948SOL     OW19775   3.043   0.618   7.242  0.0831 -0.3342 -0.0160
 5948SOL    HW119776   3.055   0.709   7.218 -0.9815 -0.5113 -1.3427
 5948SOL    HW219777   2.956   0.595   7.209  0.8672 -2.2022 -0.9308
 5949SOL     OW19778   5.988   0.483   2.735 -0.5811 -0.2221  0.1781
 5949SOL    HW119779   5.913   0.534   2.705 -0.9948 -0.5543  0.6291
 5949SOL    HW219780   6.002   0.417   2.667 -1.6458 -1.1060  0.7779
 5950SOL     OW19781   4.011   7.972   1.069  0.1008 -0.5257  0.2125
 5950SOL    HW119782   4.050   8.020   1.142 -0.3208 -1.3927  1.0294
 5950SOL    HW219783   4.069   7.989   0.995  0.4521  0.4913  0.7081
 5951SOL     OW19784   8.033   5.594   4.178  0.4545  0.8455 -0.7193
 5951SOL    HW119785   8.023   5.680   4.135 -0.1402  0.0627 -2.2205
 5951SOL    HW219786   8.077   5.614   4.260  0.3031  2.6046 -1.0149
 5952SOL     OW19787   1.454   2.565   5.615  0.1883 -0.0798 -0.2497
 5952SOL    HW119788   1.529   2.512   5.643  0.6318  0.8542  0.3762
 5952SOL    HW219789   1.491   2.627   5.553  0.2520  1.3318  1.1303
 5953SOL     OW19790   5.125   2.799   1.865 -0.1253  0.1028  0.1864
 5953SOL    HW119791   5.069   2.819   1.790 -1.4201 -1.2490  0.7526
 5953SOL    HW219792   5.099   2.711   1.892  1.4263 -0.0648  1.2537
 5954SOL     OW19793   2.995   2.360   4.884 -0.0558  0.4784  0.1800
 5954SOL    HW119794   3.001   2.286   4.823 -1.2984  0.4069  0.1078
 5954SOL    HW219795   2.901   2.367   4.902  0.1161  1.6706  0.6523
 5955SOL     OW19796   0.039   5.773   2.461  0.1239 -0.6255 -0.4711
 5955SOL    HW119797   0.082   5.694   2.494  0.4493 -1.0045 -1.7695
 5955SOL    HW219798   0.064   5.778   2.369 -0.9215  0.3049 -0.7271
 5956SOL     OW19799   6.595   8.011   5.946  0.3668 -0.3277  0.1135
 5956SOL    HW119800   6.525   8.025   5.883  0.0203  1.4822  0.8420
 5956SOL    HW219801   6.550   8.003   6.030  0.9813  0.1766  0.5019
 5957SOL     OW19802   6.764   0.886   2.256 -0.0670 -0.4311 -0.0084
 5957SOL    HW119803   6.685   0.882   2.202 -0.6060  0.2521  0.7239
 5957SOL    HW219804   6.781   0.795   2.280  0.3012 -0.7783 -1.4891
 5958SOL     OW19805   4.776   7.680   3.262 -0.3907 -0.0888 -0.5996
 5958SOL    HW119806   4.820   7.641   3.337  0.0892  0.7365 -0.4406
 5958SOL    HW219807   4.833   7.753   3.236 -1.4234  0.6953 -0.7003
 5959SOL     OW19808   6.534   1.070   3.526  0.2764  0.0675  0.8414
 5959SOL    HW119809   6.598   1.091   3.458 -0.2333  0.0925  0.3590
 5959SOL    HW219810   6.458   1.123   3.504 -0.2057 -0.5749  0.9336
 5960SOL     OW19811   1.451   7.139   4.116  0.0631 -0.2965 -0.5888
 5960SOL    HW119812   1.389   7.066   4.116 -2.3778  1.4852  3.2683
 5960SOL    HW219813   1.513   7.118   4.186  0.9070  0.1869 -1.1744
 5961SOL     OW19814   5.195   0.393   6.448  0.4339  0.0894 -0.1435
 5961SOL    HW119815   5.131   0.331   6.412  0.4595 -0.6965  1.1237
 5961SOL    HW219816   5.172   0.401   6.541  0.0213  2.4917 -0.3726
 5962SOL     OW19817   8.091   2.938   7.861  0.8266  0.2826 -0.0549
 5962SOL    HW119818   8.078   2.850   7.825 -0.3823  0.4014  0.0381
 5962SOL    HW219819   8.174   2.933   7.909  1.3875 -0.4609 -1.0725
 5963SOL     OW19820   6.060   3.605   2.808 -0.1712  0.1805  0.4459
 5963SOL    HW119821   6.144   3.562   2.792  0.1375  1.2655 -1.1084
 5963SOL    HW219822   6.074   3.656   2.888  0.2265 -0.6504  0.9142
 5964SOL     OW19823   2.326   7.463   7.523 -0.3034 -0.0458 -0.6880
 5964SOL    HW119824   2.314   7.438   7.431  3.6215 -0.7741 -1.2194
 5964SOL    HW219825   2.346   7.381   7.567  1.1601  0.6559  0.0385
 5965SOL     OW19826   4.303   0.004   2.161  0.2736  0.2404  0.0444
 5965SOL    HW119827   4.237   0.023   2.228  0.5249 -0.2583  0.4376
 5965SOL    HW219828   4.366   0.076   2.168 -0.2301  0.7323 -0.3500
 5966SOL     OW19829   6.806   6.919   8.149 -0.3498 -0.0581  0.3314
 5966SOL    HW119830   6.772   6.965   8.072  0.0553  2.1404  1.4125
 5966SOL    HW219831   6.878   6.865   8.115 -1.7193 -1.0419 -1.1840
 5967SOL     OW19832   2.098   5.676   8.058 -0.2110  0.2183  0.4395
 5967SOL    HW119833   2.088   5.581   8.070  0.0443  0.3549  1.9489
 5967SOL    HW219834   2.053   5.714   8.134  0.9255  1.2499  0.6284
 5968SOL     OW19835   3.261   2.117   7.303 -0.3376 -0.4255  0.1937
 5968SOL    HW119836   3.208   2.041   7.277 -1.6373  0.1232  1.1103
 5968SOL    HW219837   3.245   2.125   7.397 -0.2488  0.9993  0.1021
 5969SOL     OW19838   0.525   2.894   8.838  0.1811  0.3566 -0.2642
 5969SOL    HW119839   0.494   2.985   8.840  0.8345  0.6142 -1.1143
 5969SOL    HW219840   0.547   2.875   8.929  1.0287  1.4148 -0.2245
 5970SOL     OW19841   5.312   0.529   5.906 -0.0291 -0.2343 -0.0268
 5970SOL    HW119842   5.285   0.484   5.827 -0.9150  1.9521 -1.0638
 5970SOL    HW219843   5.241   0.515   5.968  0.7139 -2.0381  0.4689
 5971SOL     OW19844   7.584   6.177   5.975  0.3393  0.0145  0.5551
 5971SOL    HW119845   7.635   6.202   5.897  0.1519 -2.1130 -0.3030
 5971SOL    HW219846   7.495   6.208   5.956  0.1875 -0.9051 -0.3257
 5972SOL     OW19847   1.925   0.489   3.168 -0.5156 -0.3373 -0.3690
 5972SOL    HW119848   1.995   0.551   3.146  0.9355 -1.3426  1.1830
 5972SOL    HW219849   1.970   0.408   3.189 -2.1733 -1.0863  0.5006
 5973SOL     OW19850   3.062   1.415   2.845  0.4722  0.3421 -1.0220
 5973SOL    HW119851   3.102   1.502   2.836 -0.2037  0.6812 -0.8352
 5973SOL    HW219852   2.968   1.433   2.851  0.0636 -0.5467 -3.5133
 5974SOL     OW19853   2.242   4.228   6.357  0.1006  0.1411  0.2294
 5974SOL    HW119854   2.186   4.204   6.284  0.1252  2.1550 -0.5169
 5974SOL    HW219855   2.197   4.301   6.400  0.6648 -0.2278  1.5112
 5975SOL     OW19856   8.661   6.134   8.007 -0.1944 -0.2943 -0.4539
 5975SOL    HW119857   8.577   6.163   7.971 -1.3395 -1.5184  1.0782
 5975SOL    HW219858   8.699   6.213   8.046 -1.1407  0.0620 -0.2223
 5976SOL     OW19859   6.776   1.407   7.727 -0.6955 -0.3165 -0.0481
 5976SOL    HW119860   6.686   1.392   7.697 -0.7509 -2.1900  0.8858
 5976SOL    HW219861   6.824   1.330   7.697  0.9139  1.1601 -1.5103
 5977SOL     OW19862   5.904   4.608   4.995 -0.1764  0.1681  0.1182
 5977SOL    HW119863   5.914   4.702   5.013 -0.7753 -0.0301  1.6401
 5977SOL    HW219864   5.895   4.568   5.081 -1.2900 -1.1256 -0.5540
 5978SOL     OW19865   5.461   7.843   0.464 -0.2996 -0.0909  0.9396
 5978SOL    HW119866   5.549   7.837   0.429 -0.0025  0.6668  1.5383
 5978SOL    HW219867   5.456   7.773   0.530 -0.8198 -1.4357 -0.4615
 5979SOL     OW19868   3.575   0.002   4.924  0.2151 -0.3522 -0.0487
 5979SOL    HW119869   3.598  -0.073   4.869  0.7359 -0.0646 -0.2353
 5979SOL    HW219870   3.606   0.078   4.875 -2.1082  0.1742 -0.8329
 5980SOL     OW19871   2.735   6.668   1.285  0.1680  0.0727  0.2018
 5980SOL    HW119872   2.705   6.729   1.217  1.5270  0.3546 -0.1722
 5980SOL    HW219873   2.825   6.648   1.261  0.2639 -0.8128  1.2428
 5981SOL     OW19874   6.505   4.294   4.617  0.2339 -0.2526  0.5591
 5981SOL    HW119875   6.478   4.230   4.551  2.0638  1.0770 -1.6057
 5981SOL    HW219876   6.451   4.371   4.599  1.5188  0.5008 -0.1423
 5982SOL     OW19877   3.699   1.764   2.364 -0.2818  0.4383  0.1501
 5982SOL    HW119878   3.610   1.773   2.329  0.1274  2.1287 -0.5312
 5982SOL    HW219879   3.693   1.799   2.453 -0.3667  0.2042  0.2383
 5983SOL     OW19880   7.777   0.660   1.313 -0.1373 -0.5132 -0.0802
 5983SOL    HW119881   7.700   0.714   1.299 -0.8740 -2.0958 -3.3102
 5983SOL    HW219882   7.743   0.571   1.320  1.2865 -1.4970 -3.4511
 5984SOL     OW19883   8.138   6.040   0.350  0.3381 -0.0526 -0.0534
 5984SOL    HW119884   8.045   6.021   0.351  0.4744 -0.7866  1.5428
 5984SOL    HW219885   8.176   5.982   0.416  1.6682  1.4602  0.6081
 5985SOL     OW19886   5.391   8.558   1.284 -0.4952  0.1485  0.4850
 5985SOL    HW119887   5.318   8.524   1.232  0.9604 -0.9347 -0.9544
 5985SOL    HW219888   5.416   8.640   1.240  1.7420 -1.5312 -1.6716
 5986SOL     OW19889   2.414   5.316   1.686 -0.0442 -0.5805  0.1510
 5986SOL    HW119890   2.475   5.275   1.625  0.7647  1.5886 -0.6034
 5986SOL    HW219891   2.340   5.341   1.632 -0.4912 -0.9463  0.5845
 5987SOL     OW19892   7.365   1.163   8.438 -0.0024  0.6248 -0.0962
 5987SOL    HW119893   7.279   1.133   8.408 -0.4643  2.2809 -0.5209
 5987SOL    HW219894   7.414   1.178   8.357  1.0666 -1.2364  0.1466
 5988SOL     OW19895   2.644   4.502   8.601 -0.0334 -0.2779  0.6769
 5988SOL    HW119896   2.701   4.512   8.677  1.3529 -0.1786 -0.3341
 5988SOL    HW219897   2.640   4.408   8.585 -1.6656 -0.4478  1.8080
 5989SOL     OW19898   4.231   0.504   3.834 -0.4398 -0.2725 -0.4441
 5989SOL    HW119899   4.256   0.503   3.741  0.2011  0.3704 -0.2903
 5989SOL    HW219900   4.282   0.433   3.873 -1.8410 -1.5340 -0.8458
 5990SOL     OW19901   6.667   0.341   0.121  0.2928  0.8609  0.1612
 5990SOL    HW119902   6.734   0.409   0.133  1.9517 -0.5818 -0.4715
 5990SOL    HW219903   6.716   0.264   0.091 -1.2703 -1.1254  2.3386
 5991SOL     OW19904   4.327   5.217   6.678  0.0828  0.2167  0.6061
 5991SOL    HW119905   4.344   5.137   6.629  0.8419  0.2066  0.8714
 5991SOL    HW219906   4.254   5.195   6.735  0.1529 -0.2220  0.5301
 5992SOL     OW19907   4.681   3.947   3.151  0.3525 -0.2280 -0.2913
 5992SOL    HW119908   4.706   3.855   3.159 -2.9030 -1.2530 -0.6326
 5992SOL    HW219909   4.684   3.981   3.241 -2.5755 -1.9665  0.5683
 5993SOL     OW19910   6.417   1.957   4.203 -0.3369  0.0383  0.1840
 5993SOL    HW119911   6.489   1.908   4.242  0.2256 -0.1275 -1.0195
 5993SOL    HW219912   6.458   2.031   4.159 -0.8953 -0.0495 -0.5077
 5994SOL     OW19913   4.557   5.149   5.079 -0.0795  0.0338 -0.8510
 5994SOL    HW119914   4.582   5.082   5.016  0.4064 -0.8555  0.2554
 5994SOL    HW219915   4.508   5.213   5.028 -0.2062 -0.9589 -2.0109
 5995SOL     OW19916   7.476   0.719   8.495 -0.6086  0.3510  0.7107
 5995SOL    HW119917   7.506   0.628   8.500 -1.6950 -0.0216  0.7211
 5995SOL    HW219918   7.528   0.757   8.425 -0.3174 -0.3585  0.5257
 5996SOL     OW19919   7.348   0.799   5.366  0.7706 -0.2421 -0.3212
 5996SOL    HW119920   7.319   0.870   5.308 -0.5415 -0.3441  0.1614
 5996SOL    HW219921   7.345   0.720   5.311 -0.3380 -0.3176 -0.1735
 5997SOL     OW19922   2.424   5.985   0.229  0.2350 -0.0092  0.4027
 5997SOL    HW119923   2.500   5.927   0.230  0.6017  0.4661  0.2369
 5997SOL    HW219924   2.445   6.053   0.165  0.2880  0.9365  1.3791
 5998SOL     OW19925   4.574   2.927   4.720  0.1047  0.3155  0.6019
 5998SOL    HW119926   4.645   2.959   4.775  0.3138  0.9791 -0.0515
 5998SOL    HW219927   4.521   3.004   4.701 -0.5037 -0.0797  0.6449
 5999SOL     OW19928   8.268   4.917   5.393 -0.3130  0.2110 -0.4072
 5999SOL    HW119929   8.228   4.853   5.334  0.8358 -1.0489  0.1275
 5999SOL    HW219930   8.236   4.892   5.480  0.8016 -0.1971 -0.0961
 6000SOL     OW19931   1.469   4.860   0.103 -0.2467  0.0112  0.2216
 6000SOL    HW119932   1.539   4.926   0.103 -0.5296  0.3267 -0.8357
 6000SOL    HW219933   1.500   4.792   0.044 -0.1846 -0.5715  0.9140
 6001SOL     OW19934   8.788   4.174   6.161  0.0205 -0.3270  0.3004
 6001SOL    HW119935   8.787   4.185   6.256 -1.0679 -1.6134  0.4725
 6001SOL    HW219936   8.877   4.199   6.135  0.2935  0.1851  1.6313
 6002SOL     OW19937   0.638   3.726   7.784 -0.2100  0.6312 -0.1299
 6002SOL    HW119938   0.728   3.744   7.810 -0.1976  0.2545  0.0835
 6002SOL    HW219939   0.598   3.813   7.777  0.4659  0.8780 -1.3351
 6003SOL     OW19940   6.840   2.305   0.275  0.0672 -0.4321  0.2062
 6003SOL    HW119941   6.774   2.342   0.217  0.6546  0.8196  0.3058
 6003SOL    HW219942   6.917   2.294   0.219  0.8588  1.4355  0.8517
 6004SOL     OW19943   1.043   4.994   0.387 -0.2688 -0.4511 -0.3196
 6004SOL    HW119944   0.982   5.065   0.408  1.3747  0.8634  0.2983
 6004SOL    HW219945   0.994   4.914   0.405 -2.5478  0.4361 -1.9953
 6005SOL     OW19946   3.998   8.702   2.984 -0.9257 -0.2624  0.7635
 6005SOL    HW119947   3.984   8.631   2.921  0.2569  0.4179 -0.3142
 6005SOL    HW219948   3.966   8.780   2.940  1.3516  0.4874  0.2724
 6006SOL     OW19949   1.139   5.500   3.753  0.5643  0.1055  0.1262
 6006SOL    HW119950   1.137   5.581   3.701  0.0008  0.3373  0.5064
 6006SOL    HW219951   1.053   5.461   3.740  0.3483  0.2589  1.0230
 6007SOL     OW19952   2.113   0.956   3.940  0.2940  0.0360 -0.8687
 6007SOL    HW119953   2.132   0.988   3.851 -0.3108 -0.2338 -1.1000
 6007SOL    HW219954   2.017   0.956   3.945  0.3255  1.8037  0.4309
 6008SOL     OW19955   0.269   5.360   3.821 -0.3369 -0.8140  0.4616
 6008SOL    HW119956   0.355   5.398   3.841  0.0503 -1.3677 -0.0990
 6008SOL    HW219957   0.285   5.304   3.745 -1.3372 -0.3947 -0.0811
 6009SOL     OW19958   1.807   8.674   2.602  0.1533 -0.0154  0.1016
 6009SOL    HW119959   1.842   8.754   2.643 -0.5577  0.5180 -0.3236
 6009SOL    HW219960   1.816   8.607   2.670 -0.3621  0.7020  0.8913
 6010SOL     OW19961   7.116   8.121   8.766  0.2386  0.5902  0.0598
 6010SOL    HW119962   7.142   8.170   8.688  0.8359  0.1739 -0.0050
 6010SOL    HW219963   7.176   8.046   8.769 -1.1987 -0.6214 -0.3190
 6011SOL     OW19964   0.439   7.892   3.679  0.0303 -0.6667  0.2502
 6011SOL    HW119965   0.428   7.976   3.635 -0.0079 -0.5490  0.4793
 6011SOL    HW219966   0.349   7.863   3.697  0.0501 -0.2589  1.0915
 6012SOL     OW19967   2.594   1.014   2.378  0.1859  0.0038 -0.2097
 6012SOL    HW119968   2.536   1.027   2.453 -0.3981  2.0626 -0.9614
 6012SOL    HW219969   2.677   0.987   2.417  0.1466  1.8250  1.3033
 6013SOL     OW19970   0.218   5.153   8.837 -0.4465 -0.4875  0.2915
 6013SOL    HW119971   0.125   5.142   8.857 -0.6548  0.1758 -0.2754
 6013SOL    HW219972   0.226   5.130   8.744  0.2579 -2.1299  0.7062
 6014SOL     OW19973   1.596   7.809   7.905 -0.0529  0.0544  0.6912
 6014SOL    HW119974   1.691   7.800   7.900 -0.1069 -0.0782 -0.2576
 6014SOL    HW219975   1.579   7.902   7.887 -0.0925  0.1412  1.1515
 6015SOL     OW19976   4.417   1.213   8.482 -0.1478 -0.5167  0.0017
 6015SOL    HW119977   4.476   1.139   8.469  1.0195  0.3044  0.4959
 6015SOL    HW219978   4.463   1.288   8.444 -0.8701  0.1461  0.4066
 6016SOL     OW19979   2.988   6.044   7.401 -0.5752 -0.0328  0.6151
 6016SOL    HW119980   3.060   6.012   7.456 -1.4228  0.5838  2.1510
 6016SOL    HW219981   2.935   6.097   7.460 -0.9419  1.6031 -1.0746
 6017SOL     OW19982   7.151   7.728   7.099 -0.3396  0.1799  0.0574
 6017SOL    HW119983   7.233   7.686   7.125 -0.6395 -0.4992 -0.0761
 6017SOL    HW219984   7.173   7.821   7.092  0.6775 -0.1134 -0.9873
 6018SOL     OW19985   6.444   0.137   1.216  0.9621 -0.1309 -0.0941
 6018SOL    HW119986   6.403   0.051   1.224 -0.0393 -0.1106 -3.5221
 6018SOL    HW219987   6.390   0.194   1.271  1.0062 -1.4409  1.3733
 6019SOL     OW19988   6.080   3.255   5.295  0.3248  0.0290  0.0714
 6019SOL    HW119989   6.117   3.169   5.316  0.5394  0.5088  1.7889
 6019SOL    HW219990   6.029   3.240   5.215 -0.1824 -1.8490  0.6927
 6020SOL     OW19991   5.742   6.239   0.301  0.5877  0.3815 -0.0879
 6020SOL    HW119992   5.667   6.293   0.277  0.4506  0.4860  0.5540
 6020SOL    HW219993   5.818   6.289   0.272  0.4114  0.2314 -0.8273
 6021SOL     OW19994   2.019   2.624   8.287 -0.1144  0.5262 -0.3697
 6021SOL    HW119995   2.069   2.564   8.342 -0.6125  0.8221  0.4187
 6021SOL    HW219996   1.993   2.572   8.211 -1.7793 -0.6795  0.9714
 6022SOL     OW19997   2.920   0.992   2.357  0.0068  0.6703 -0.3351
 6022SOL    HW119998   2.937   1.080   2.390 -1.5180  0.4033  1.3198
 6022SOL    HW219999   2.987   0.937   2.397  0.1077  0.8561 -0.2498
 6023SOL     OW20000   4.931   4.335   4.612  0.0227  0.0380 -0.5471
 6023SOL    HW120001   4.944   4.242   4.592  0.9967  0.3122 -1.2442
 6023SOL    HW220002   4.836   4.346   4.614 -0.1125 -1.0640 -0.0166
 6024SOL     OW20003   8.730   7.300   2.703 -0.1049 -0.1540  0.4352
 6024SOL    HW120004   8.693   7.214   2.722  3.0770 -1.4660  1.2070
 6024SOL    HW220005   8.772   7.290   2.617  2.5639 -0.2865  1.6533
 6025SOL     OW20006   3.425   0.907   6.030 -0.1828 -0.1285  0.1780
 6025SOL    HW120007   3.383   0.895   5.945  0.5051 -0.7356 -0.0853
 6025SOL    HW220008   3.438   0.819   6.064 -0.5549  0.1091  0.9739
 6026SOL     OW20009   2.528   2.224   6.265  0.0708 -0.3236  0.3495
 6026SOL    HW120010   2.527   2.214   6.170  1.4416 -1.3503  0.4157
 6026SOL    HW220011   2.458   2.167   6.296 -0.5104  0.1632 -0.0414
 6027SOL     OW20012   7.397   6.548   6.999  0.3229  0.5801  0.9135
 6027SOL    HW120013   7.389   6.631   6.953  1.2530 -0.0790 -0.5261
 6027SOL    HW220014   7.474   6.559   7.056  0.7509  0.5651  0.3518
 6028SOL     OW20015   3.448   3.759   8.024  0.2853 -0.0287  0.0887
 6028SOL    HW120016   3.511   3.730   7.958  0.6380  0.0486  0.3905
 6028SOL    HW220017   3.449   3.690   8.090  1.7689  1.0350  1.2470
 6029SOL     OW20018   1.562   1.605   8.573  0.2255  0.1508  0.0480
 6029SOL    HW120019   1.643   1.569   8.537 -0.9931 -1.1401 -1.5433
 6029SOL    HW220020   1.526   1.658   8.503  0.5623  2.2998  1.3948
 6030SOL     OW20021   6.256   6.184   4.949  0.0211 -0.5446 -0.0849
 6030SOL    HW120022   6.255   6.102   4.998  0.6975 -1.2105 -1.1289
 6030SOL    HW220023   6.164   6.211   4.945 -0.1296 -0.8702  0.8717
 6031SOL     OW20024   5.212   7.560   7.394 -0.1302  0.5329 -0.0576
 6031SOL    HW120025   5.171   7.570   7.480  0.3913 -0.4309  0.3160
 6031SOL    HW220026   5.161   7.492   7.351 -0.1928  0.7883 -0.3843
 6032SOL     OW20027   4.043   7.493   2.109 -0.0434 -0.5515 -0.0135
 6032SOL    HW120028   4.095   7.498   2.190  1.2852  1.2272 -0.8901
 6032SOL    HW220029   4.097   7.441   2.049 -0.8495 -1.5420  0.1084
 6033SOL     OW20030   7.011   1.527   5.228 -0.5123  0.1588 -0.1058
 6033SOL    HW120031   6.989   1.588   5.298  0.3841  0.8555 -0.4188
 6033SOL    HW220032   6.939   1.535   5.166  0.3962  2.2173 -0.9866
 6034SOL     OW20033   2.717   4.861   0.934 -0.1723  0.1172  0.8032
 6034SOL    HW120034   2.757   4.787   0.981  1.7476  0.5936 -0.0005
 6034SOL    HW220035   2.726   4.838   0.841  0.6233  1.4125  0.5345
 6035SOL     OW20036   5.248   2.518   5.787  0.4791  0.6299  0.4510
 6035SOL    HW120037   5.185   2.586   5.810 -0.2716  0.3175 -0.6353
 6035SOL    HW220038   5.197   2.437   5.784  0.5856  0.5832 -1.8437
 6036SOL     OW20039   3.139   7.444   5.173  0.0297  0.2981 -0.3103
 6036SOL    HW120040   3.211   7.507   5.174  0.2102  0.2111  2.6329
 6036SOL    HW220041   3.182   7.358   5.172 -0.0936  0.2435 -0.7780
 6037SOL     OW20042   4.808   7.979   3.299  0.1832  0.6187  0.3155
 6037SOL    HW120043   4.855   8.057   3.328 -0.8054  1.4187 -0.2038
 6037SOL    HW220044   4.744   7.963   3.368  1.9022 -1.1671  1.6226
 6038SOL     OW20045   6.147   7.480   8.833  0.5141  0.0955  0.1515
 6038SOL    HW120046   6.188   7.536   8.899 -0.1617  0.2307  0.4590
 6038SOL    HW220047   6.188   7.508   8.751  0.4532  0.7926  0.3466
 6039SOL     OW20048   0.637   1.512   3.541  0.1072 -0.8222  0.0163
 6039SOL    HW120049   0.669   1.556   3.463 -2.2677  1.6780  0.2788
 6039SOL    HW220050   0.669   1.567   3.614 -0.5827 -1.1354  0.5651
 6040SOL     OW20051   6.238   1.592   4.363 -0.3008  0.2926  0.1781
 6040SOL    HW120052   6.188   1.629   4.436 -1.3611 -0.3094 -0.2201
 6040SOL    HW220053   6.324   1.571   4.400 -0.8094  0.0506  1.2389
 6041SOL     OW20054   7.598   1.291   3.882  0.1314  0.0006 -0.1923
 6041SOL    HW120055   7.675   1.328   3.924  1.2237 -1.4648 -0.8368
 6041SOL    HW220056   7.594   1.334   3.797 -0.3225  0.7457  0.1918
 6042SOL     OW20057   4.298   8.015   7.676 -0.0285  0.4456  0.4413
 6042SOL    HW120058   4.333   7.961   7.605 -0.3211  0.5927  0.1849
 6042SOL    HW220059   4.366   8.012   7.743  0.3582  0.5034  0.0554
 6043SOL     OW20060   1.423   5.067   3.183 -0.1302 -0.1133 -0.1095
 6043SOL    HW120061   1.358   5.138   3.187 -0.1270 -0.0570 -0.9595
 6043SOL    HW220062   1.429   5.035   3.273 -1.4597 -0.2216 -0.0403
 6044SOL     OW20063   6.832   4.576   6.818  0.2736 -0.0824  0.4680
 6044SOL    HW120064   6.912   4.583   6.869 -0.4545  0.6648  1.5607
 6044SOL    HW220065   6.764   4.555   6.882 -0.3407 -1.2155 -0.5003
 6045SOL     OW20066   2.833   7.185   4.935  0.4006  0.2123 -0.1642
 6045SOL    HW120067   2.785   7.109   4.902  0.7274  0.2193 -0.6768
 6045SOL    HW220068   2.807   7.256   4.877  0.6676  0.3197 -0.1554
 6046SOL     OW20069   8.393   7.366   5.630 -0.2539  1.3780  0.3328
 6046SOL    HW120070   8.463   7.401   5.575 -0.7478  3.3431  0.8754
 6046SOL    HW220071   8.337   7.318   5.569  0.7984  0.9395 -0.3313
 6047SOL     OW20072   4.476   0.163   5.419  0.3108  0.3690  0.2213
 6047SOL    HW120073   4.493   0.207   5.503  1.1725  1.2922 -0.4182
 6047SOL    HW220074   4.464   0.234   5.356  0.6873 -0.3171 -0.6443
 6048SOL     OW20075   4.513   5.113   7.216 -0.3206 -0.1948  0.5059
 6048SOL    HW120076   4.592   5.167   7.210  0.7366 -1.8020 -1.7782
 6048SOL    HW220077   4.483   5.124   7.306  1.5243  1.8052  0.9693
 6049SOL     OW20078   4.003   1.177   8.797  0.7863 -0.1024 -0.3691
 6049SOL    HW120079   4.049   1.233   8.734  2.4084  0.4932  1.2557
 6049SOL    HW220080   4.060   1.101   8.806  0.3664 -0.3629  0.0897
 6050SOL     OW20081   4.131   3.860   1.079  0.1564  0.1350  0.5809
 6050SOL    HW120082   4.181   3.920   1.023 -0.0330 -1.4147 -1.3562
 6050SOL    HW220083   4.189   3.844   1.154  0.6009  1.9452  0.6792
 6051SOL     OW20084   1.322   6.974   6.845  0.1398  0.5757  0.6624
 6051SOL    HW120085   1.361   6.904   6.792  1.3380  2.0670 -0.5144
 6051SOL    HW220086   1.355   6.958   6.933  0.1993 -0.4615  0.4694
 6052SOL     OW20087   7.610   5.972   2.263 -0.1886 -0.3496 -0.3736
 6052SOL    HW120088   7.577   5.942   2.178  2.0532 -0.2453 -1.3671
 6052SOL    HW220089   7.703   5.947   2.262  0.5557  2.1004  0.9003
 6053SOL     OW20090   4.637   8.736   0.889  0.2550 -0.1304  0.1183
 6053SOL    HW120091   4.713   8.698   0.844 -0.0688 -0.0325 -0.5290
 6053SOL    HW220092   4.645   8.830   0.875 -0.0858 -0.1328 -0.1351
 6054SOL     OW20093   5.951   0.840   3.701 -0.1554 -0.0449  0.4053
 6054SOL    HW120094   6.011   0.915   3.700 -1.2601  0.9056  1.6584
 6054SOL    HW220095   5.866   0.876   3.676 -0.6514 -0.9509  0.7223
 6055SOL     OW20096   5.357   6.518   6.447 -0.0573 -0.0899  0.1582
 6055SOL    HW120097   5.332   6.606   6.419 -0.1584  0.1752  1.0315
 6055SOL    HW220098   5.295   6.497   6.517 -0.0843 -0.8889 -0.1024
 6056SOL     OW20099   2.566   0.674   4.467 -0.0345 -0.5509  0.1375
 6056SOL    HW120100   2.515   0.726   4.529  0.0074 -1.3657  0.8693
 6056SOL    HW220101   2.501   0.626   4.417 -0.1959  1.6370 -1.9116
 6057SOL     OW20102   6.909   4.855   4.427 -0.3795  0.3951  0.2930
 6057SOL    HW120103   6.915   4.928   4.489  0.5914 -0.7961  1.6627
 6057SOL    HW220104   6.985   4.800   4.447 -0.1381 -0.1423 -1.8543
 6058SOL     OW20105   4.434   8.050   6.256  0.1159  0.2601 -0.0309
 6058SOL    HW120106   4.352   8.002   6.253 -0.0968  0.6538 -0.8007
 6058SOL    HW220107   4.471   8.041   6.168  0.1202  1.3966 -0.1666
 6059SOL     OW20108   1.610   2.060   1.109  0.3484 -0.6111 -0.7700
 6059SOL    HW120109   1.552   1.986   1.092 -0.7341 -0.1745  0.8236
 6059SOL    HW220110   1.551   2.131   1.133  1.5277 -0.2484  1.2360
 6060SOL     OW20111   5.225   1.716   2.284  0.0996 -0.1818  0.2130
 6060SOL    HW120112   5.312   1.682   2.262  0.0242 -0.8178  0.8474
 6060SOL    HW220113   5.164   1.650   2.253 -0.0462 -0.7060  1.5337
 6061SOL     OW20114   6.498   6.537   6.446  0.1117  0.5051  0.3749
 6061SOL    HW120115   6.439   6.542   6.371 -1.8774  2.1613  1.9205
 6061SOL    HW220116   6.552   6.616   6.440  0.7800  0.0359  0.0780
 6062SOL     OW20117   4.680   6.467   8.600  0.5414  0.5684 -0.2553
 6062SOL    HW120118   4.771   6.438   8.601  0.3045 -0.2127 -0.8834
 6062SOL    HW220119   4.686   6.563   8.599  1.4350  0.5858 -3.6495
 6063SOL     OW20120   6.232   2.915   3.751 -0.8176 -0.3673  0.4902
 6063SOL    HW120121   6.231   3.010   3.765  0.3206  0.0045 -1.5522
 6063SOL    HW220122   6.143   2.895   3.721 -0.7424  0.2740 -0.1941
 6064SOL     OW20123   8.652   3.123   6.689  0.6359  0.1149  0.0349
 6064SOL    HW120124   8.639   3.132   6.783 -0.3032  0.4961 -0.1226
 6064SOL    HW220125   8.720   3.055   6.681 -1.5050 -2.2980  0.9413
 6065SOL     OW20126   3.026   2.200   1.514 -0.3714 -0.0011  0.7734
 6065SOL    HW120127   3.075   2.278   1.540 -1.7490  0.8098  1.0302
 6065SOL    HW220128   3.013   2.152   1.596  0.6890 -0.6444  0.5779
 6066SOL     OW20129   6.534   4.814   6.017  0.5084 -0.0781 -0.2317
 6066SOL    HW120130   6.573   4.773   6.094  0.9591 -1.2235 -1.0292
 6066SOL    HW220131   6.495   4.741   5.968 -1.8819  0.9100  0.0655
 6067SOL     OW20132   5.698   6.784   5.180  0.1956  0.1693  0.6418
 6067SOL    HW120133   5.689   6.790   5.275  2.3170 -0.9588  0.9669
 6067SOL    HW220134   5.716   6.691   5.163  0.1569  0.3989 -0.8455
 6068SOL     OW20135   8.181   3.369   3.247 -0.1350  0.6150  0.4651
 6068SOL    HW120136   8.238   3.323   3.184  0.9396  1.1286  1.0266
 6068SOL    HW220137   8.192   3.320   3.329  0.2443  1.2580  0.8114
 6069SOL     OW20138   3.610   5.898   1.160  0.4286 -0.4222  0.4793
 6069SOL    HW120139   3.600   5.847   1.079 -0.5366 -0.9234  0.8946
 6069SOL    HW220140   3.699   5.934   1.155  0.8660 -1.5386 -0.1765
 6070SOL     OW20141   3.160   1.661   7.339 -0.3373 -0.1534 -0.2377
 6070SOL    HW120142   3.214   1.660   7.260  0.7063 -2.1994  0.4090
 6070SOL    HW220143   3.222   1.642   7.410 -1.4661  0.2402  0.8940
 6071SOL     OW20144   0.557   8.240   8.576 -0.3516 -0.2264 -0.1316
 6071SOL    HW120145   0.535   8.158   8.619 -1.2490 -0.7364 -1.4953
 6071SOL    HW220146   0.591   8.296   8.646  0.1192 -1.6825  0.8490
 6072SOL     OW20147   0.167   8.441   5.101  0.3049  0.9294 -0.1370
 6072SOL    HW120148   0.240   8.396   5.059  0.1672  1.0460 -0.5141
 6072SOL    HW220149   0.171   8.415   5.193  1.1522  1.3654 -0.0374
 6073SOL     OW20150   6.235   4.547   6.931 -0.4314 -0.4164 -0.1137
 6073SOL    HW120151   6.202   4.628   6.892 -1.4475 -0.1655  1.2091
 6073SOL    HW220152   6.230   4.482   6.860 -4.1795 -0.5043  0.0563
 6074SOL     OW20153   5.616   0.141   6.331 -0.2191 -0.6799 -0.0137
 6074SOL    HW120154   5.599   0.118   6.422 -3.5528  1.1055  0.0011
 6074SOL    HW220155   5.604   0.236   6.328  0.3252 -0.6347 -2.2074
 6075SOL     OW20156   6.037   4.733   2.748 -0.4059 -0.3786 -0.3533
 6075SOL    HW120157   5.959   4.769   2.706  0.2022  1.7991  0.2581
 6075SOL    HW220158   6.101   4.725   2.677 -0.1099  1.1523 -0.3019
 6076SOL     OW20159   3.678   3.893   2.304  0.0603  0.5553 -0.5345
 6076SOL    HW120160   3.730   3.969   2.329 -1.3423  0.7812  2.0543
 6076SOL    HW220161   3.612   3.928   2.245  0.1040  1.1396 -0.2479
 6077SOL     OW20162   8.319   5.216   5.439  0.3252  0.1558  0.0377
 6077SOL    HW120163   8.338   5.224   5.532  1.4248  1.7260 -0.2892
 6077SOL    HW220164   8.318   5.121   5.423  2.3633 -0.1168  1.2087
 6078SOL     OW20165   5.986   7.677   4.179 -0.0841  0.2014 -0.2112
 6078SOL    HW120166   6.009   7.592   4.141 -0.1536  0.5736 -1.1157
 6078SOL    HW220167   6.026   7.676   4.265  2.2148  0.2917 -1.2008
 6079SOL     OW20168   3.470   1.348   7.411 -0.6276  0.3123  0.0415
 6079SOL    HW120169   3.439   1.275   7.463 -0.7959  0.7033  0.5006
 6079SOL    HW220170   3.442   1.426   7.459 -0.5241  0.6814 -0.4773
 6080SOL     OW20171   4.798   5.871   3.432  0.2640 -0.4959 -0.0807
 6080SOL    HW120172   4.796   5.925   3.511  0.0865 -1.1123  0.3368
 6080SOL    HW220173   4.735   5.914   3.373 -1.9654 -1.7275  1.2553
 6081SOL     OW20174   7.225   7.647   8.666 -0.2783  0.0426  0.2560
 6081SOL    HW120175   7.317   7.671   8.677  0.0695 -1.0261 -0.1817
 6081SOL    HW220176   7.198   7.689   8.584 -0.1773  0.3137  0.3600
 6082SOL     OW20177   7.041   6.585   1.591 -0.4420 -0.1278 -0.1490
 6082SOL    HW120178   6.967   6.527   1.607  0.2015 -0.4348  1.9661
 6082SOL    HW220179   7.102   6.531   1.540 -0.6767 -0.6724  0.1320
 6083SOL     OW20180   5.137   0.975   5.472 -0.7180 -0.0022  0.5436
 6083SOL    HW120181   5.062   0.918   5.490 -1.2833  0.4232 -0.4015
 6083SOL    HW220182   5.104   1.064   5.483  0.1817  0.1918  2.0901
 6084SOL     OW20183   2.459   6.146   7.288  0.5387 -0.6452 -0.1084
 6084SOL    HW120184   2.432   6.119   7.201  2.1387  0.4571 -1.0083
 6084SOL    HW220185   2.524   6.081   7.314  0.9912 -0.2852 -0.3082
 6085SOL     OW20186   5.497   7.793   2.151  0.1005 -0.0634  0.4483
 6085SOL    HW120187   5.583   7.783   2.110  0.1583 -0.8952  0.7543
 6085SOL    HW220188   5.436   7.757   2.087  0.1712 -1.1735  0.9798
 6086SOL     OW20189   3.952   8.239   8.019 -0.0041  0.4162 -0.2816
 6086SOL    HW120190   3.931   8.333   8.017  0.7674  0.5944 -1.3443
 6086SOL    HW220191   3.890   8.199   7.958 -0.0256  0.3060 -0.1870
 6087SOL     OW20192   7.738   2.548   1.909 -0.2952 -0.0420  0.8551
 6087SOL    HW120193   7.796   2.623   1.917  0.3321 -0.5345  0.9942
 6087SOL    HW220194   7.671   2.562   1.976 -0.8228  0.9376  0.1540
 6088SOL     OW20195   8.549   3.413   4.751  1.1055 -0.1530  0.2778
 6088SOL    HW120196   8.584   3.332   4.712  2.5369  1.1521 -1.3355
 6088SOL    HW220197   8.459   3.391   4.776  1.1701 -1.9877 -0.8998
 6089SOL     OW20198   2.436   3.603   2.980  0.1023  0.2182  0.4253
 6089SOL    HW120199   2.358   3.548   2.988  1.1577 -1.0943  2.5174
 6089SOL    HW220200   2.435   3.631   2.888 -1.1245 -2.3868 -0.4817
 6090SOL     OW20201   5.604   4.962   5.680  0.2644 -0.7171  0.3493
 6090SOL    HW120202   5.660   4.908   5.624  0.0811 -1.6917  1.0766
 6090SOL    HW220203   5.524   4.974   5.630  0.6371 -0.3736 -0.1784
 6091SOL     OW20204   0.347   3.672   2.730 -0.3703  0.5009 -0.0414
 6091SOL    HW120205   0.440   3.683   2.709 -0.5228  0.1368 -0.9659
 6091SOL    HW220206   0.311   3.761   2.726 -0.0855  0.6270  0.1967
 6092SOL     OW20207   1.654   2.431   0.846  0.3201 -0.1339 -0.0214
 6092SOL    HW120208   1.591   2.380   0.896  1.1503  0.2875  1.5372
 6092SOL    HW220209   1.609   2.513   0.826  0.0432 -0.2218  0.2432
 6093SOL     OW20210   6.548   4.562   2.597  0.7373  0.1211  0.0521
 6093SOL    HW120211   6.544   4.470   2.623 -0.3309  0.3162  0.6147
 6093SOL    HW220212   6.467   4.578   2.549  0.3399  1.0606  0.9783
 6094SOL     OW20213   0.283   7.846   2.697  0.1095  0.7380 -0.2204
 6094SOL    HW120214   0.326   7.915   2.748 -1.5629 -0.0032  2.3560
 6094SOL    HW220215   0.251   7.891   2.618 -0.4218  2.8020  1.0898
 6095SOL     OW20216   0.391   6.045   5.947 -0.0111  0.4969 -0.3990
 6095SOL    HW120217   0.395   5.981   6.018  0.8716 -0.8635 -1.6328
 6095SOL    HW220218   0.362   6.126   5.990  0.4498 -0.2846  1.4956
 6096SOL     OW20219   0.248   5.139   8.123 -0.2130 -0.0200 -0.5098
 6096SOL    HW120220   0.246   5.233   8.138  1.0234  0.3981 -2.5087
 6096SOL    HW220221   0.323   5.125   8.064 -1.3029 -2.0196 -1.5685
 6097SOL     OW20222   7.108   2.073   7.878  0.0296  0.1895 -0.2160
 6097SOL    HW120223   7.126   2.149   7.823  1.7694  0.7789  1.0959
 6097SOL    HW220224   7.130   1.998   7.824  0.9670  0.7344 -0.6074
 6098SOL     OW20225   8.710   7.546   2.410  0.3320  0.0415  0.4948
 6098SOL    HW120226   8.660   7.607   2.355  0.3422  0.4004  0.8739
 6098SOL    HW220227   8.643   7.501   2.462  0.1460 -1.6807 -1.1297
 6099SOL     OW20228   0.184   3.990   6.212  0.6769 -0.6845  0.1938
 6099SOL    HW120229   0.175   4.070   6.160 -0.0073 -0.2764  0.9200
 6099SOL    HW220230   0.217   3.924   6.150  0.2432 -0.1101 -0.6565
 6100SOL     OW20231   6.210   5.608   2.580  0.0494 -0.6789  0.0321
 6100SOL    HW120232   6.279   5.545   2.601 -0.0282 -0.8549 -0.2260
 6100SOL    HW220233   6.181   5.582   2.492 -0.6364 -0.8752  0.3111
 6101SOL     OW20234   3.692   5.199   4.958 -0.2152  0.0927  0.3624
 6101SOL    HW120235   3.632   5.125   4.966 -0.0220  0.1256  2.6326
 6101SOL    HW220236   3.777   5.164   4.987 -0.0925  1.1428  1.3268
 6102SOL     OW20237   2.139   1.998   7.055 -0.0152 -0.5630  0.0707
 6102SOL    HW120238   2.223   1.968   7.021  0.3849 -0.6946  1.1181
 6102SOL    HW220239   2.113   2.070   6.997  1.3223  0.1632  0.3258
 6103SOL     OW20240   1.928   2.647   7.719 -0.4154 -0.4891 -0.1779
 6103SOL    HW120241   2.008   2.696   7.736  0.4573 -1.4796 -1.2973
 6103SOL    HW220242   1.860   2.714   7.714  0.3892  0.3994  0.4707
 6104SOL     OW20243   0.614   7.394   4.615 -0.4635  0.1726 -0.6610
 6104SOL    HW120244   0.601   7.465   4.678  1.0762  2.3138 -2.5957
 6104SOL    HW220245   0.566   7.320   4.652 -0.4688  1.5923  2.4814
 6105SOL     OW20246   5.038   8.724   3.072  0.4638  0.1286 -0.1231
 6105SOL    HW120247   5.122   8.685   3.045  0.1212 -0.1254 -0.8560
 6105SOL    HW220248   5.013   8.778   2.997 -0.7729 -1.0023 -0.5626
 6106SOL     OW20249   7.468   7.573   7.787 -0.2875 -0.0051  0.5264
 6106SOL    HW120250   7.412   7.643   7.819 -0.9870 -0.2387 -0.1521
 6106SOL    HW220251   7.496   7.602   7.700  1.6241  0.6448  1.2913
 6107SOL     OW20252   2.231   1.659   0.585 -0.0250 -0.0018 -0.7211
 6107SOL    HW120253   2.207   1.635   0.675  1.9483  0.3332 -0.0529
 6107SOL    HW220254   2.203   1.751   0.577 -0.9170 -0.2670 -0.7404
 6108SOL     OW20255   1.970   3.333   3.885  0.6017  0.4569  0.2402
 6108SOL    HW120256   2.049   3.279   3.885  0.1765 -0.1868 -0.3808
 6108SOL    HW220257   1.898   3.271   3.871  0.0311  1.0916  0.3024
 6109SOL     OW20258   6.832   0.180   8.334  0.9195  0.3190  0.3764
 6109SOL    HW120259   6.777   0.245   8.378 -0.0286  0.3235 -0.7842
 6109SOL    HW220260   6.916   0.225   8.321  0.0460  1.6164 -1.0766
 6110SOL     OW20261   7.345   4.341   0.832  0.2624 -0.1827  0.1513
 6110SOL    HW120262   7.276   4.296   0.785 -0.3930 -0.3027  1.2063
 6110SOL    HW220263   7.388   4.395   0.765 -0.8306 -0.1104 -0.5183
 6111SOL     OW20264   3.071   7.053   4.078  0.2003  0.6955 -0.2967
 6111SOL    HW120265   3.002   7.055   4.143  0.0963  0.4234 -0.3963
 6111SOL    HW220266   3.145   7.010   4.122  0.2545  0.8493 -0.2383
 6112SOL     OW20267   4.698   3.182   2.188  0.7635 -0.4933  0.5485
 6112SOL    HW120268   4.628   3.200   2.250 -0.4084 -2.9177  0.0694
 6112SOL    HW220269   4.749   3.112   2.228  1.2490 -0.6307 -0.2760
 6113SOL     OW20270   4.111   4.582   6.578 -0.8125 -0.6219 -0.4925
 6113SOL    HW120271   4.176   4.648   6.555 -0.8505  0.2854  1.8267
 6113SOL    HW220272   4.160   4.500   6.578 -0.1577 -0.2439 -0.7785
 6114SOL     OW20273   5.835   3.817   2.510 -0.2076 -0.2550  0.1766
 6114SOL    HW120274   5.764   3.763   2.476 -1.1955  0.9109  0.3030
 6114SOL    HW220275   5.835   3.895   2.454 -0.0441  0.4366  1.1139
 6115SOL     OW20276   7.967   2.910   5.261  0.2916  0.2240 -0.3129
 6115SOL    HW120277   7.992   2.832   5.311  0.4234 -0.4906 -1.4621
 6115SOL    HW220278   7.905   2.956   5.318  2.2394  0.7209  1.5300
 6116SOL     OW20279   2.546   8.868   4.711  0.5366 -0.1736 -0.5686
 6116SOL    HW120280   2.558   8.789   4.658 -1.3090 -0.0787 -1.1941
 6116SOL    HW220281   2.496   8.928   4.656  0.0287  0.5816  0.6555
 6117SOL     OW20282   2.854   2.491   5.372 -0.1644 -0.3666  0.0102
 6117SOL    HW120283   2.892   2.537   5.298  0.7011 -0.9151  0.1055
 6117SOL    HW220284   2.774   2.451   5.337  0.7930 -1.5191 -0.9034
 6118SOL     OW20285   3.677   3.128   6.207 -0.0015 -0.3566 -0.3105
 6118SOL    HW120286   3.702   3.165   6.291  1.1337 -1.1856 -0.2592
 6118SOL    HW220287   3.608   3.066   6.227  1.7275 -2.1749  0.3662
 6119SOL     OW20288   7.891   4.049   3.697  0.2417 -0.6076 -0.2917
 6119SOL    HW120289   7.915   4.008   3.615 -0.3849  1.0243 -1.3528
 6119SOL    HW220290   7.881   3.977   3.759 -1.1373 -2.0789 -2.1269
 6120SOL     OW20291   8.454   2.319   3.225 -0.7648  0.3726  0.0725
 6120SOL    HW120292   8.546   2.329   3.199 -0.9294  2.0433  0.0819
 6120SOL    HW220293   8.418   2.258   3.161  0.7421 -1.7139  1.0663
 6121SOL     OW20294   1.033   3.861   7.807 -0.9091 -0.3371 -0.2508
 6121SOL    HW120295   1.069   3.949   7.817 -1.8798  0.2086 -1.3042
 6121SOL    HW220296   0.943   3.868   7.839 -2.1383 -0.0185 -3.4350
 6122SOL     OW20297   6.431   4.321   7.426  0.3533 -0.2519  0.1850
 6122SOL    HW120298   6.336   4.324   7.416  0.2299 -1.1907  0.9177
 6122SOL    HW220299   6.445   4.289   7.515  1.3273 -2.3064 -0.6157
 6123SOL     OW20300   6.486   8.352   2.411 -0.4738  0.0411  0.0060
 6123SOL    HW120301   6.451   8.304   2.336  0.2268 -1.5541  0.6458
 6123SOL    HW220302   6.438   8.318   2.487  1.9980 -1.9248  0.8479
 6124SOL     OW20303   2.151   3.644   7.435  0.0378 -0.5992 -0.0120
 6124SOL    HW120304   2.207   3.630   7.359  0.8498 -1.4086  0.7069
 6124SOL    HW220305   2.191   3.591   7.504  0.1357  1.1827  1.3795
 6125SOL     OW20306   0.769   7.950   5.053  0.3042 -0.1831  0.0206
 6125SOL    HW120307   0.822   7.985   5.124  1.0071 -0.1192 -0.5275
 6125SOL    HW220308   0.717   7.880   5.093  0.4607  0.0596  0.6558
 6126SOL     OW20309   4.340   4.060   1.930  0.0122  0.3272  0.1239
 6126SOL    HW120310   4.385   4.031   2.010  1.3661 -1.8133 -1.3018
 6126SOL    HW220311   4.402   4.120   1.888  0.8270 -1.1769 -0.9203
 6127SOL     OW20312   6.531   5.217   1.648 -0.1282 -0.3728  0.2099
 6127SOL    HW120313   6.463   5.151   1.661 -1.3521  0.5915 -1.0217
 6127SOL    HW220314   6.506   5.263   1.568  0.7236  1.5343  0.9614
 6128SOL     OW20315   5.833   3.476   2.700 -0.2327  0.2826 -0.0549
 6128SOL    HW120316   5.817   3.500   2.609  2.0461  0.5452 -0.4583
 6128SOL    HW220317   5.888   3.547   2.734  0.6295 -0.7932  0.8943
 6129SOL     OW20318   7.821   4.877   0.612 -0.5776  0.0556  0.2547
 6129SOL    HW120319   7.755   4.931   0.656 -0.4253 -0.5176  1.2288
 6129SOL    HW220320   7.777   4.846   0.533 -0.3655  2.3016 -0.8070
 6130SOL     OW20321   0.631   0.713   4.470  0.0679 -0.0393 -0.4968
 6130SOL    HW120322   0.678   0.629   4.468 -0.6620 -0.6233  2.1110
 6130SOL    HW220323   0.694   0.775   4.506 -0.7875 -0.6816  2.3874
 6131SOL     OW20324   1.466   0.864   1.966 -0.0733  0.0083  0.1957
 6131SOL    HW120325   1.543   0.854   1.910 -1.0478 -1.1642 -0.9601
 6131SOL    HW220326   1.393   0.877   1.906 -1.3569 -2.6022  1.0608
 6132SOL     OW20327   8.700   7.615   5.968  0.5255  0.3112 -0.7356
 6132SOL    HW120328   8.706   7.569   5.884  3.4233 -0.9575  0.0653
 6132SOL    HW220329   8.744   7.699   5.953  1.8083 -0.2610 -0.3301
 6133SOL     OW20330   7.102   3.255   1.411  0.0934 -0.5060  0.3316
 6133SOL    HW120331   7.091   3.161   1.426  2.1504 -0.5191  2.3718
 6133SOL    HW220332   7.105   3.293   1.499  0.5442  1.3109 -0.4151
 6134SOL     OW20333   3.267   6.364   3.235  0.3159  0.1567  0.2498
 6134SOL    HW120334   3.201   6.418   3.191 -0.3514 -1.2331 -0.5076
 6134SOL    HW220335   3.270   6.397   3.325 -0.9723  0.6284  0.1291
 6135SOL     OW20336   0.982   4.720   6.961  0.6228 -0.8427  0.4372
 6135SOL    HW120337   0.975   4.718   7.056  0.8259 -0.4360  0.4636
 6135SOL    HW220338   1.056   4.662   6.941 -0.5515 -2.3877  0.3932
 6136SOL     OW20339   7.909   7.855   1.610  0.0415  0.6260  0.2608
 6136SOL    HW120340   7.814   7.870   1.614  0.0129  0.5851 -0.1572
 6136SOL    HW220341   7.923   7.821   1.521  0.2503 -0.7335  0.7940
 6137SOL     OW20342   8.051   4.730   8.542 -0.5363 -0.2753 -0.1710
 6137SOL    HW120343   8.066   4.762   8.631  0.1961  0.9383 -0.7187
 6137SOL    HW220344   8.100   4.648   8.538 -0.6866 -0.4106  0.5787
 6138SOL     OW20345   5.875   3.712   7.555 -0.0595  0.0358 -0.1251
 6138SOL    HW120346   5.899   3.704   7.647  1.5712 -0.0755 -0.5284
 6138SOL    HW220347   5.782   3.689   7.552  0.6171 -3.3281  1.0234
 6139SOL     OW20348   3.677   8.097   3.504  0.0242 -0.3209  0.1299
 6139SOL    HW120349   3.730   8.020   3.525 -0.2120 -0.6629 -0.5318
 6139SOL    HW220350   3.636   8.077   3.421 -2.8221 -0.9248  1.5771
 6140SOL     OW20351   5.675   7.878   8.273 -0.2433  0.0963 -0.3467
 6140SOL    HW120352   5.645   7.798   8.315 -2.5877 -0.2070 -2.3699
 6140SOL    HW220353   5.601   7.939   8.281  0.2445  0.9147 -1.6682
 6141SOL     OW20354   5.928   5.122   1.602  0.5905  0.1733  0.1265
 6141SOL    HW120355   5.894   5.192   1.547  1.0996 -0.8968 -1.6160
 6141SOL    HW220356   5.965   5.167   1.678 -0.4682  1.6550 -0.1915
 6142SOL     OW20357   2.826   7.567   2.045  0.3301  0.1100 -0.3980
 6142SOL    HW120358   2.733   7.545   2.035  0.3887  0.2356 -1.3335
 6142SOL    HW220359   2.826   7.650   2.092  0.0384 -0.7428  1.1971
 6143SOL     OW20360   5.143   1.031   2.790  0.1966  0.9928 -0.1843
 6143SOL    HW120361   5.116   1.121   2.774  0.2046  0.6920 -2.0359
 6143SOL    HW220362   5.117   0.983   2.711  1.9606 -0.2294 -0.0871
 6144SOL     OW20363   3.837   1.928   8.131  0.0032  0.7205  0.2783
 6144SOL    HW120364   3.828   1.903   8.223  1.7435  2.1087  0.8790
 6144SOL    HW220365   3.748   1.922   8.096 -0.4527 -1.4386  1.5790
 6145SOL     OW20366   6.861   6.925   5.700 -0.3528  0.4332  0.0426
 6145SOL    HW120367   6.820   7.002   5.741 -0.9804 -0.1977  0.6290
 6145SOL    HW220368   6.812   6.912   5.619 -2.3014 -1.1467  1.4006
 6146SOL     OW20369   8.667   2.550   2.558 -0.3612 -0.3869  0.3054
 6146SOL    HW120370   8.626   2.587   2.636  1.1864  0.4180  0.7880
 6146SOL    HW220371   8.636   2.605   2.486  0.6144  0.8687  0.8018
 6147SOL     OW20372   4.100   0.041   2.343  0.8313 -0.2210  0.1121
 6147SOL    HW120373   4.084   0.041   2.437  1.4085  2.6325  0.2857
 6147SOL    HW220374   4.045   0.111   2.309  0.9028 -0.9638 -1.6372
 6148SOL     OW20375   2.121   4.863   1.292 -0.4528  0.3105 -0.0482
 6148SOL    HW120376   2.145   4.820   1.210 -1.1426 -0.9079  0.3585
 6148SOL    HW220377   2.182   4.827   1.357 -0.6207  0.4305  0.1760
 6149SOL     OW20378   7.975   4.026   3.392 -0.0726  0.3620 -0.5223
 6149SOL    HW120379   8.052   4.082   3.400 -0.4067  0.6440  0.9052
 6149SOL    HW220380   8.009   3.937   3.391  0.2003  0.3928  1.8741
 6150SOL     OW20381   5.089   3.834   1.530 -0.1416  0.0193  0.4437
 6150SOL    HW120382   5.049   3.915   1.499  3.3200  1.4233 -0.9584
 6150SOL    HW220383   5.153   3.862   1.595  1.5920 -1.4302 -0.5295
 6151SOL     OW20384   6.482   5.903   7.526 -0.3658 -0.5904 -0.2413
 6151SOL    HW120385   6.568   5.865   7.545  0.1250 -0.1331 -1.4639
 6151SOL    HW220386   6.481   5.915   7.431 -0.4898  2.3423  0.0217
 6152SOL     OW20387   6.605   4.099   7.200  0.5110 -0.2252  0.4272
 6152SOL    HW120388   6.589   4.172   7.261  0.4844  0.4509 -0.3763
 6152SOL    HW220389   6.523   4.048   7.203 -0.0572  0.6294 -0.1468
 6153SOL     OW20390   0.304   3.829   8.694 -0.0135  0.0435  0.3848
 6153SOL    HW120391   0.282   3.745   8.735 -0.3627  0.4151  0.9707
 6153SOL    HW220392   0.233   3.844   8.631  2.1601 -2.1263 -2.8864
 6154SOL     OW20393   4.681   2.203   6.172 -0.0538 -0.3534  0.1522
 6154SOL    HW120394   4.633   2.244   6.099  0.6732  0.4864  0.1280
 6154SOL    HW220395   4.757   2.260   6.185  0.6134 -1.3251  0.5905
 6155SOL     OW20396   7.731   1.896   8.287 -0.5209 -0.0625 -0.2223
 6155SOL    HW120397   7.764   1.839   8.218 -0.5472 -1.3597  0.7943
 6155SOL    HW220398   7.650   1.855   8.316 -0.2682  0.1825  0.9029
 6156SOL     OW20399   0.560   8.829   1.573  0.2966 -0.3109  0.2022
 6156SOL    HW120400   0.618   8.865   1.506 -0.0715 -0.1962 -0.0568
 6156SOL    HW220401   0.619   8.801   1.643  0.5976  0.9242  0.4729
 6157SOL     OW20402   2.682   6.182   2.983  0.1520  0.0915 -0.3678
 6157SOL    HW120403   2.683   6.162   2.889 -0.0181  0.6933 -0.5042
 6157SOL    HW220404   2.670   6.277   2.987  1.1523  0.2122  0.2466
 6158SOL     OW20405   2.155   5.632   3.394 -0.4009 -0.3164 -0.6348
 6158SOL    HW120406   2.171   5.607   3.485 -2.2041 -0.5238 -0.3384
 6158SOL    HW220407   2.175   5.552   3.344 -1.0218 -0.7384 -0.2309
 6159SOL     OW20408   7.214   4.656   1.528 -0.2174 -0.2863 -0.2778
 6159SOL    HW120409   7.289   4.711   1.506 -2.0930  2.5975 -0.0118
 6159SOL    HW220410   7.187   4.618   1.444  0.6026 -0.1349 -0.6273
 6160SOL     OW20411   4.475   7.613   5.123 -0.7462 -0.0143  0.2149
 6160SOL    HW120412   4.496   7.533   5.170  0.2639  0.0599 -0.0927
 6160SOL    HW220413   4.382   7.627   5.141 -1.0330 -1.4464 -0.0271
 6161SOL     OW20414   6.834   2.178   3.342 -0.3047  0.7168 -0.6380
 6161SOL    HW120415   6.806   2.241   3.409  0.3164  0.1469  0.1948
 6161SOL    HW220416   6.765   2.113   3.339  0.4104 -0.1579  0.6976
 6162SOL     OW20417   1.462   5.767   1.637  0.4532 -0.1916  0.0117
 6162SOL    HW120418   1.483   5.694   1.694  1.9611 -0.7665 -1.1824
 6162SOL    HW220419   1.481   5.734   1.549 -1.9425  0.5962 -0.8683
 6163SOL     OW20420   6.203   4.313   8.369 -0.0653 -0.7132 -0.0888
 6163SOL    HW120421   6.184   4.277   8.456 -0.3080 -1.3784 -0.4116
 6163SOL    HW220422   6.284   4.270   8.342 -0.1684 -0.7628 -0.3271
 6164SOL     OW20423   0.561   7.767   0.982 -0.2314  0.0678  0.6437
 6164SOL    HW120424   0.613   7.827   0.928 -1.2753  0.9791  0.6332
 6164SOL    HW220425   0.625   7.728   1.042  0.3370  1.8635  1.2627
 6165SOL     OW20426   0.738   4.253   5.024  0.2624 -0.1209 -0.2008
 6165SOL    HW120427   0.647   4.235   5.000  0.5387  0.2155 -1.5827
 6165SOL    HW220428   0.762   4.181   5.082 -0.5770 -0.7790 -0.6448
 6166SOL     OW20429   6.987   3.704   0.608 -0.4178 -0.3362 -0.1786
 6166SOL    HW120430   6.967   3.762   0.680 -1.3323 -1.5908  0.6267
 6166SOL    HW220431   6.902   3.681   0.571 -0.2016 -1.9986  0.2383
 6167SOL     OW20432   5.071   6.472   7.448  0.3828  0.5657  0.3459
 6167SOL    HW120433   5.104   6.428   7.370 -2.3298 -3.5370  1.1796
 6167SOL    HW220434   4.994   6.520   7.417 -0.2019 -0.3699  0.3186
 6168SOL     OW20435   7.515   7.678   4.307  0.2862  0.2571 -0.4279
 6168SOL    HW120436   7.516   7.702   4.214 -3.2694 -0.1974 -0.7120
 6168SOL    HW220437   7.500   7.584   4.307 -1.6964  0.5391  0.5466
 6169SOL     OW20438   7.718   1.124   7.842  0.1795 -0.1148 -0.0256
 6169SOL    HW120439   7.671   1.044   7.821  0.3102 -0.2171  0.0737
 6169SOL    HW220440   7.769   1.144   7.764  0.6508 -0.4834  0.1806
 6170SOL     OW20441   2.882   5.310   5.187  0.0371 -1.2099  0.0293
 6170SOL    HW120442   2.849   5.351   5.267 -0.2210 -1.0038 -0.1843
 6170SOL    HW220443   2.924   5.230   5.217  1.6634 -0.1925  0.6197
 6171SOL     OW20444   5.807   5.628   7.622  0.1132  0.2992  0.1300
 6171SOL    HW120445   5.763   5.586   7.549 -0.6326 -0.4567  0.9889
 6171SOL    HW220446   5.822   5.557   7.685  1.3878  0.7920  0.4136
 6172SOL     OW20447   4.949   2.002   6.717  0.1851  0.1839  0.5660
 6172SOL    HW120448   4.976   2.019   6.627  1.4497 -1.2981  0.6191
 6172SOL    HW220449   5.017   2.044   6.770  2.2819 -3.0729  0.7115
 6173SOL     OW20450   8.689   0.124   3.861 -0.4940  0.2917  0.6864
 6173SOL    HW120451   8.776   0.159   3.841 -0.1986 -1.3051 -1.2094
 6173SOL    HW220452   8.699   0.029   3.850 -2.8836  0.1908 -1.5530
 6174SOL     OW20453   7.842   3.515   3.042  0.1665  0.5443 -0.2753
 6174SOL    HW120454   7.813   3.605   3.053  0.2152  0.7293 -1.5557
 6174SOL    HW220455   7.913   3.520   2.978  0.2613 -0.3849 -0.2521
 6175SOL     OW20456   5.088   2.015   1.262  0.5858  0.1212 -0.5591
 6175SOL    HW120457   5.149   2.052   1.326  0.0056  0.8640 -0.4076
 6175SOL    HW220458   5.082   1.923   1.285  0.2758  0.3993  0.5714
 6176SOL     OW20459   2.958   2.612   1.160 -0.1830 -0.1268 -0.0740
 6176SOL    HW120460   2.909   2.532   1.143  1.0244 -1.3146  1.6320
 6176SOL    HW220461   3.023   2.616   1.090 -0.1738 -0.7284 -0.1021
 6177SOL     OW20462   4.841   2.011   7.195  0.3847 -0.0355  0.4723
 6177SOL    HW120463   4.844   2.043   7.285  1.0737  0.1000  0.4103
 6177SOL    HW220464   4.826   1.917   7.203  1.9714 -0.2841  0.7949
 6178SOL     OW20465   2.123   1.929   0.149  0.3142 -0.2941 -0.0042
 6178SOL    HW120466   2.120   1.976   0.066 -0.7382 -0.3673 -0.0249
 6178SOL    HW220467   2.073   1.849   0.133  0.2927 -0.4153  0.6269
 6179SOL     OW20468   2.258   2.841   2.952  0.3209 -0.2565  0.2936
 6179SOL    HW120469   2.219   2.885   2.876 -1.1317  0.4922  1.4179
 6179SOL    HW220470   2.313   2.773   2.914 -2.9803 -2.2157 -1.5000
 6180SOL     OW20471   8.199   7.787   4.275  0.5526  0.3890 -0.0384
 6180SOL    HW120472   8.149   7.750   4.202  0.5815  1.0995 -0.4286
 6180SOL    HW220473   8.151   7.759   4.353 -0.1211  0.5559 -0.3805
 6181SOL     OW20474   8.842   7.096   2.173  0.7844  0.4012 -0.2243
 6181SOL    HW120475   8.929   7.079   2.136  0.5900 -1.8111  0.2125
 6181SOL    HW220476   8.788   7.118   2.097  1.3995  0.3864 -0.6739
 6182SOL     OW20477   3.429   3.244   7.472  0.2053 -0.0608 -0.1416
 6182SOL    HW120478   3.369   3.203   7.410 -3.4688  0.1538  2.8940
 6182SOL    HW220479   3.420   3.338   7.455  2.2583 -0.0627 -1.6752
 6183SOL     OW20480   2.501   8.173   2.477  0.4009  0.6380 -0.6870
 6183SOL    HW120481   2.467   8.260   2.495  0.5151  0.7161 -0.8479
 6183SOL    HW220482   2.467   8.151   2.390 -1.5145 -0.4005  0.2417
 6184SOL     OW20483   5.753   4.860   8.333 -0.2858  0.5436  0.3497
 6184SOL    HW120484   5.818   4.878   8.401 -0.8804 -0.1575  1.1096
 6184SOL    HW220485   5.783   4.912   8.258  2.0594 -0.9678  0.1397
 6185SOL     OW20486   5.148   8.053   6.539 -0.8275 -0.0982 -0.6451
 6185SOL    HW120487   5.108   7.966   6.538  0.3448 -0.6447 -1.4162
 6185SOL    HW220488   5.241   8.037   6.527 -0.5452  1.2531 -0.4252
 6186SOL     OW20489   5.602   3.938   4.877 -0.0223  0.1640  0.2683
 6186SOL    HW120490   5.625   3.884   4.801  1.0150  0.9160  0.0248
 6186SOL    HW220491   5.532   3.996   4.846  1.1031  1.1795 -0.4424
 6187SOL     OW20492   2.436   4.644   3.107 -0.7351 -0.1852  0.1890
 6187SOL    HW120493   2.508   4.585   3.130  0.9943  1.2372 -1.2777
 6187SOL    HW220494   2.389   4.599   3.037 -0.1318 -0.3293 -0.1240
 6188SOL     OW20495   0.729   8.036   1.583  0.8159 -0.2134  0.1176
 6188SOL    HW120496   0.758   7.945   1.590  1.4821 -0.1418 -1.3243
 6188SOL    HW220497   0.809   8.088   1.589  0.7978  0.1067 -1.6709
 6189SOL     OW20498   7.531   7.186   3.457 -0.4378  0.0458 -0.2167
 6189SOL    HW120499   7.561   7.243   3.386 -1.2195  0.6700 -0.0674
 6189SOL    HW220500   7.502   7.106   3.413  1.5182 -0.6367 -0.3458
 6190SOL     OW20501   3.667   3.631   5.156 -0.1209  0.2137 -0.4425
 6190SOL    HW120502   3.635   3.667   5.073 -0.2953  0.7361 -0.1507
 6190SOL    HW220503   3.658   3.702   5.218 -0.2727 -0.2738  0.1011
 6191SOL     OW20504   1.691   5.094   3.556  0.6307 -0.6122  0.1241
 6191SOL    HW120505   1.688   5.021   3.618  1.4088 -0.1510  0.7155
 6191SOL    HW220506   1.602   5.130   3.558  1.2668  1.1489  3.1221
 6192SOL     OW20507   4.279   3.835   5.626 -0.3894  0.1368  0.6006
 6192SOL    HW120508   4.238   3.858   5.709 -0.2659  1.2426  0.3655
 6192SOL    HW220509   4.373   3.849   5.641 -0.2574 -0.6860  0.5925
 6193SOL     OW20510   8.396   5.613   1.874 -0.0931  0.1976 -0.1754
 6193SOL    HW120511   8.466   5.658   1.826 -1.4405  0.2415 -2.2267
 6193SOL    HW220512   8.364   5.678   1.937  0.5920  0.7314 -0.3645
 6194SOL     OW20513   0.332   5.634   0.525 -0.3633 -0.0819 -0.3443
 6194SOL    HW120514   0.411   5.589   0.496 -0.4009 -3.1156  3.3260
 6194SOL    HW220515   0.260   5.587   0.483 -0.3468  1.5699 -2.3408
 6195SOL     OW20516   2.115   8.669   6.849  0.1753 -0.1631  0.2393
 6195SOL    HW120517   2.200   8.693   6.887  0.0482 -0.7951  0.9512
 6195SOL    HW220518   2.107   8.575   6.867 -0.0963 -0.3927 -0.9780
 6196SOL     OW20519   1.119   5.005   4.422  0.0766 -1.1476 -0.7823
 6196SOL    HW120520   1.043   5.038   4.469 -1.1942 -2.5967 -1.7564
 6196SOL    HW220521   1.180   4.978   4.491 -0.9256 -1.4043  0.0143
 6197SOL     OW20522   5.879   7.132   1.474  0.7595 -0.4131 -0.0255
 6197SOL    HW120523   5.895   7.164   1.384 -0.0195 -0.2486 -0.1146
 6197SOL    HW220524   5.962   7.148   1.520  1.1496 -0.4445 -0.6993
 6198SOL     OW20525   3.551   1.579   4.750  0.0077 -0.4743 -0.1557
 6198SOL    HW120526   3.633   1.541   4.717 -0.8563  0.5153 -3.8619
 6198SOL    HW220527   3.548   1.666   4.710 -1.8970  0.3615  1.6448
 6199SOL     OW20528   7.033   5.228   3.151  0.3159 -0.2050 -0.3222
 6199SOL    HW120529   7.030   5.217   3.056  0.0743  0.3815 -0.3851
 6199SOL    HW220530   6.996   5.147   3.186  0.4956 -0.4631 -0.7217
 6200SOL     OW20531   1.355   5.764   0.297 -0.0159 -0.4171  0.2850
 6200SOL    HW120532   1.304   5.832   0.252 -0.8092 -0.4207  1.1595
 6200SOL    HW220533   1.297   5.731   0.365 -0.5331 -3.5273 -1.4487
 6201SOL     OW20534   1.723   6.848   1.950 -0.4711  0.5258 -0.1094
 6201SOL    HW120535   1.734   6.777   2.014  1.6294 -0.6103 -1.6259
 6201SOL    HW220536   1.798   6.905   1.964 -0.3769  0.6538 -1.0740
 6202SOL     OW20537   4.808   5.759   0.612  0.2002  0.2601  0.7611
 6202SOL    HW120538   4.792   5.809   0.531 -0.1787  0.3031  0.8600
 6202SOL    HW220539   4.903   5.747   0.615  0.0342 -2.5494 -1.3605
 6203SOL     OW20540   3.965   8.275   0.288  0.3876 -0.2520 -0.1000
 6203SOL    HW120541   3.973   8.324   0.370 -0.6664  1.1006 -0.7532
 6203SOL    HW220542   4.053   8.275   0.251  0.6114  0.2423  0.4167
 6204SOL     OW20543   6.556   6.485   4.353 -0.1669  0.9520 -0.2713
 6204SOL    HW120544   6.526   6.458   4.266  0.6682  0.9987 -0.5878
 6204SOL    HW220545   6.568   6.579   4.346  1.5199  0.7377 -0.6379
 6205SOL     OW20546   8.647   1.341   5.929  0.5987 -0.2314 -0.2448
 6205SOL    HW120547   8.673   1.294   6.008 -0.6480 -0.5252  0.0137
 6205SOL    HW220548   8.553   1.324   5.920  0.5181  0.6002 -1.2470
 6206SOL     OW20549   4.619   0.220   6.705 -0.9428 -0.1312  0.0520
 6206SOL    HW120550   4.583   0.239   6.792  0.3683 -0.9682  0.8066
 6206SOL    HW220551   4.586   0.291   6.650 -1.7376  0.4629  1.2419
 6207SOL     OW20552   4.190   5.266   6.263 -0.2593  0.3316  0.3780
 6207SOL    HW120553   4.238   5.309   6.333  0.6650 -0.1771  0.0750
 6207SOL    HW220554   4.255   5.213   6.218 -0.8648  0.5211 -0.7701
 6208SOL     OW20555   5.806   2.363   5.312  0.1093  0.4100 -0.0608
 6208SOL    HW120556   5.799   2.409   5.396  1.7564 -0.5832  0.6647
 6208SOL    HW220557   5.722   2.319   5.302  0.2686 -0.3844  1.6642
 6209SOL     OW20558   6.231   8.776   7.049 -0.1541  0.1229  0.1897
 6209SOL    HW120559   6.178   8.836   6.997 -0.1738 -0.0420  0.0195
 6209SOL    HW220560   6.270   8.832   7.117 -1.2486  0.0992  0.8720
 6210SOL     OW20561   2.870   8.522   6.727  0.1826  0.1440  0.2190
 6210SOL    HW120562   2.863   8.454   6.659 -1.8191  0.1339  0.3857
 6210SOL    HW220563   2.824   8.597   6.690  0.4768  0.6821  0.9380
 6211SOL     OW20564   0.077   3.079   4.836 -0.8295 -0.0795  0.6718
 6211SOL    HW120565   0.014   3.008   4.824 -1.6088  0.1723  2.9187
 6211SOL    HW220566   0.113   3.066   4.923  0.8543  0.8916  0.1733
 6212SOL     OW20567   2.812   8.795   3.067  0.0511  0.0242  0.1451
 6212SOL    HW120568   2.793   8.839   3.150  0.8664  1.2722 -0.2955
 6212SOL    HW220569   2.876   8.728   3.090 -0.3970 -0.2364  0.6600
 6213SOL     OW20570   3.157   1.243   5.166  0.0240 -1.0694  0.0493
 6213SOL    HW120571   3.123   1.156   5.147 -1.5598 -0.5769  0.4750
 6213SOL    HW220572   3.085   1.288   5.210  1.4252 -0.1333  1.5098
 6214SOL     OW20573   2.989   0.491   0.435  0.3375  0.0151  0.0392
 6214SOL    HW120574   2.988   0.460   0.526 -1.0750  0.5864  0.2377
 6214SOL    HW220575   3.066   0.547   0.429 -1.3422  2.7739  1.9045
 6215SOL     OW20576   1.519   6.064   3.751 -0.0029 -0.1451 -0.3453
 6215SOL    HW120577   1.602   6.043   3.709  0.6697  0.2792  0.7154
 6215SOL    HW220578   1.460   5.993   3.725  0.1872  0.4096 -2.4350
 6216SOL     OW20579   5.742   8.781   3.721  0.5458 -0.2830 -0.2354
 6216SOL    HW120580   5.676   8.726   3.682 -0.9974  0.9125  0.5706
 6216SOL    HW220581   5.786   8.725   3.785 -0.4064 -0.8194 -0.0357
 6217SOL     OW20582   1.641   4.820   5.199 -0.3636 -0.1087  0.0271
 6217SOL    HW120583   1.659   4.913   5.210 -0.8380 -0.0651  0.4795
 6217SOL    HW220584   1.608   4.812   5.110 -3.0218  0.6144  0.8652
 6218SOL     OW20585   0.416   3.113   1.975 -0.0129  0.5682 -0.2357
 6218SOL    HW120586   0.332   3.147   2.006 -0.3366 -0.4641  0.0769
 6218SOL    HW220587   0.475   3.188   1.979 -0.3257  0.7760  1.8188
 6219SOL     OW20588   6.911   0.618   7.679 -0.2260 -0.2067 -0.2171
 6219SOL    HW120589   6.947   0.551   7.621 -1.3368 -1.2799  0.2887
 6219SOL    HW220590   6.852   0.570   7.737 -0.6032  1.1325  0.5477
 6220SOL     OW20591   7.298   7.705   2.806 -0.0341 -0.2676 -0.1486
 6220SOL    HW120592   7.208   7.727   2.783 -0.0180  0.4410  0.4372
 6220SOL    HW220593   7.290   7.660   2.891  0.0954 -0.9360 -0.4839
 6221SOL     OW20594   6.878   8.333   4.979 -0.9592  0.5957 -0.6153
 6221SOL    HW120595   6.810   8.386   5.021  0.5156  1.0037  1.4412
 6221SOL    HW220596   6.837   8.248   4.963 -2.2822  1.2005 -0.5242
 6222SOL     OW20597   8.435   7.055   8.089  0.5171  0.0753  0.3069
 6222SOL    HW120598   8.375   7.105   8.145  0.3543 -0.0875  0.2798
 6222SOL    HW220599   8.521   7.094   8.105  0.3772  0.4253  0.2142
 6223SOL     OW20600   4.191   2.016   6.569 -0.1581  0.2458 -0.1244
 6223SOL    HW120601   4.142   1.961   6.508  1.2630 -1.1064 -0.1162
 6223SOL    HW220602   4.137   2.019   6.648 -0.0168 -1.6396  0.0799
 6224SOL     OW20603   6.379   1.408   0.666 -0.3196 -0.4823 -0.0810
 6224SOL    HW120604   6.390   1.317   0.637  1.3391 -0.1464 -0.6081
 6224SOL    HW220605   6.459   1.428   0.714 -0.5054  0.8090 -0.2724
 6225SOL     OW20606   8.638   7.235   6.874  0.1838 -0.5103  0.1352
 6225SOL    HW120607   8.544   7.226   6.859  0.4781 -3.7274 -0.6596
 6225SOL    HW220608   8.672   7.272   6.793 -0.2698 -0.5197 -0.0630
 6226SOL     OW20609   6.073   0.671   7.328 -0.3211  0.1795 -0.0224
 6226SOL    HW120610   6.026   0.646   7.408 -1.2519  0.5076 -0.4460
 6226SOL    HW220611   6.163   0.682   7.356 -0.8204  1.4060  1.2496
 6227SOL     OW20612   5.679   5.598   6.851  0.0369 -0.0297 -0.1547
 6227SOL    HW120613   5.607   5.622   6.793 -0.9192  1.9642  1.7138
 6227SOL    HW220614   5.638   5.586   6.936  1.6529 -0.9248  0.5453
 6228SOL     OW20615   4.878   0.611   4.894  0.2022 -0.2979  0.2789
 6228SOL    HW120616   4.907   0.533   4.940  1.4007  0.6232  1.1464
 6228SOL    HW220617   4.809   0.580   4.835  1.1139 -2.1183  0.0996
 6229SOL     OW20618   4.831   8.261   4.030  0.3512 -0.3636 -0.2145
 6229SOL    HW120619   4.885   8.268   3.951 -0.8371 -1.2808 -1.1529
 6229SOL    HW220620   4.791   8.174   4.024 -0.2429 -0.2023  1.0857
 6230SOL     OW20621   8.067   4.891   1.400  0.1675  0.4954  0.0144
 6230SOL    HW120622   8.031   4.974   1.369  0.0051  0.0871 -0.9105
 6230SOL    HW220623   8.061   4.897   1.496  0.2715  1.5922 -0.0306
 6231SOL     OW20624   0.904   2.956   2.777  1.1299 -0.0118 -0.5015
 6231SOL    HW120625   0.961   2.902   2.722  0.5917 -1.1337  0.0042
 6231SOL    HW220626   0.954   2.970   2.858  0.3541 -1.8486  0.3538
 6232SOL     OW20627   0.325   4.747   3.709  0.4761 -0.2095 -0.1043
 6232SOL    HW120628   0.266   4.793   3.769  0.5461 -0.2893  0.0267
 6232SOL    HW220629   0.411   4.757   3.749  0.4165 -0.9218  0.2105
 6233SOL     OW20630   6.167   4.817   4.937  0.2765  0.5482 -0.1997
 6233SOL    HW120631   6.235   4.845   4.875  0.0525  0.4024 -0.5157
 6233SOL    HW220632   6.179   4.874   5.013  1.1352  0.1268 -0.0097
 6234SOL     OW20633   8.562   1.641   6.146 -0.1606 -0.0564 -0.5526
 6234SOL    HW120634   8.519   1.708   6.093  0.4547 -0.4020 -1.5137
 6234SOL    HW220635   8.656   1.657   6.132  0.0084 -0.3339  0.2132
 6235SOL     OW20636   1.161   1.716   7.049 -0.3449  0.3390 -0.1370
 6235SOL    HW120637   1.134   1.703   7.140  2.9695 -0.5949  0.8221
 6235SOL    HW220638   1.104   1.787   7.018 -2.5978 -0.3174  2.1174
 6236SOL     OW20639   6.196   2.249   5.500 -0.0258 -0.3128  0.0232
 6236SOL    HW120640   6.265   2.192   5.535 -1.2591 -1.3035  0.9150
 6236SOL    HW220641   6.143   2.272   5.576 -0.3318  0.9542 -0.5473
 6237SOL     OW20642   7.572   8.197   3.366  0.6049 -0.1398 -0.2092
 6237SOL    HW120643   7.575   8.143   3.445  0.1115 -1.2215 -0.9118
 6237SOL    HW220644   7.618   8.278   3.390 -0.2110 -0.1329  1.4088
 6238SOL     OW20645   1.019   5.443   8.571 -0.3035  0.4135  0.1729
 6238SOL    HW120646   1.066   5.373   8.616 -1.0870 -0.6632 -0.6224
 6238SOL    HW220647   1.041   5.522   8.620  0.8675 -0.3261  0.9044
 6239SOL     OW20648   0.518   8.472   7.937 -0.1552 -0.2463 -0.2255
 6239SOL    HW120649   0.536   8.534   8.008 -1.7008  2.1966 -1.8175
 6239SOL    HW220650   0.454   8.517   7.881  0.1987 -2.4684 -2.6166
 6240SOL     OW20651   6.571   1.653   2.111  0.3231  0.2079 -0.5740
 6240SOL    HW120652   6.546   1.566   2.142 -0.5044 -0.0195 -1.8107
 6240SOL    HW220653   6.666   1.650   2.105  0.5510  0.2925  1.9315
 6241SOL     OW20654   2.892   8.230   1.848  0.8992 -0.6361  0.1710
 6241SOL    HW120655   2.926   8.211   1.761 -0.8980 -0.6971 -0.5624
 6241SOL    HW220656   2.933   8.314   1.872  0.9062 -0.2809 -1.0141
 6242SOL     OW20657   7.775   6.767   5.940 -0.6023  0.6143  0.2328
 6242SOL    HW120658   7.687   6.768   5.979 -1.5172  2.1866 -1.6730
 6242SOL    HW220659   7.815   6.849   5.969 -1.9985  2.7831 -3.2980
 6243SOL     OW20660   3.750   6.177   6.803 -0.1592 -0.3988  0.5539
 6243SOL    HW120661   3.667   6.131   6.795 -0.2655 -0.4331  1.7907
 6243SOL    HW220662   3.744   6.247   6.737 -0.5551 -1.2699 -0.3721
 6244SOL     OW20663   7.637   4.435   4.023  0.3897  0.1030  0.1715
 6244SOL    HW120664   7.546   4.446   3.995 -0.6368 -2.7917  1.9292
 6244SOL    HW220665   7.684   4.410   3.944 -0.7166 -0.0654 -0.4533
 6245SOL     OW20666   5.468   6.263   4.762  0.2925  0.5761  0.6899
 6245SOL    HW120667   5.496   6.316   4.688  2.7795 -0.3437  0.8685
 6245SOL    HW220668   5.403   6.203   4.726  1.2769  0.3104 -0.7223
 6246SOL     OW20669   2.677   6.591   0.737  0.1488  0.1184  0.3383
 6246SOL    HW120670   2.685   6.531   0.812  0.0175 -0.0774  0.1994
 6246SOL    HW220671   2.615   6.658   0.767 -0.4005 -0.3119  0.1882
 6247SOL     OW20672   0.077   8.521   7.141  0.2745  0.1486  0.8531
 6247SOL    HW120673   0.004   8.494   7.086  1.1062 -0.1058 -0.1686
 6247SOL    HW220674   0.042   8.521   7.230 -1.4173  1.6276  0.2467
 6248SOL     OW20675   6.316   2.690   5.361 -0.1127  0.0836 -0.1146
 6248SOL    HW120676   6.314   2.668   5.455 -0.0400  0.1930 -0.0872
 6248SOL    HW220677   6.389   2.751   5.353 -0.5694  0.6298 -0.1258
 6249SOL     OW20678   8.609   0.373   0.986 -0.7469 -0.0643 -0.1956
 6249SOL    HW120679   8.651   0.332   0.910  0.4087 -1.1675  0.9910
 6249SOL    HW220680   8.573   0.455   0.952 -0.8780 -0.8570 -2.0803
 6250SOL     OW20681   3.051   7.292   0.930 -0.0553  0.3096 -0.2738
 6250SOL    HW120682   3.050   7.244   0.847 -1.4158  1.9403 -1.2594
 6250SOL    HW220683   3.127   7.350   0.924 -0.0087  0.2502 -0.2610
 6251SOL     OW20684   3.360   8.080   3.804  0.0801 -0.4325  0.2762
 6251SOL    HW120685   3.439   8.090   3.857  0.5657  1.0999 -0.6615
 6251SOL    HW220686   3.375   8.136   3.728 -0.1701 -3.2373 -2.0133
 6252SOL     OW20687   8.499   3.262   3.971  0.3317 -0.0090  0.1458
 6252SOL    HW120688   8.486   3.231   4.061 -0.6889 -2.6077 -0.7982
 6252SOL    HW220689   8.413   3.254   3.931  1.0944 -0.4132 -1.4874
 6253SOL     OW20690   6.730   3.643   4.317 -0.2911 -0.0543 -0.1575
 6253SOL    HW120691   6.704   3.694   4.241 -0.2562  0.9731  0.4968
 6253SOL    HW220692   6.778   3.569   4.281  2.3175  1.9157 -1.0635
 6254SOL     OW20693   8.312   2.589   2.630  0.2264  0.4791  0.3773
 6254SOL    HW120694   8.322   2.658   2.696  1.0134 -0.5493  1.3754
 6254SOL    HW220695   8.225   2.603   2.593  0.7051  2.5433 -0.0867
 6255SOL     OW20696   6.497   4.771   8.431 -0.2005 -0.0543  0.5814
 6255SOL    HW120697   6.566   4.837   8.429 -1.4422  1.2621 -0.5522
 6255SOL    HW220698   6.534   4.696   8.384  0.4486  0.6452 -0.0363
 6256SOL     OW20699   8.243   3.249   7.761 -0.2343 -0.5771  0.2245
 6256SOL    HW120700   8.299   3.318   7.726 -0.0105 -0.5316  0.6619
 6256SOL    HW220701   8.299   3.201   7.822 -0.8233 -0.1658  1.1162
 6257SOL     OW20702   7.970   5.569   1.731  0.1308  0.5893 -0.3579
 6257SOL    HW120703   7.899   5.505   1.738 -0.6918  1.4866 -0.2663
 6257SOL    HW220704   8.050   5.516   1.726 -0.4182 -0.4184  1.0017
 6258SOL     OW20705   7.654   5.897   8.042 -0.1110 -0.3053 -0.3854
 6258SOL    HW120706   7.706   5.849   7.977 -0.4040 -1.2819  0.0742
 6258SOL    HW220707   7.563   5.882   8.016 -0.2415 -1.0242  0.4566
 6259SOL     OW20708   1.049   3.217   7.011 -0.2030  0.3162  0.0566
 6259SOL    HW120709   1.007   3.154   6.953  0.1783  0.9581 -0.9361
 6259SOL    HW220710   1.113   3.166   7.060 -0.7441 -0.2904  0.1420
 6260SOL     OW20711   4.282   3.327   2.466 -0.0297  0.4119 -0.3076
 6260SOL    HW120712   4.316   3.239   2.481 -0.2786 -0.0827 -2.3744
 6260SOL    HW220713   4.198   3.329   2.512 -0.2265 -0.5839 -0.6050
 6261SOL     OW20714   6.877   3.034   0.712 -0.7708 -0.1767  0.5283
 6261SOL    HW120715   6.848   2.952   0.671 -1.2123 -0.0978  0.6753
 6261SOL    HW220716   6.809   3.097   0.690 -0.3841  0.1734  0.3452
 6262SOL     OW20717   0.761   8.615   1.427  0.3031  0.0443 -0.2896
 6262SOL    HW120718   0.850   8.613   1.460  0.7456 -0.0631 -1.4478
 6262SOL    HW220719   0.716   8.543   1.472  0.4186  0.9041  1.2722
 6263SOL     OW20720   5.471   7.339   8.725 -0.0535 -0.2658  0.4684
 6263SOL    HW120721   5.451   7.248   8.703  0.7879  0.2415 -3.1179
 6263SOL    HW220722   5.565   7.340   8.740  0.6621  0.3719 -3.0519
 6264SOL     OW20723   1.702   5.933   8.667  0.3680 -0.2184 -0.0549
 6264SOL    HW120724   1.699   5.906   8.759  0.2729 -0.5660 -0.1582
 6264SOL    HW220725   1.694   6.029   8.670 -0.7282 -0.3124  0.2369
 6265SOL     OW20726   4.454   0.692   2.452  0.2403 -0.0822  0.1469
 6265SOL    HW120727   4.456   0.597   2.446 -0.3312 -0.1111  0.3969
 6265SOL    HW220728   4.374   0.718   2.406  0.4273  0.2827  0.0191
 6266SOL     OW20729   2.328   8.057   7.762  0.5046  0.7137 -0.2409
 6266SOL    HW120730   2.268   8.052   7.687  0.0980  0.9563  0.0674
 6266SOL    HW220731   2.368   7.970   7.766 -1.5111 -0.2339  0.9498
 6267SOL     OW20732   4.202   0.513   0.429 -0.4639 -0.0101 -0.3552
 6267SOL    HW120733   4.146   0.436   0.420 -1.9684  1.0330 -0.2221
 6267SOL    HW220734   4.231   0.511   0.521 -0.9510 -0.1213 -0.2005
 6268SOL     OW20735   1.136   2.208   3.047 -0.2975  0.3934  0.0893
 6268SOL    HW120736   1.073   2.264   3.001  0.7991  0.7599 -1.0325
 6268SOL    HW220737   1.222   2.245   3.024  0.3834 -0.8641  0.5120
 6269SOL     OW20738   1.437   7.996   8.547  0.0205  0.2169 -0.0414
 6269SOL    HW120739   1.422   7.920   8.491 -1.2631  0.8320 -0.5691
 6269SOL    HW220740   1.407   7.969   8.634  1.6728 -0.6146  0.3171
 6270SOL     OW20741   2.032   4.427   6.255  0.3194 -0.3979  0.3603
 6270SOL    HW120742   1.938   4.412   6.255  0.2305  0.0724  1.2549
 6270SOL    HW220743   2.048   4.481   6.333  1.2465  0.0235 -0.1007
 6271SOL     OW20744   2.321   7.840   6.808  0.2064  0.2227 -0.1226
 6271SOL    HW120745   2.340   7.749   6.831 -2.0953 -0.4084 -0.4580
 6271SOL    HW220746   2.301   7.882   6.891  1.2867  0.4345  0.0345
 6272SOL     OW20747   2.021   0.919   7.789 -0.1394  0.3155 -0.5785
 6272SOL    HW120748   1.975   0.934   7.871 -1.0272  0.3668 -1.0646
 6272SOL    HW220749   1.958   0.871   7.735  0.5543 -0.0251 -1.1075
 6273SOL     OW20750   5.450   2.696   1.695  0.5087  0.1500 -0.0460
 6273SOL    HW120751   5.453   2.782   1.738  1.2506 -0.1116  0.4455
 6273SOL    HW220752   5.430   2.716   1.603 -1.2491  0.7092  0.4179
 6274SOL     OW20753   0.665   7.123   0.820 -0.0227  0.1161 -0.1082
 6274SOL    HW120754   0.728   7.195   0.826 -0.8172  0.7463  1.0916
 6274SOL    HW220755   0.625   7.134   0.734 -1.0119  1.8917  0.5331
 6275SOL     OW20756   0.250   3.099   7.093  0.0974  0.1217  0.0182
 6275SOL    HW120757   0.273   3.039   7.163  1.0019  1.4240  0.8742
 6275SOL    HW220758   0.180   3.153   7.130 -0.8948 -0.5216 -0.8360
 6276SOL     OW20759   5.707   2.284   3.144 -0.5402 -0.6029 -0.2416
 6276SOL    HW120760   5.676   2.238   3.066 -0.8399 -0.1481 -0.3994
 6276SOL    HW220761   5.659   2.245   3.217 -0.3602 -0.9355 -0.3011
 6277SOL     OW20762   3.457   1.243   5.748 -0.4788 -0.1090 -0.2334
 6277SOL    HW120763   3.513   1.315   5.720 -1.4201  0.5793 -0.3745
 6277SOL    HW220764   3.519   1.176   5.781  0.3933  0.7935  0.0138
 6278SOL     OW20765   0.589   7.110   3.117  0.5126  0.2440 -0.4326
 6278SOL    HW120766   0.572   7.030   3.167  0.0643  0.9058  0.5106
 6278SOL    HW220767   0.673   7.095   3.074 -0.6090 -1.6249 -2.1301
 6279SOL     OW20768   6.955   4.242   7.095 -0.5360  0.4355 -0.5392
 6279SOL    HW120769   6.958   4.146   7.104 -0.2611  0.5937  1.3329
 6279SOL    HW220770   6.886   4.257   7.030 -0.8708 -1.0162 -0.5631
 6280SOL     OW20771   7.975   4.460   3.850 -0.1045  0.2560 -0.1948
 6280SOL    HW120772   8.021   4.377   3.862  0.6802  0.8471  1.2049
 6280SOL    HW220773   7.887   4.436   3.823  0.1743 -1.0109 -0.0226
 6281SOL     OW20774   7.319   2.784   1.980 -0.2303 -0.2624 -0.2786
 6281SOL    HW120775   7.327   2.766   1.886  0.4055 -0.8455 -0.1206
 6281SOL    HW220776   7.237   2.742   2.006  0.4034 -1.5457 -0.2543
 6282SOL     OW20777   7.332   8.708   7.110 -0.2057 -0.7744 -0.1433
 6282SOL    HW120778   7.237   8.715   7.121 -0.1722 -0.2580 -0.1447
 6282SOL    HW220779   7.361   8.661   7.188 -0.6877 -2.8706 -1.1538
 6283SOL     OW20780   0.089   8.332   1.441  0.4802  0.1113 -0.2650
 6283SOL    HW120781   0.091   8.316   1.536 -0.7225  2.9122  0.3204
 6283SOL    HW220782   0.134   8.415   1.429 -0.8929  0.6820 -1.9092
 6284SOL     OW20783   8.224   0.550   5.103  0.2220 -0.3715 -0.1336
 6284SOL    HW120784   8.129   0.563   5.101  0.4042  1.2089  0.4555
 6284SOL    HW220785   8.252   0.566   5.013  0.2557  2.2687  0.2669
 6285SOL     OW20786   6.364   2.373   6.646 -0.4485 -0.0222  0.9466
 6285SOL    HW120787   6.419   2.307   6.604 -2.3049  0.2057 -2.1706
 6285SOL    HW220788   6.321   2.418   6.574 -2.4090  1.8427  3.0948
 6286SOL     OW20789   0.304   0.716   1.373 -0.0846 -0.0103  0.0656
 6286SOL    HW120790   0.366   0.647   1.398  1.2647  1.1024 -0.0618
 6286SOL    HW220791   0.344   0.797   1.406 -0.0326  1.0887 -2.4468
 6287SOL     OW20792   3.240   8.806   5.105  0.1908  0.3684 -0.1737
 6287SOL    HW120793   3.306   8.766   5.162  0.3254  0.5890 -0.1736
 6287SOL    HW220794   3.202   8.876   5.158  0.6818  0.9151 -0.5378
 6288SOL     OW20795   3.093   0.482   6.428  0.6155 -0.1929 -0.2181
 6288SOL    HW120796   3.009   0.493   6.472  1.1215  0.3261  0.6601
 6288SOL    HW220797   3.153   0.538   6.478  1.2842  0.1658 -1.3802
 6289SOL     OW20798   0.250   2.372   0.200 -0.1927  0.4305 -0.7216
 6289SOL    HW120799   0.162   2.396   0.230 -0.4191 -0.5998 -0.5173
 6289SOL    HW220800   0.302   2.367   0.280 -0.2358 -0.1122 -0.7297
 6290SOL     OW20801   8.118   7.636   1.391 -0.3075  0.1762  0.4918
 6290SOL    HW120802   8.030   7.674   1.396 -0.1230  0.6132  0.4378
 6290SOL    HW220803   8.172   7.705   1.354 -0.1469 -0.4442 -0.4575
 6291SOL     OW20804   7.099   6.910   7.047  0.1412  0.1756  0.0386
 6291SOL    HW120805   7.186   6.884   7.018 -0.5252 -1.9960 -0.1758
 6291SOL    HW220806   7.084   6.858   7.126 -0.8576  0.7335  0.2338
 6292SOL     OW20807   5.292   4.625   3.818  0.0794  0.1100 -0.0314
 6292SOL    HW120808   5.242   4.544   3.820 -0.7537  0.6188  1.3803
 6292SOL    HW220809   5.251   4.678   3.750 -0.0603 -0.2254 -0.2093
 6293SOL     OW20810   6.980   3.930   3.873  0.1937 -0.2636  0.2639
 6293SOL    HW120811   6.916   3.964   3.936  0.6852 -0.7835  1.0665
 6293SOL    HW220812   7.060   3.980   3.891  1.0288 -2.0006  1.6921
 6294SOL     OW20813   7.431   6.765   2.176  0.3640 -0.2624  0.1313
 6294SOL    HW120814   7.373   6.754   2.251 -0.9080 -1.3406 -0.9728
 6294SOL    HW220815   7.516   6.788   2.215 -0.4846  0.1178  1.8328
 6295SOL     OW20816   6.306   8.340   6.050  0.3603  0.4865 -0.5467
 6295SOL    HW120817   6.255   8.337   5.969 -0.5479 -0.8009  0.0360
 6295SOL    HW220818   6.295   8.429   6.082 -4.4041 -0.4716  1.2568
 6296SOL     OW20819   7.650   3.372   1.715 -0.1074  0.3741 -0.5891
 6296SOL    HW120820   7.727   3.331   1.676 -0.0128 -0.4688  0.4170
 6296SOL    HW220821   7.614   3.427   1.646  1.8682  1.4629 -0.8365
 6297SOL     OW20822   1.630   4.949   0.933  0.5187  0.2492 -0.7142
 6297SOL    HW120823   1.726   4.953   0.930  0.4751  1.1533 -1.4876
 6297SOL    HW220824   1.602   5.011   0.866 -0.6156 -1.0151 -1.4517
 6298SOL     OW20825   5.812   0.053   1.972  0.4177  0.4960 -0.6856
 6298SOL    HW120826   5.738   0.017   1.923 -0.2803 -2.6287  2.2475
 6298SOL    HW220827   5.868  -0.023   1.989  3.4612  2.4439 -1.2337
 6299SOL     OW20828   3.561   2.536   4.619 -0.1606  0.7526 -0.6055
 6299SOL    HW120829   3.524   2.449   4.637 -0.0288  0.2596 -2.5133
 6299SOL    HW220830   3.555   2.582   4.703  2.1092 -1.9029  1.1806
 6300SOL     OW20831   5.930   2.769   1.182 -0.0811 -0.4140  0.4495
 6300SOL    HW120832   5.992   2.790   1.253 -0.6059 -0.4815  0.9366
 6300SOL    HW220833   5.863   2.715   1.225 -1.2372  0.8331  0.2462
 6301SOL     OW20834   1.598   6.563   1.897  0.7548  0.5150 -0.4813
 6301SOL    HW120835   1.523   6.539   1.843  0.6018  0.3583 -0.2003
 6301SOL    HW220836   1.562   6.576   1.984  1.3266 -1.4800  0.1177
 6302SOL     OW20837   2.675   1.465   0.898 -0.0012  0.0237  0.0317
 6302SOL    HW120838   2.667   1.377   0.862  0.4266  0.5085 -1.3497
 6302SOL    HW220839   2.757   1.464   0.947  0.0295 -0.3366 -0.0264
 6303SOL     OW20840   0.376   3.817   5.128 -0.0523  0.0158 -0.0636
 6303SOL    HW120841   0.454   3.763   5.140  0.0390  0.5361  2.1182
 6303SOL    HW220842   0.314   3.784   5.193 -0.8130  1.1086 -0.2067
 6304SOL     OW20843   1.376   1.269   5.468  0.2985  0.6667  0.1183
 6304SOL    HW120844   1.363   1.319   5.548 -0.2274  0.2223  0.3242
 6304SOL    HW220845   1.325   1.316   5.402  1.0188  1.2304 -0.0425
 6305SOL     OW20846   8.250   3.022   4.674 -0.1756 -0.3510 -0.0665
 6305SOL    HW120847   8.208   2.937   4.668  0.0175 -0.3379 -2.1281
 6305SOL    HW220848   8.343   3.001   4.684 -0.0982 -0.3907 -0.8440
 6306SOL     OW20849   1.861   4.350   1.713 -0.1636 -0.5653 -0.1972
 6306SOL    HW120850   1.927   4.302   1.664  0.8103  1.2606 -0.7723
 6306SOL    HW220851   1.901   4.367   1.799 -0.3946 -0.5724 -0.0874
 6307SOL     OW20852   2.426   4.424   0.700  0.1114 -0.3800  0.7916
 6307SOL    HW120853   2.349   4.479   0.717  0.6820  1.1343 -1.0539
 6307SOL    HW220854   2.418   4.352   0.762 -2.2238  0.2760  1.3830
 6308SOL     OW20855   3.704   2.665   7.774 -0.0415  0.0555  0.2623
 6308SOL    HW120856   3.741   2.610   7.705 -0.0232  0.9137 -0.4224
 6308SOL    HW220857   3.672   2.743   7.729 -0.5093  0.3967  1.1567
 6309SOL     OW20858   1.938   7.732   7.130 -0.3673  0.1295  0.0300
 6309SOL    HW120859   1.993   7.800   7.169  0.3496 -1.1965  1.4477
 6309SOL    HW220860   1.849   7.754   7.159 -0.1524  0.4722  0.4518
 6310SOL     OW20861   4.071   5.626   6.955 -0.5255  0.4785  0.2107
 6310SOL    HW120862   4.032   5.559   6.899 -1.2979  0.2160  1.0394
 6310SOL    HW220863   4.138   5.667   6.901 -1.3997  0.3757 -0.9757
 6311SOL     OW20864   6.316   1.643   8.542  0.3133 -0.5321  0.2718
 6311SOL    HW120865   6.285   1.620   8.454  0.4042 -1.6324  0.5119
 6311SOL    HW220866   6.239   1.679   8.586 -0.0190 -1.0396  0.1067
 6312SOL     OW20867   1.191   2.502   3.988  0.1111  0.5131  0.2807
 6312SOL    HW120868   1.100   2.491   4.018 -0.0435 -0.9254 -0.6567
 6312SOL    HW220869   1.229   2.562   4.052 -1.5872  1.4317  0.5131
 6313SOL     OW20870   0.152   1.885   4.954  0.4388 -0.2150  0.4005
 6313SOL    HW120871   0.233   1.855   4.997  0.3781 -1.0648 -0.0579
 6313SOL    HW220872   0.158   1.851   4.865 -1.3918 -2.2148  0.9398
 6314SOL     OW20873   7.875   8.465   2.882 -0.3826 -0.3670 -0.0333
 6314SOL    HW120874   7.963   8.486   2.851 -0.1654 -0.3068  0.6154
 6314SOL    HW220875   7.879   8.373   2.909  0.3690  0.4435  2.9527
 6315SOL     OW20876   2.747   1.965   5.864 -0.1645  0.6650 -0.0230
 6315SOL    HW120877   2.823   1.949   5.921  1.0869 -1.3586 -2.0522
 6315SOL    HW220878   2.673   1.926   5.912  0.5278  0.4859  0.9426
 6316SOL     OW20879   2.986   5.617   5.507  0.5906  0.4336  0.0278
 6316SOL    HW120880   3.023   5.681   5.446  1.5599 -0.9923 -0.9507
 6316SOL    HW220881   2.926   5.565   5.453  1.8834 -1.2121  0.1234
 6317SOL     OW20882   0.782   5.163   2.397  0.3090 -0.2284  0.2453
 6317SOL    HW120883   0.733   5.244   2.381  1.3822  0.4689  0.3655
 6317SOL    HW220884   0.840   5.155   2.321  1.8024  0.3508  1.2728
 6318SOL     OW20885   7.938   4.245   7.125  0.1505 -0.4472 -0.5256
 6318SOL    HW120886   8.004   4.300   7.082  1.3998 -2.0030 -0.7080
 6318SOL    HW220887   7.974   4.228   7.212 -0.3247 -0.7775 -0.3914
 6319SOL     OW20888   8.013   2.871   5.762  0.4251 -0.3529  0.4752
 6319SOL    HW120889   7.979   2.783   5.745 -0.3762 -0.2880  1.5923
 6319SOL    HW220890   8.062   2.894   5.683 -0.1638 -1.4151 -0.2224
 6320SOL     OW20891   6.748   4.795   1.683  0.0148  0.6795 -0.3331
 6320SOL    HW120892   6.765   4.708   1.719  0.0995 -0.0674 -2.0880
 6320SOL    HW220893   6.816   4.808   1.616 -0.8736  1.4582 -1.1225
 6321SOL     OW20894   1.880   7.339   0.479  0.0469  0.1593  0.2310
 6321SOL    HW120895   1.831   7.294   0.410 -1.4085  0.3197  1.1222
 6321SOL    HW220896   1.818   7.348   0.551  1.6874 -0.5733  1.8436
 6322SOL     OW20897   6.507   2.031   1.943  0.2847 -0.2962 -0.2930
 6322SOL    HW120898   6.431   2.073   1.902 -0.5115 -1.9166 -0.5496
 6322SOL    HW220899   6.478   2.011   2.032  0.3004 -1.1719 -0.4757
 6323SOL     OW20900   3.318   4.656   5.112 -0.3000  0.1334 -0.0188
 6323SOL    HW120901   3.230   4.625   5.089 -0.4277  1.7246 -1.9731
 6323SOL    HW220902   3.313   4.751   5.102  2.0592  0.1583 -1.9774
 6324SOL     OW20903   7.507   4.234   5.084 -0.0925 -0.2959  0.4682
 6324SOL    HW120904   7.426   4.188   5.061 -0.5256  0.8795 -0.4630
 6324SOL    HW220905   7.573   4.198   5.023 -0.5190  0.5430 -0.5251
 6325SOL     OW20906   3.866   2.781   1.389 -0.2597 -0.1645 -0.0839
 6325SOL    HW120907   3.800   2.792   1.457 -0.8543 -1.6271 -0.3921
 6325SOL    HW220908   3.933   2.724   1.428  0.3178  0.4715 -0.1221
 6326SOL     OW20909   3.220   4.973   6.603 -0.3978 -0.3153 -0.2621
 6326SOL    HW120910   3.136   4.952   6.563 -0.1571 -0.8949 -0.4754
 6326SOL    HW220911   3.283   4.971   6.531 -0.4553  1.9394 -0.4555
 6327SOL     OW20912   1.262   0.926   3.550  0.2973 -0.2770  0.3786
 6327SOL    HW120913   1.269   0.980   3.471 -0.0111  1.2860  1.3870
 6327SOL    HW220914   1.309   0.975   3.617 -3.3104  0.8028  2.3540
 6328SOL     OW20915   2.594   3.299   0.647  0.4182 -0.1706  0.1169
 6328SOL    HW120916   2.654   3.292   0.572 -0.2803  1.2928 -0.6146
 6328SOL    HW220917   2.507   3.286   0.610 -0.0843  2.1635  0.3365
 6329SOL     OW20918   4.452   8.064   6.833 -0.1038 -0.2077  0.0909
 6329SOL    HW120919   4.395   7.995   6.798 -0.3690  0.7398 -1.4089
 6329SOL    HW220920   4.525   8.016   6.873  0.5904 -1.3894 -2.3829
 6330SOL     OW20921   8.527   6.063   3.067 -0.1147  0.2601  0.2347
 6330SOL    HW120922   8.499   6.152   3.046 -0.2536 -0.3283 -2.5013
 6330SOL    HW220923   8.527   6.060   3.162 -1.2781  2.8044  0.4154
 6331SOL     OW20924   8.368   5.890   1.628  0.9048 -0.2151  0.0490
 6331SOL    HW120925   8.394   5.848   1.546  0.5506 -0.5843  0.1206
 6331SOL    HW220926   8.273   5.875   1.633  1.1137 -1.3409  1.1711
 6332SOL     OW20927   1.628   8.636   0.769  0.3308 -0.9003  0.6924
 6332SOL    HW120928   1.657   8.610   0.857  0.6182 -0.3892  0.7535
 6332SOL    HW220929   1.620   8.554   0.721  5.3547 -1.0493 -0.4343
 6333SOL     OW20930   7.476   8.624   4.158 -0.2051  0.0994  0.3677
 6333SOL    HW120931   7.540   8.563   4.194  0.3082  0.5407  0.2134
 6333SOL    HW220932   7.395   8.573   4.153  0.6748 -1.2379 -1.6976
 6334SOL     OW20933   3.298   0.269   1.200 -0.2662  0.2574  0.0790
 6334SOL    HW120934   3.298   0.346   1.257  0.3948  0.3452 -0.0281
 6334SOL    HW220935   3.317   0.304   1.113 -0.6556  0.0512 -0.0912
 6335SOL     OW20936   4.085   6.465   5.585 -0.3971 -0.3194 -0.4912
 6335SOL    HW120937   4.019   6.524   5.548  0.8398  1.3200 -0.1617
 6335SOL    HW220938   4.159   6.471   5.525  0.9505  0.9835  1.1872
 6336SOL     OW20939   7.497   6.927   4.402 -0.4907  0.4856 -0.1812
 6336SOL    HW120940   7.450   6.914   4.485 -0.4409  0.7294 -0.1128
 6336SOL    HW220941   7.534   6.842   4.382 -0.1396  0.5265  0.2707
 6337SOL     OW20942   4.452   4.865   6.098 -0.1469  0.2104  0.1477
 6337SOL    HW120943   4.513   4.937   6.110 -0.3559  0.5411 -0.7088
 6337SOL    HW220944   4.451   4.850   6.004 -1.9649  0.7331  0.0491
 6338SOL     OW20945   7.776   2.935   5.933  0.4358  0.8760  0.2048
 6338SOL    HW120946   7.819   2.997   5.991  1.4613  1.2867 -0.9612
 6338SOL    HW220947   7.845   2.906   5.873  0.2308 -2.0222  1.1860
 6339SOL     OW20948   4.390   4.670   4.967  0.4709  0.4468  0.5739
 6339SOL    HW120949   4.348   4.603   4.913 -0.2108  0.8031  0.6554
 6339SOL    HW220950   4.370   4.752   4.922 -0.6554  0.8125  1.7023
 6340SOL     OW20951   0.615   6.784   2.591 -0.6835 -0.4336 -0.0607
 6340SOL    HW120952   0.671   6.842   2.540  0.6820  1.0615  2.9171
 6340SOL    HW220953   0.534   6.833   2.605 -0.4763 -0.2211  0.4188
 6341SOL     OW20954   8.366   3.158   6.736  0.3246 -0.1355  1.0362
 6341SOL    HW120955   8.457   3.158   6.707  0.4136  1.2982  1.2363
 6341SOL    HW220956   8.337   3.067   6.724  1.3294 -0.3004 -0.3887
 6342SOL     OW20957   6.513   0.092   1.643 -0.2308 -0.0229 -0.3824
 6342SOL    HW120958   6.417   0.103   1.644 -0.1484  1.4393 -2.3463
 6342SOL    HW220959   6.528   0.025   1.576  0.0999 -1.1697  0.7979
 6343SOL     OW20960   8.160   5.266   2.333 -0.6792  0.0535 -0.2535
 6343SOL    HW120961   8.229   5.310   2.283  0.7471 -0.5438  1.0884
 6343SOL    HW220962   8.078   5.294   2.292  0.2299  2.6534 -0.4558
 6344SOL     OW20963   4.900   8.856   8.632  0.2411 -0.1824  0.1063
 6344SOL    HW120964   4.939   8.856   8.719  0.1341 -1.5680  0.1641
 6344SOL    HW220965   4.862   8.769   8.622  1.1948 -0.4311 -1.7398
 6345SOL     OW20966   6.803   2.565   1.582 -0.1987 -0.0213 -0.2559
 6345SOL    HW120967   6.750   2.486   1.594 -0.0324 -0.3839 -1.6534
 6345SOL    HW220968   6.892   2.533   1.573  0.3529  0.6030  2.2549
 6346SOL     OW20969   4.489   7.237   5.436 -0.2905  0.2320 -0.1360
 6346SOL    HW120970   4.442   7.185   5.370  1.3631 -0.1243 -1.0792
 6346SOL    HW220971   4.447   7.214   5.519 -0.7404 -1.2774 -0.7533
 6347SOL     OW20972   5.608   2.940   4.614  0.1190 -0.1062  0.0358
 6347SOL    HW120973   5.640   2.852   4.595 -1.9582 -1.2596  1.4215
 6347SOL    HW220974   5.551   2.928   4.690 -0.2589  2.4548  0.2326
 6348SOL     OW20975   1.289   3.949   8.241  0.0299 -0.3317 -0.0003
 6348SOL    HW120976   1.312   4.042   8.241  0.6330 -0.3927 -3.0423
 6348SOL    HW220977   1.215   3.943   8.302  0.5280  1.9587  0.9290
 6349SOL     OW20978   0.515   8.267   4.319 -0.1059  0.0772  0.5529
 6349SOL    HW120979   0.545   8.281   4.409  0.6079  0.0008  0.3307
 6349SOL    HW220980   0.593   8.281   4.265 -0.3216 -0.7351  0.0149
 6350SOL     OW20981   6.053   7.523   0.827 -0.2778 -0.5484 -0.6750
 6350SOL    HW120982   6.072   7.608   0.787 -0.2024  0.4265  1.3373
 6350SOL    HW220983   6.002   7.544   0.905  0.4494 -2.2809  0.3165
 6351SOL     OW20984   5.245   0.765   1.109 -0.0006 -0.3316 -0.5937
 6351SOL    HW120985   5.248   0.755   1.204  0.2443 -0.9104 -0.6541
 6351SOL    HW220986   5.153   0.782   1.090  0.2884  2.1592 -0.0611
 6352SOL     OW20987   8.712   1.060   2.470  0.4986  0.2216  0.6542
 6352SOL    HW120988   8.618   1.068   2.487  0.3744 -0.1025  0.1177
 6352SOL    HW220989   8.721   1.070   2.376  1.1646  1.6710  0.8436
 6353SOL     OW20990   4.162   7.555   0.345 -0.0700  0.1251 -0.1756
 6353SOL    HW120991   4.235   7.540   0.404  1.2355  0.8778 -1.5270
 6353SOL    HW220992   4.139   7.647   0.358 -0.8629 -0.1277  0.3053
 6354SOL     OW20993   5.771   5.141   8.805 -0.2006 -0.1036  0.4348
 6354SOL    HW120994   5.740   5.228   8.776 -0.7666 -0.3556  0.2660
 6354SOL    HW220995   5.693   5.098   8.839  0.1038 -0.5072  0.6305
 6355SOL     OW20996   0.506   5.642   4.692 -0.1092 -0.6707 -0.2923
 6355SOL    HW120997   0.577   5.578   4.688 -0.6108 -1.2805  0.4427
 6355SOL    HW220998   0.469   5.642   4.604 -1.3792 -2.8705  0.1787
 6356SOL     OW20999   4.572   3.455   1.638 -0.7688  0.0997 -0.2021
 6356SOL    HW121000   4.607   3.488   1.720  0.4401  0.0680 -0.6820
 6356SOL    HW221001   4.649   3.430   1.587 -1.5167 -0.4294 -1.1168
 6357SOL     OW21002   3.222   2.099   8.584  0.2774 -0.0631  0.2508
 6357SOL    HW121003   3.262   2.021   8.622  0.9342  0.2664  0.2561
 6357SOL    HW221004   3.291   2.138   8.531 -0.6533 -0.5505 -1.3750
 6358SOL     OW21005   0.971   7.920   1.958  0.5386 -0.2847  0.3349
 6358SOL    HW121006   0.920   7.853   2.003 -1.4126  0.5190 -0.5669
 6358SOL    HW221007   1.047   7.873   1.924 -1.0879 -2.2228 -0.8536
 6359SOL     OW21008   6.821   5.046   3.251  0.0041 -0.0949  0.4863
 6359SOL    HW121009   6.747   4.998   3.216  0.1107 -0.5260  0.8466
 6359SOL    HW221010   6.821   5.025   3.344 -1.0510  2.0234  1.0428
 6360SOL     OW21011   4.147   4.093   7.604 -0.1681 -0.1388 -0.5899
 6360SOL    HW121012   4.074   4.119   7.548 -1.3284  0.1623  0.9965
 6360SOL    HW221013   4.203   4.171   7.609  1.1693 -0.8382 -3.0651
 6361SOL     OW21014   6.241   6.716   2.012  0.4813  0.4143 -0.4882
 6361SOL    HW121015   6.317   6.771   2.032  0.1544  0.7237 -0.0916
 6361SOL    HW221016   6.271   6.660   1.941  0.8737  0.9849 -0.7802
 6362SOL     OW21017   3.922   5.650   7.787  0.7533 -0.5397  0.2695
 6362SOL    HW121018   3.849   5.589   7.798  0.2587  0.1008  0.5673
 6362SOL    HW221019   3.983   5.626   7.857 -0.4791  0.7681  1.8924
 6363SOL     OW21020   5.670   1.780   8.566  0.2763  0.1967  0.2344
 6363SOL    HW121021   5.724   1.810   8.639  0.2080  1.2312 -0.1283
 6363SOL    HW221022   5.718   1.807   8.488 -0.3063  0.3066 -0.0940
 6364SOL     OW21023   4.540   0.619   7.815 -0.0141 -0.0092  0.2047
 6364SOL    HW121024   4.497   0.592   7.895 -0.5043 -1.1075 -0.4095
 6364SOL    HW221025   4.541   0.541   7.760  0.1495  0.7578 -0.9318
 6365SOL     OW21026   1.512   2.763   0.889 -0.0076  0.6483  0.1522
 6365SOL    HW121027   1.457   2.762   0.968  0.1525  2.8116  0.3672
 6365SOL    HW221028   1.451   2.781   0.818  0.3374  3.4959  0.4434
 6366SOL     OW21029   0.294   8.801   0.649 -0.4317  0.1570 -0.7721
 6366SOL    HW121030   0.374   8.761   0.682 -1.3355 -0.0285  1.3266
 6366SOL    HW221031   0.324   8.877   0.599  1.0710 -0.4621 -0.8578
 6367SOL     OW21032   1.912   7.017   2.041  0.0485  0.0830 -0.1395
 6367SOL    HW121033   1.957   7.078   1.982 -1.3372  1.0958 -0.1943
 6367SOL    HW221034   1.981   6.957   2.069  1.0707  0.5426 -1.5324
 6368SOL     OW21035   5.434   0.795   2.658  0.2879  0.5794  0.2953
 6368SOL    HW121036   5.424   0.878   2.611 -1.5228 -0.1406 -0.6559
 6368SOL    HW221037   5.383   0.806   2.738  0.3844  0.5053  0.3686
 6369SOL     OW21038   1.792   8.417   6.888 -0.2128 -0.0527  0.3176
 6369SOL    HW121039   1.848   8.340   6.893  0.1249  0.1967  0.3618
 6369SOL    HW221040   1.752   8.412   6.801  0.6025  0.2697 -0.0898
 6370SOL     OW21041   7.768   5.528   2.340 -0.2020  0.0891 -0.1163
 6370SOL    HW121042   7.766   5.618   2.372  2.7923  0.7743 -1.5738
 6370SOL    HW221043   7.678   5.511   2.311 -0.9438  2.4058  0.6403
 6371SOL     OW21044   2.258   8.861   3.020 -0.1065  0.0290 -0.1283
 6371SOL    HW121045   2.170   8.845   2.985 -0.4664  0.4721  0.5657
 6371SOL    HW221046   2.250   8.941   3.070  0.3915 -0.6256  1.0384
 6372SOL     OW21047   0.992   7.365   4.770 -0.0966  0.0577 -1.2050
 6372SOL    HW121048   0.964   7.304   4.837 -1.2544  1.6717 -0.1349
 6372SOL    HW221049   1.007   7.311   4.692 -1.0369 -1.5482 -0.3139
 6373SOL     OW21050   5.406   6.888   1.762  0.0924  0.1570  0.0831
 6373SOL    HW121051   5.360   6.972   1.767  1.0468  0.7254 -0.3526
 6373SOL    HW221052   5.481   6.898   1.820  0.9729  0.1143 -1.0113
 6374SOL     OW21053   4.370   5.353   6.451 -0.1983  0.4499  0.0081
 6374SOL    HW121054   4.382   5.308   6.535 -0.2414 -0.0420 -0.2497
 6374SOL    HW221055   4.448   5.409   6.443  1.1700 -1.4757 -0.8579
 6375SOL     OW21056   3.594   8.672   8.012 -0.1630 -0.2337  0.4418
 6375SOL    HW121057   3.582   8.694   7.919  1.1860 -0.8009  0.1070
 6375SOL    HW221058   3.509   8.689   8.052 -0.8420 -0.2339 -0.9517
 6376SOL     OW21059   4.951   0.559   4.032  0.2419  0.6152 -0.9237
 6376SOL    HW121060   4.953   0.478   4.083 -2.4558  0.5597 -0.7658
 6376SOL    HW221061   5.028   0.607   4.061 -0.1332 -0.2649  1.8135
 6377SOL     OW21062   8.084   0.313   3.366  0.0684 -0.0377  0.4524
 6377SOL    HW121063   8.160   0.308   3.424 -0.7725  0.7955  1.6555
 6377SOL    HW221064   8.025   0.375   3.408  0.0856  1.8594 -2.0950
 6378SOL     OW21065   2.332   0.480   1.161 -0.3917 -0.1456 -0.4825
 6378SOL    HW121066   2.415   0.435   1.143  0.3487 -0.2272  2.5312
 6378SOL    HW221067   2.278   0.412   1.203 -0.3929  0.9121  1.3286
 6379SOL     OW21068   4.175   4.717   5.995 -0.0994  0.6147 -0.1529
 6379SOL    HW121069   4.268   4.695   5.993 -0.2517 -0.4168  1.5544
 6379SOL    HW221070   4.172   4.807   6.027  0.2948  0.1837  1.1478
 6380SOL     OW21071   1.137   2.586   7.826 -0.1737  0.2334 -0.4749
 6380SOL    HW121072   1.087   2.506   7.841  0.3772 -0.0833 -0.2539
 6380SOL    HW221073   1.094   2.628   7.752 -0.2360 -0.4675 -0.8514
 6381SOL     OW21074   7.968   2.010   5.340 -0.4394 -0.5412  0.4583
 6381SOL    HW121075   7.884   2.013   5.385 -0.3176  1.5591  0.6760
 6381SOL    HW221076   7.947   2.002   5.247 -0.9318  0.5243  0.4645
 6382SOL     OW21077   7.839   7.269   8.818 -0.2400 -0.2418 -0.0005
 6382SOL    HW121078   7.904   7.303   8.756 -1.2326  3.1713  0.6241
 6382SOL    HW221079   7.890   7.248   8.897  0.4809 -0.4273 -0.5058
 6383SOL     OW21080   5.375   5.918   7.358 -0.2672  0.7302 -0.3884
 6383SOL    HW121081   5.339   5.836   7.325  0.8806  0.4214 -0.9220
 6383SOL    HW221082   5.303   5.957   7.408  0.2066 -2.3548  3.1088
 6384SOL     OW21083   0.731   4.988   2.572 -0.1777  0.6024  0.0434
 6384SOL    HW121084   0.761   5.050   2.505 -2.0969 -0.6952 -2.1358
 6384SOL    HW221085   0.646   5.023   2.600 -1.1137 -0.7660 -0.9541
 6385SOL     OW21086   6.526   7.010   8.484  0.5776  0.8094 -0.4504
 6385SOL    HW121087   6.468   6.966   8.545  0.3371 -0.1407 -1.3355
 6385SOL    HW221088   6.540   7.097   8.522  0.9663  0.0262  1.2751
 6386SOL     OW21089   7.782   2.121   8.558 -0.3593 -0.1200  0.3864
 6386SOL    HW121090   7.716   2.077   8.505  1.4300 -0.4385 -1.7610
 6386SOL    HW221091   7.759   2.214   8.554 -2.2900 -0.4388  2.1995
 6387SOL     OW21092   8.527   1.944   8.600  0.1302  0.0320  0.3228
 6387SOL    HW121093   8.596   1.904   8.653  1.1682  1.8220  0.4047
 6387SOL    HW221094   8.463   1.977   8.664  0.7635  1.0856  0.4426
 6388SOL     OW21095   2.989   7.956   6.556  0.0043  0.1022 -0.0049
 6388SOL    HW121096   3.030   8.008   6.487  0.5267  0.1887  0.3625
 6388SOL    HW221097   3.062   7.911   6.599 -0.2474  0.4724  0.8375
 6389SOL     OW21098   7.812   6.988   0.599 -0.0747 -0.6568 -0.7186
 6389SOL    HW121099   7.888   6.949   0.642 -0.5441  0.9731  1.7462
 6389SOL    HW221100   7.748   6.917   0.596 -0.1790 -0.7459  1.7631
 6390SOL     OW21101   5.334   3.130   7.720 -0.1888 -0.5520  0.1175
 6390SOL    HW121102   5.305   3.198   7.660  2.2735 -0.7899 -1.4862
 6390SOL    HW221103   5.358   3.056   7.663 -0.2281 -1.7604  1.5955
 6391SOL     OW21104   3.020   4.232   3.183  0.6415  0.2711 -0.3789
 6391SOL    HW121105   3.081   4.176   3.136  1.5537  1.7247 -0.9945
 6391SOL    HW221106   3.074   4.281   3.245  0.2954  2.2307 -1.5484
 6392SOL     OW21107   7.695   6.984   0.076  0.0498 -0.0598  0.5675
 6392SOL    HW121108   7.782   6.944   0.074 -0.4223 -1.1112 -2.3904
 6392SOL    HW221109   7.637   6.921   0.034 -1.3222  2.3525 -1.4587
 6393SOL     OW21110   2.898   4.066   7.000  0.1894 -0.0768  0.2263
 6393SOL    HW121111   2.924   3.990   7.053  1.8636 -0.6999 -1.3694
 6393SOL    HW221112   2.807   4.049   6.976  0.5269 -1.5832 -0.0711
 6394SOL     OW21113   6.977   3.818   6.490  0.0426  0.0505 -0.5131
 6394SOL    HW121114   6.995   3.906   6.456 -0.5455  0.7405  0.8898
 6394SOL    HW221115   6.903   3.787   6.438  1.1262 -0.2260 -1.9711
 6395SOL     OW21116   3.442   7.068   0.356 -0.4251  0.4986  0.2091
 6395SOL    HW121117   3.371   7.123   0.325 -2.4700 -1.4275  1.2115
 6395SOL    HW221118   3.426   7.058   0.450 -0.9243 -2.7303 -0.1041
 6396SOL     OW21119   0.054   0.118   5.662 -0.4379 -0.0245  0.0008
 6396SOL    HW121120   0.053   0.042   5.720 -0.2067 -0.3363 -0.4024
 6396SOL    HW221121   0.077   0.083   5.576 -0.2885  0.5050 -0.1803
 6397SOL     OW21122   2.234   8.073   3.201 -0.5599 -0.5122 -0.3747
 6397SOL    HW121123   2.317   8.082   3.247 -1.1674 -0.1109  0.6885
 6397SOL    HW221124   2.239   7.988   3.157  0.1430 -0.7895  0.2276
 6398SOL     OW21125   3.841   8.317   6.545 -0.3107 -0.1106 -0.0065
 6398SOL    HW121126   3.898   8.280   6.612  0.4210  0.1092 -0.4812
 6398SOL    HW221127   3.767   8.257   6.540  0.0699 -0.6239  0.3603
 6399SOL     OW21128   7.530   7.274   3.001 -0.5777 -0.2091 -0.5197
 6399SOL    HW121129   7.440   7.261   2.972 -0.2662 -0.2934 -1.4978
 6399SOL    HW221130   7.570   7.187   2.993 -0.4452 -0.2042  0.0494
 6400SOL     OW21131   2.308   5.089   5.502  0.2347 -0.4807  0.4074
 6400SOL    HW121132   2.336   5.036   5.576  0.6721 -2.5914 -1.1695
 6400SOL    HW221133   2.387   5.137   5.475  0.3627 -0.5738  0.6153
 6401SOL     OW21134   3.908   0.497   6.224  0.3296 -0.7804  0.1304
 6401SOL    HW121135   3.850   0.553   6.173  1.6900  3.0115  2.3502
 6401SOL    HW221136   3.987   0.489   6.170  0.1903 -0.3824 -0.1337
 6402SOL     OW21137   1.084   2.438   6.002  0.2834  0.5075 -0.1345
 6402SOL    HW121138   1.121   2.512   5.953 -0.1973  0.3884 -0.6871
 6402SOL    HW221139   1.134   2.436   6.083  0.7568  1.0239 -0.4043
 6403SOL     OW21140   5.594   6.030   7.754  0.4821 -0.1540 -0.0409
 6403SOL    HW121141   5.571   5.940   7.733  0.4724  0.1248 -1.3605
 6403SOL    HW221142   5.513   6.069   7.788  0.3879 -0.5381  0.1753
 6404SOL     OW21143   5.305   8.710   3.274  0.6307 -0.3043 -0.2185
 6404SOL    HW121144   5.263   8.796   3.265  0.5767 -0.2620  0.3640
 6404SOL    HW221145   5.394   8.724   3.240  0.0482 -0.5190 -1.8882
 6405SOL     OW21146   8.801   8.258   6.407  0.5450 -0.1775  0.2589
 6405SOL    HW121147   8.778   8.342   6.448  1.0228 -0.2497  0.6886
 6405SOL    HW221148   8.790   8.273   6.313  0.1293  0.2119  0.3701
 6406SOL     OW21149   5.452   4.679   5.630  0.2621 -0.4010  0.9954
 6406SOL    HW121150   5.526   4.687   5.569  1.2449 -2.9079  1.7381
 6406SOL    HW221151   5.399   4.608   5.595 -0.8854  0.2259  1.4106
 6407SOL     OW21152   3.538   7.010   8.132 -0.0739 -0.3580 -0.3114
 6407SOL    HW121153   3.530   7.100   8.162 -1.3033 -0.4211 -0.3704
 6407SOL    HW221154   3.631   6.997   8.117  0.0194  1.2558 -1.3401
 6408SOL     OW21155   7.714   4.554   2.338  0.3958  0.3217  0.0608
 6408SOL    HW121156   7.737   4.513   2.421 -0.3735  0.4355  0.3443
 6408SOL    HW221157   7.733   4.488   2.272  2.1080  0.6330  0.1878
 6409SOL     OW21158   2.694   3.573   0.018  0.1254  0.1559 -0.0587
 6409SOL    HW121159   2.718   3.600  -0.070  0.7468 -0.5509 -0.1186
 6409SOL    HW221160   2.662   3.483   0.007  0.7988 -0.1601  0.5196
 6410SOL     OW21161   8.000   7.242   4.189  0.3470  0.0086 -1.3610
 6410SOL    HW121162   8.084   7.232   4.145  0.6683 -0.4702 -0.6643
 6410SOL    HW221163   7.986   7.158   4.232 -1.4094 -0.6479 -3.0197
 6411SOL     OW21164   2.645   1.397   8.608 -0.0525  1.1856  0.0179
 6411SOL    HW121165   2.657   1.431   8.519  3.3897 -0.9880 -0.5402
 6411SOL    HW221166   2.579   1.455   8.647  0.1362  3.7852 -3.0904
 6412SOL     OW21167   5.113   7.940   3.435  0.5469  0.2876  0.4184
 6412SOL    HW121168   5.076   7.910   3.352 -1.0639  0.8042  0.9012
 6412SOL    HW221169   5.056   7.901   3.501  2.6314 -1.2478  1.3927
 6413SOL     OW21170   3.292   8.570   6.281 -0.2636 -0.2618 -0.3329
 6413SOL    HW121171   3.212   8.604   6.321  0.1856 -0.4324  0.7426
 6413SOL    HW221172   3.347   8.648   6.268 -0.4247 -0.2015 -0.6699
 6414SOL     OW21173   7.454   4.668   8.835 -0.2270  0.0203 -0.5528
 6414SOL    HW121174   7.364   4.695   8.815 -1.0586 -1.2090  1.1730
 6414SOL    HW221175   7.466   4.587   8.785  0.3031  0.7109 -1.5609
 6415SOL     OW21176   7.867   5.164   4.138 -0.3252 -0.1511 -0.4337
 6415SOL    HW121177   7.842   5.256   4.143  0.3699  0.0057  0.3490
 6415SOL    HW221178   7.953   5.165   4.096  1.0876 -0.1601  2.2809
 6416SOL     OW21179   1.057   4.256   5.692 -0.2992  0.2370  0.3292
 6416SOL    HW121180   1.151   4.268   5.683  0.1842 -2.1609  1.3841
 6416SOL    HW221181   1.034   4.195   5.623 -0.3309 -2.0431  2.2212
 6417SOL     OW21182   4.298   0.594   8.614  0.3841 -0.3213 -1.0144
 6417SOL    HW121183   4.230   0.578   8.549  1.3956 -0.9572 -1.9706
 6417SOL    HW221184   4.308   0.511   8.660 -3.0859  1.1035  2.8582
 6418SOL     OW21185   6.764   3.308   2.147 -0.3081 -0.0645 -0.1518
 6418SOL    HW121186   6.729   3.221   2.129 -0.2177  0.3023 -2.3940
 6418SOL    HW221187   6.849   3.292   2.187 -0.5619 -0.9870  0.0439
 6419SOL     OW21188   0.510   3.885   1.555 -0.1621  0.0210 -0.0242
 6419SOL    HW121189   0.601   3.898   1.582 -0.7033  0.4091  1.7194
 6419SOL    HW221190   0.496   3.949   1.486  0.3482  1.3326  1.0448
 6420SOL     OW21191   0.113   3.752   2.315 -0.0883 -0.2310  0.2346
 6420SOL    HW121192   0.094   3.697   2.391 -0.3880  0.2940  0.5441
 6420SOL    HW221193   0.028   3.770   2.276 -0.0763  0.6813  0.6091
 6421SOL     OW21194   0.296   8.328   1.673  0.0495  0.3423 -0.3054
 6421SOL    HW121195   0.327   8.238   1.679  0.9611  0.6396 -0.3415
 6421SOL    HW221196   0.339   8.363   1.595 -0.6221  0.6913 -0.5280
 6422SOL     OW21197   2.085   6.365   2.223  0.2649 -0.5588  0.1834
 6422SOL    HW121198   2.128   6.391   2.304 -0.2564  1.4839 -0.1344
 6422SOL    HW221199   2.086   6.269   2.224  2.0547 -0.5648  1.6129
 6423SOL     OW21200   3.332   8.631   0.318 -0.3119  0.4095 -0.1348
 6423SOL    HW121201   3.236   8.628   0.311 -0.3951  0.5713  0.8528
 6423SOL    HW221202   3.362   8.624   0.227 -1.2328 -0.6528 -0.3841
 6424SOL     OW21203   5.651   2.511   8.434 -0.2739 -0.1451 -0.1103
 6424SOL    HW121204   5.598   2.585   8.463  0.1604  0.0801  0.1234
 6424SOL    HW221205   5.642   2.446   8.504  0.2434  0.1363  0.2242
 6425SOL     OW21206   2.336   2.770   7.706 -0.1917 -0.3614 -0.2661
 6425SOL    HW121207   2.324   2.855   7.749 -0.5339 -0.4686 -0.1426
 6425SOL    HW221208   2.316   2.707   7.775 -3.2288 -0.5659 -1.1774
 6426SOL     OW21209   4.264   2.958   8.688 -0.2243 -0.3338  0.1279
 6426SOL    HW121210   4.272   2.901   8.613 -0.2664  0.4100 -0.4565
 6426SOL    HW221211   4.253   2.899   8.763 -0.3093 -1.0712 -0.4593
 6427SOL     OW21212   7.827   0.604   7.346 -0.0616  0.5690 -0.2166
 6427SOL    HW121213   7.744   0.557   7.337 -0.7406  0.8574  3.2317
 6427SOL    HW221214   7.892   0.535   7.358 -0.3574  0.3870  0.3993
 6428SOL     OW21215   5.833   6.321   2.316 -0.6309 -0.0694  0.4060
 6428SOL    HW121216   5.926   6.320   2.337 -0.5928 -1.3799  0.2425
 6428SOL    HW221217   5.806   6.411   2.333  1.1131  0.9176 -1.4929
 6429SOL     OW21218   5.361   8.199   2.466 -0.4774 -0.0353  0.0376
 6429SOL    HW121219   5.377   8.114   2.425 -0.5122  0.5309 -1.1779
 6429SOL    HW221220   5.283   8.233   2.424 -0.9611  0.2431  1.1181
 6430SOL     OW21221   6.988   1.953   4.693 -0.4095 -0.7893  0.8272
 6430SOL    HW121222   7.010   2.046   4.683  0.1269 -0.9257  0.6938
 6430SOL    HW221223   7.009   1.915   4.608  2.6147 -1.6620  1.8339
 6431SOL     OW21224   0.780   8.754   4.063  0.2552  0.1681  0.2416
 6431SOL    HW121225   0.814   8.692   4.127  1.4817  0.4651 -0.0887
 6431SOL    HW221226   0.689   8.768   4.088  0.1452 -1.2302  0.7307
 6432SOL     OW21227   6.435   3.545   1.809  0.5962 -0.8323 -0.2831
 6432SOL    HW121228   6.488   3.473   1.844 -0.9163 -0.8674  2.2372
 6432SOL    HW221229   6.365   3.502   1.760  0.0117 -1.0949  0.7502
 6433SOL     OW21230   5.710   4.994   2.122 -0.0919  0.0531  0.0751
 6433SOL    HW121231   5.786   5.016   2.068 -0.7813  0.0049 -0.9421
 6433SOL    HW221232   5.721   5.046   2.201  0.4648  0.8408 -0.5045
 6434SOL     OW21233   1.298   0.324   2.945 -0.0548 -0.2869 -0.4138
 6434SOL    HW121234   1.357   0.323   2.869 -1.4435  1.3499 -1.5725
 6434SOL    HW221235   1.306   0.236   2.982  1.7680 -0.6632 -1.5647
 6435SOL     OW21236   3.025   5.089   2.268 -0.2442 -0.6268 -0.0771
 6435SOL    HW121237   2.963   5.102   2.197 -0.6313  1.0428  0.5304
 6435SOL    HW221238   2.997   5.008   2.310 -1.9423  0.0245  0.1040
 6436SOL     OW21239   8.438   6.367   1.343  0.1915  0.0837 -0.4728
 6436SOL    HW121240   8.455   6.437   1.406 -1.2060  1.3272 -1.4127
 6436SOL    HW221241   8.516   6.365   1.287  1.3240 -0.8499  1.0775
 6437SOL     OW21242   3.952   7.034   2.813 -0.0027 -0.1826  0.1845
 6437SOL    HW121243   3.910   6.957   2.850 -0.2789  0.2648  0.8148
 6437SOL    HW221244   3.890   7.067   2.748 -0.1071 -0.2089  0.2701
 6438SOL     OW21245   7.344   5.046   3.591 -0.2384  0.5319  0.1478
 6438SOL    HW121246   7.257   5.022   3.560  0.3766 -0.6537 -0.7268
 6438SOL    HW221247   7.401   4.975   3.562  1.4750  2.4113 -1.4674
 6439SOL     OW21248   3.615   4.842   1.077  0.3866 -0.2534 -0.3989
 6439SOL    HW121249   3.629   4.932   1.048  0.0243  0.9980  2.9538
 6439SOL    HW221250   3.676   4.830   1.149  0.0985 -2.5696 -0.4697
 6440SOL     OW21251   1.920   2.116   3.454 -0.5411 -0.1755 -0.1101
 6440SOL    HW121252   1.990   2.087   3.511 -1.7566 -0.4692  1.2925
 6440SOL    HW221253   1.959   2.186   3.401  0.5540  0.2983  1.2733
 6441SOL     OW21254   3.192   4.071   7.109  0.5002 -0.5228 -0.3069
 6441SOL    HW121255   3.098   4.051   7.104 -0.5942  3.0182  2.3537
 6441SOL    HW221256   3.211   4.117   7.027  0.2055 -1.9395 -1.2149
 6442SOL     OW21257   5.786   7.872   6.711  0.3580 -0.5513 -0.6182
 6442SOL    HW121258   5.762   7.855   6.620  1.1148  1.3614 -1.2156
 6442SOL    HW221259   5.761   7.963   6.726  1.6017 -0.3856  0.6259
 6443SOL     OW21260   3.384   4.497   8.135  0.7365 -0.0258  0.4599
 6443SOL    HW121261   3.399   4.531   8.223  0.2826  0.3115  0.4106
 6443SOL    HW221262   3.388   4.573   8.078 -0.8507  0.0683  0.4148
 6444SOL     OW21263   4.446   7.963   8.173 -0.0123 -0.2473 -0.1680
 6444SOL    HW121264   4.418   7.997   8.258 -0.2164  0.7210 -0.6028
 6444SOL    HW221265   4.375   7.987   8.114 -0.2875 -1.7123 -0.4458
 6445SOL     OW21266   0.719   8.372   6.417  0.4301  0.2142 -0.4261
 6445SOL    HW121267   0.638   8.351   6.463  0.4461  0.0275 -0.4827
 6445SOL    HW221268   0.708   8.462   6.388  0.4549  0.3636  0.0185
 6446SOL     OW21269   5.650   8.802   7.558  0.1009  0.7563  0.0109
 6446SOL    HW121270   5.610   8.821   7.473  1.4824  4.5508 -0.0084
 6446SOL    HW221271   5.617   8.870   7.616  1.2098 -0.1696  1.8297
 6447SOL     OW21272   7.982   3.331   2.380 -0.0971 -0.0945 -0.1629
 6447SOL    HW121273   7.956   3.423   2.383 -1.9506 -0.6074  1.5215
 6447SOL    HW221274   7.941   3.297   2.300  2.6664  1.0095 -2.2099
 6448SOL     OW21275   1.331   8.047   5.561 -0.0387 -0.0059 -0.1166
 6448SOL    HW121276   1.375   8.085   5.485 -2.3787  1.8575 -0.6732
 6448SOL    HW221277   1.384   8.076   5.636 -0.1057  1.9615 -0.7671
 6449SOL     OW21278   7.239   4.680   6.746 -0.0940 -0.3302 -0.2450
 6449SOL    HW121279   7.288   4.704   6.825 -0.5834  1.2139 -0.3807
 6449SOL    HW221280   7.147   4.677   6.775 -0.2589  0.0940 -0.7189
 6450SOL     OW21281   2.733   6.827   5.489 -0.1482 -0.4475 -0.1875
 6450SOL    HW121282   2.794   6.871   5.548 -1.5556  0.8451  0.3651
 6450SOL    HW221283   2.773   6.834   5.403  0.5853  0.1813  0.1974
 6451SOL     OW21284   3.980   0.457   4.678 -0.4189  0.5129  0.4229
 6451SOL    HW121285   4.006   0.366   4.688 -1.6421  0.1658  0.5498
 6451SOL    HW221286   3.940   0.462   4.591 -1.2191  0.6989  0.7857
 6452SOL     OW21287   1.947   5.070   5.763 -0.0393  0.1445 -0.2193
 6452SOL    HW121288   1.869   5.020   5.738 -0.0302 -0.6563  1.3036
 6452SOL    HW221289   1.912   5.151   5.801 -0.0752  0.5082 -0.9911
 6453SOL     OW21290   2.371   2.404   3.790  0.1896  0.1074 -0.5888
 6453SOL    HW121291   2.448   2.455   3.767 -0.2212  0.4909 -1.1623
 6453SOL    HW221292   2.405   2.325   3.831  0.8085  1.5199  1.8299
 6454SOL     OW21293   0.891   5.639   6.072  0.1632  0.2229  0.1560
 6454SOL    HW121294   0.890   5.555   6.026 -0.7501 -0.2273  0.9502
 6454SOL    HW221295   0.819   5.689   6.032  0.8429  0.7229 -0.4646
 6455SOL     OW21296   3.897   4.593   2.259  0.1120  0.4258 -0.3044
 6455SOL    HW121297   3.920   4.530   2.192 -0.4727  0.4228 -0.5102
 6455SOL    HW221298   3.958   4.576   2.331 -0.6517 -1.0401  0.0432
 6456SOL     OW21299   2.777   1.217   7.545 -0.1217 -0.3096  0.6537
 6456SOL    HW121300   2.687   1.239   7.518 -0.2815 -2.0934 -0.4567
 6456SOL    HW221301   2.780   1.239   7.638 -1.0400  1.7230  0.2569
 6457SOL     OW21302   1.017   4.866   6.663 -0.1913  0.2615  0.0029
 6457SOL    HW121303   0.973   4.881   6.746 -0.1563  1.0633 -0.1220
 6457SOL    HW221304   1.007   4.947   6.614 -2.4633 -1.0227 -1.8569
 6458SOL     OW21305   0.614   5.953   7.733 -0.2336 -0.6337  0.1826
 6458SOL    HW121306   0.620   5.904   7.815 -0.8197  1.0411  1.2904
 6458SOL    HW221307   0.673   6.028   7.745 -1.1331  0.2112 -0.4611
 6459SOL     OW21308   7.609   3.830   2.526 -0.0869 -0.2531 -0.1953
 6459SOL    HW121309   7.628   3.737   2.541  0.5304 -0.0395  0.3878
 6459SOL    HW221310   7.513   3.836   2.532 -0.2871 -1.1395 -1.9801
 6460SOL     OW21311   0.370   7.555   0.245 -0.2308 -0.7965 -0.3371
 6460SOL    HW121312   0.429   7.585   0.175  1.9534 -1.5062  1.1157
 6460SOL    HW221313   0.375   7.460   0.242 -2.1167 -0.9222 -0.7834
 6461SOL     OW21314   5.304   7.769   4.696  0.1555  0.9451 -0.1881
 6461SOL    HW121315   5.246   7.696   4.675 -1.9463  2.6706 -0.7513
 6461SOL    HW221316   5.245   7.845   4.704  2.0772  2.3649  1.6208
 6462SOL     OW21317   2.962   1.574   4.863 -0.5662 -0.5275  0.0646
 6462SOL    HW121318   2.945   1.526   4.782  0.1941 -1.8675  0.6628
 6462SOL    HW221319   3.051   1.547   4.889 -0.3429  0.7704  0.7355
 6463SOL     OW21320   6.182   3.312   2.522 -0.3389 -0.0384 -0.6619
 6463SOL    HW121321   6.277   3.302   2.526 -0.3224  0.5905  1.1930
 6463SOL    HW221322   6.147   3.235   2.566 -0.7346 -0.6291 -1.9650
 6464SOL     OW21323   1.728   0.724   4.730  0.4874 -0.3479 -0.1769
 6464SOL    HW121324   1.719   0.715   4.825  3.4811 -0.1134  0.2037
 6464SOL    HW221325   1.725   0.634   4.697 -0.9513 -0.4078  0.0440
 6465SOL     OW21326   6.510   7.329   8.227  0.3250  0.5694  0.4457
 6465SOL    HW121327   6.524   7.310   8.135 -0.6073  1.5702  0.0689
 6465SOL    HW221328   6.414   7.328   8.237  0.4176  0.2805  1.4505
 6466SOL     OW21329   5.116   0.055   5.640 -0.7912  0.1218  0.1691
 6466SOL    HW121330   5.032   0.052   5.686 -1.2532 -1.3907 -0.7080
 6466SOL    HW221331   5.094   0.042   5.548  0.4533 -1.1164  0.0150
 6467SOL     OW21332   2.872   8.006   2.367 -0.3564  0.2904 -0.0929
 6467SOL    HW121333   2.935   7.986   2.298  0.3760  2.0030  0.0349
 6467SOL    HW221334   2.891   8.096   2.392 -1.1406 -0.0140  1.7968
 6468SOL     OW21335   4.686   3.212   7.562 -0.0262  0.9194 -0.6391
 6468SOL    HW121336   4.683   3.145   7.493 -0.1146  1.5238 -1.2289
 6468SOL    HW221337   4.775   3.207   7.597 -0.2017  0.1105 -0.2960
 6469SOL     OW21338   3.082   5.451   3.666  0.1363 -0.2048  0.0082
 6469SOL    HW121339   3.151   5.518   3.663  1.6363 -1.6938  0.1902
 6469SOL    HW221340   3.045   5.452   3.577  0.7639  0.2236 -0.2625
 6470SOL     OW21341   1.628   5.826   6.056  0.0092  0.4128  0.1798
 6470SOL    HW121342   1.686   5.818   6.132  1.1737  1.3899 -0.5648
 6470SOL    HW221343   1.629   5.739   6.015 -0.6008 -0.1119  1.2335
 6471SOL     OW21344   4.890   4.949   1.781  0.2280  0.3910  0.0614
 6471SOL    HW121345   4.824   4.998   1.830  1.2919  0.4905  1.4506
 6471SOL    HW221346   4.901   4.867   1.830 -1.6664 -1.4377 -2.3240
 6472SOL     OW21347   2.458   3.611   4.038  0.1530  0.1633  0.2351
 6472SOL    HW121348   2.372   3.581   4.007  0.2795 -1.0980  1.0807
 6472SOL    HW221349   2.438   3.686   4.094 -0.2489  0.9390 -0.8889
 6473SOL     OW21350   0.191   0.058   8.250  0.0298  0.5078  0.1154
 6473SOL    HW121351   0.201   0.146   8.287  0.1515  0.5829 -0.0975
 6473SOL    HW221352   0.096   0.046   8.243 -0.0675 -0.1044  1.8938
 6474SOL     OW21353   5.307   0.300   0.723  0.2262 -0.1316  0.1912
 6474SOL    HW121354   5.380   0.362   0.727  1.1249 -1.2108  1.3076
 6474SOL    HW221355   5.336   0.235   0.659 -0.0224 -0.2360  0.1858
 6475SOL     OW21356   3.998   3.253   0.559 -0.0782 -0.2725  0.3339
 6475SOL    HW121357   3.926   3.300   0.603 -0.2610 -0.6548  0.4469
 6475SOL    HW221358   4.016   3.305   0.481 -2.3943 -1.6428 -1.2192
 6476SOL     OW21359   2.509   0.602   2.504 -0.2289  0.4900  0.0549
 6476SOL    HW121360   2.579   0.623   2.443 -0.2619  2.8791  0.7185
 6476SOL    HW221361   2.433   0.649   2.470 -0.9428 -0.3133  0.5100
 6477SOL     OW21362   2.007   8.805   2.949  0.6624 -0.2753 -0.2367
 6477SOL    HW121363   1.948   8.868   2.991  2.6301  0.9435  0.8583
 6477SOL    HW221364   1.996   8.821   2.855 -0.6987 -0.0480 -0.0521
 6478SOL     OW21365   4.950   4.385   0.515 -0.1157 -0.0365 -0.0073
 6478SOL    HW121366   4.939   4.443   0.440  1.8039 -0.5447 -0.7487
 6478SOL    HW221367   4.961   4.298   0.477 -0.2193 -0.4776  0.9340
 6479SOL     OW21368   4.950   4.880   3.076 -0.2625 -0.3752 -0.1702
 6479SOL    HW121369   4.871   4.826   3.082 -1.4105  1.1447 -0.9061
 6479SOL    HW221370   4.950   4.933   3.155  0.6779 -1.1663  0.3862
 6480SOL     OW21371   3.710   3.654   3.314 -0.4724  0.0029  0.2528
 6480SOL    HW121372   3.671   3.657   3.227 -1.6145 -0.1905  0.7329
 6480SOL    HW221373   3.786   3.597   3.304  1.1660  2.2783 -1.2370
 6481SOL     OW21374   0.102   7.196   4.699 -0.2958  0.1733 -0.1406
 6481SOL    HW121375   0.089   7.118   4.646 -0.4329 -0.3995  0.7280
 6481SOL    HW221376   0.056   7.265   4.650  1.3961  0.1666 -1.8812
 6482SOL     OW21377   2.685   0.868   2.905  0.4606 -0.2948  0.2273
 6482SOL    HW121378   2.700   0.775   2.924  1.6643 -0.0366  0.5940
 6482SOL    HW221379   2.710   0.879   2.814  0.0360 -0.3820  0.0971
 6483SOL     OW21380   1.476   5.376   8.054  0.0835  0.6900 -0.3041
 6483SOL    HW121381   1.418   5.430   8.107 -1.3239 -0.3719 -0.7012
 6483SOL    HW221382   1.484   5.294   8.103  0.0696  0.2938 -0.9504
 6484SOL     OW21383   7.628   7.358   3.270 -0.0855  0.2411 -0.1474
 6484SOL    HW121384   7.625   7.453   3.281 -1.0537  0.1597  0.3544
 6484SOL    HW221385   7.587   7.342   3.185  0.4245  0.2933 -0.4080
 6485SOL     OW21386   4.718   4.245   5.434  0.0793 -0.0711  0.4480
 6485SOL    HW121387   4.714   4.151   5.451  0.4252 -0.0989  0.3735
 6485SOL    HW221388   4.648   4.282   5.488  0.0543 -0.3506  0.6093
 6486SOL     OW21389   1.665   5.507   6.798  0.0560  0.6427  0.4375
 6486SOL    HW121390   1.659   5.596   6.833 -2.0529  1.5227 -1.8100
 6486SOL    HW221391   1.589   5.499   6.740  2.2961 -1.1677 -2.5910
 6487SOL     OW21392   0.292   8.588   3.889 -0.6116 -0.0043 -0.8224
 6487SOL    HW121393   0.341   8.507   3.881  0.0078  0.5110 -2.4737
 6487SOL    HW221394   0.349   8.646   3.940 -1.0667 -0.5709  0.3839
 6488SOL     OW21395   1.297   0.398   7.235 -0.3670  0.1869  0.0222
 6488SOL    HW121396   1.254   0.320   7.202  0.4465 -2.1559  3.8590
 6488SOL    HW221397   1.388   0.389   7.208 -0.5477  0.6331 -0.7729
 6489SOL     OW21398   7.458   5.805   4.100  0.1543 -0.1373 -0.0366
 6489SOL    HW121399   7.549   5.832   4.114  0.2508 -1.3976  2.1340
 6489SOL    HW221400   7.408   5.861   4.160 -0.2761 -0.7122  0.1450
 6490SOL     OW21401   1.748   1.823   8.164  0.0701  0.2540 -0.6561
 6490SOL    HW121402   1.694   1.901   8.176 -0.5297 -0.5291  3.0669
 6490SOL    HW221403   1.771   1.796   8.253  1.8878 -2.7024 -1.8731
 6491SOL     OW21404   6.285   1.988   8.303 -0.0675  0.3892 -0.1236
 6491SOL    HW121405   6.329   1.947   8.228 -1.2365  0.3139 -0.7951
 6491SOL    HW221406   6.268   2.077   8.274 -0.1875  0.4703  0.2050
 6492SOL     OW21407   4.670   3.419   7.869  0.0566  0.2757  0.4872
 6492SOL    HW121408   4.764   3.403   7.862  0.9397  3.9398  2.0637
 6492SOL    HW221409   4.651   3.413   7.962 -0.7311  1.9235  0.4599
 6493SOL     OW21410   5.579   5.076   1.374  0.1015  1.4077  0.4536
 6493SOL    HW121411   5.618   5.083   1.287  1.0042  0.1136  0.7342
 6493SOL    HW221412   5.490   5.045   1.358  1.3011 -2.2725  0.0797
 6494SOL     OW21413   4.032   5.269   3.648  0.3488  0.1047  0.3575
 6494SOL    HW121414   3.945   5.251   3.682  1.0232 -0.8698  1.6720
 6494SOL    HW221415   4.074   5.320   3.717  0.5488  1.3136 -0.6378
 6495SOL     OW21416   3.999   2.675   6.326 -0.5423 -0.2783  0.0871
 6495SOL    HW121417   3.991   2.580   6.331  0.7724 -0.3704  0.8580
 6495SOL    HW221418   3.967   2.706   6.411  2.7644 -0.3753  1.5266
 6496SOL     OW21419   0.816   2.165   7.935  0.0900 -0.2439  0.3454
 6496SOL    HW121420   0.807   2.113   8.015 -2.1219 -1.8336 -0.8198
 6496SOL    HW221421   0.773   2.113   7.867  2.0534  0.9566 -1.9644
 6497SOL     OW21422   5.699   6.130   3.344  0.5744  0.0748 -0.0126
 6497SOL    HW121423   5.669   6.210   3.386 -0.5224  0.4237 -1.3789
 6497SOL    HW221424   5.643   6.121   3.266  1.7201 -1.1655 -0.7451
 6498SOL     OW21425   4.253   4.306   2.112 -0.1539 -0.4421 -0.3714
 6498SOL    HW121426   4.260   4.389   2.159  0.8217  0.2874 -1.7500
 6498SOL    HW221427   4.195   4.253   2.167  0.4879  0.5539  1.3636
 6499SOL     OW21428   4.609   3.890   0.518  0.1179 -0.2585 -0.2710
 6499SOL    HW121429   4.636   3.936   0.597 -0.4073  0.1818 -0.3396
 6499SOL    HW221430   4.678   3.826   0.501  0.9964  0.7011 -0.3355
 6500SOL     OW21431   0.772   4.348   2.691  0.2065 -0.0515  0.2904
 6500SOL    HW121432   0.686   4.326   2.729 -0.0952 -0.6246 -0.6892
 6500SOL    HW221433   0.754   4.424   2.635  0.4631  0.2011  0.5502
 6501SOL     OW21434   8.789   7.677   6.780  0.0264  0.3334  0.1020
 6501SOL    HW121435   8.723   7.617   6.743  0.4197 -0.1258  0.1329
 6501SOL    HW221436   8.741   7.728   6.846  0.2967 -2.1136  2.3872
 6502SOL     OW21437   6.522   2.595   1.118  0.2628  0.6635 -0.0661
 6502SOL    HW121438   6.597   2.538   1.134  0.1293  0.2014 -1.0052
 6502SOL    HW221439   6.552   2.682   1.142  1.0292  0.4528 -0.2379
 6503SOL     OW21440   2.709   3.242   2.799  0.4626  0.1021  0.2122
 6503SOL    HW121441   2.668   3.165   2.759 -0.0488  0.0312  0.8514
 6503SOL    HW221442   2.803   3.230   2.785  0.4175 -0.8365  0.6235
 6504SOL     OW21443   0.228   0.336   4.412 -0.1175 -0.0355  0.3263
 6504SOL    HW121444   0.139   0.371   4.415 -0.7248 -1.5888  1.3171
 6504SOL    HW221445   0.218   0.248   4.375  1.0727 -0.0328 -0.0305
 6505SOL     OW21446   1.798   0.468   7.583  0.1289 -0.1434  0.0026
 6505SOL    HW121447   1.842   0.383   7.587 -0.3526 -0.4294 -0.6401
 6505SOL    HW221448   1.706   0.447   7.572 -0.3782  0.4233  2.5237
 6506SOL     OW21449   6.224   7.067   1.802 -0.1463  0.1909 -0.2176
 6506SOL    HW121450   6.309   7.077   1.846 -0.2569 -0.6125  0.1926
 6506SOL    HW221451   6.159   7.085   1.870 -0.3084 -0.0693 -0.3021
 6507SOL     OW21452   2.389   1.748   8.360  0.0216  0.6095 -0.0121
 6507SOL    HW121453   2.385   1.789   8.447  2.0920  2.8010 -0.8455
 6507SOL    HW221454   2.479   1.715   8.353  0.0605  0.9562 -1.5060
 6508SOL     OW21455   6.587   7.368   4.289 -0.4244 -0.3868  0.5863
 6508SOL    HW121456   6.549   7.297   4.238 -3.3877  1.6709 -0.3559
 6508SOL    HW221457   6.529   7.378   4.364 -0.1386  1.0665  0.6410
 6509SOL     OW21458   5.467   3.396   0.518  0.0682  0.1760 -0.1575
 6509SOL    HW121459   5.542   3.427   0.468 -0.2824 -0.6481 -1.2216
 6509SOL    HW221460   5.391   3.441   0.480 -0.4305 -1.7862 -1.6422
 6510SOL     OW21461   8.814   7.902   1.261  0.5779 -0.0762  0.7362
 6510SOL    HW121462   8.798   7.873   1.171 -0.4624  1.4089  0.3977
 6510SOL    HW221463   8.838   7.994   1.252 -2.3554  0.9356  2.0993
 6511SOL     OW21464   7.773   1.759   4.006  0.2158  0.3521 -0.0559
 6511SOL    HW121465   7.861   1.746   4.041  0.5478  0.0012 -1.0087
 6511SOL    HW221466   7.726   1.678   4.028  0.6256 -0.1574 -0.9937
 6512SOL     OW21467   7.463   4.508   2.956 -0.0972  0.3060 -0.0539
 6512SOL    HW121468   7.396   4.524   3.023  0.5341  2.0988  0.2251
 6512SOL    HW221469   7.414   4.483   2.878 -0.9213 -0.7356  0.7714
 6513SOL     OW21470   4.220   4.558   7.517 -0.1073 -0.1682 -0.4725
 6513SOL    HW121471   4.284   4.617   7.476  0.8425 -0.3893  0.6338
 6513SOL    HW221472   4.181   4.510   7.444  1.2294 -0.2594 -1.1474
 6514SOL     OW21473   6.429   2.579   3.252 -0.0052  0.7143  0.1770
 6514SOL    HW121474   6.336   2.562   3.240  0.3604 -0.5256 -1.1195
 6514SOL    HW221475   6.435   2.675   3.260 -1.2898  0.8727 -0.5172
 6515SOL     OW21476   3.931   3.298   2.455 -0.4624  0.1110  0.7117
 6515SOL    HW121477   3.934   3.326   2.363 -0.2292  2.2127  1.3160
 6515SOL    HW221478   3.947   3.204   2.451 -4.0627 -0.6048 -1.6985
 6516SOL     OW21479   7.794   0.229   0.277  0.0673  0.3545  0.1622
 6516SOL    HW121480   7.850   0.235   0.354  0.5546  0.2682 -0.1766
 6516SOL    HW221481   7.850   0.256   0.204  0.0615 -0.9189 -0.3549
 6517SOL     OW21482   1.531   3.843   3.874  0.2577  0.0766  0.3840
 6517SOL    HW121483   1.469   3.875   3.809 -0.7377 -0.4798  1.0372
 6517SOL    HW221484   1.490   3.765   3.910  1.0042  0.1135  1.3587
 6518SOL     OW21485   6.114   3.671   2.292  0.4675  0.2012 -0.4764
 6518SOL    HW121486   6.145   3.672   2.383  3.1066  1.8874 -1.2787
 6518SOL    HW221487   6.151   3.591   2.255 -0.1571 -0.2104 -0.2211
 6519SOL     OW21488   8.110   3.400   5.169  0.1762  0.0732  0.4591
 6519SOL    HW121489   8.047   3.469   5.153  0.8398  0.4684 -0.6000
 6519SOL    HW221490   8.094   3.372   5.259 -0.7647  0.9103  0.5629
 6520SOL     OW21491   1.224   7.691   8.151  0.3254  0.1539 -0.7835
 6520SOL    HW121492   1.252   7.741   8.228  1.3944 -2.4497  0.6584
 6520SOL    HW221493   1.142   7.733   8.124  0.7076  2.1022  0.8160
 6521SOL     OW21494   2.538   6.949   1.747 -0.3913  0.3877 -0.0461
 6521SOL    HW121495   2.606   6.945   1.814 -1.3084 -0.1339  0.8762
 6521SOL    HW221496   2.467   6.894   1.781 -1.0346  0.4313 -1.2649
 6522SOL     OW21497   4.388   5.336   8.144 -0.0610 -0.2522 -0.6029
 6522SOL    HW121498   4.360   5.247   8.124  0.2960 -0.1685 -1.5272
 6522SOL    HW221499   4.417   5.332   8.236  2.0094 -1.6187 -1.2483
 6523SOL     OW21500   3.464   3.962   6.926  0.0294  0.1777  0.8938
 6523SOL    HW121501   3.530   3.897   6.901 -0.0196 -0.0404  1.3303
 6523SOL    HW221502   3.502   4.007   7.002  0.2449  0.9482  0.3409
 6524SOL     OW21503   4.204   5.416   3.402  0.6291  0.2821 -0.2814
 6524SOL    HW121504   4.208   5.402   3.497  1.4476  0.1450 -0.3321
 6524SOL    HW221505   4.285   5.461   3.381  0.1906  0.8291 -0.8422
 6525SOL     OW21506   5.504   4.543   1.343 -0.3791 -0.1629 -0.3253
 6525SOL    HW121507   5.563   4.582   1.279 -1.6089 -0.0003 -1.3962
 6525SOL    HW221508   5.494   4.610   1.410 -0.9144  0.6185 -1.1575
 6526SOL     OW21509   2.734   2.201   1.927  0.2060  0.2482 -0.3998
 6526SOL    HW121510   2.703   2.249   1.850  0.1973 -1.5975 -1.6056
 6526SOL    HW221511   2.689   2.116   1.922  1.1637 -0.3711  0.9591
 6527SOL     OW21512   1.763   6.246   3.467  0.0819  0.0627 -0.4480
 6527SOL    HW121513   1.751   6.339   3.447  0.3683  0.7467  2.1507
 6527SOL    HW221514   1.836   6.244   3.530 -1.1762 -1.6753  1.0788
 6528SOL     OW21515   5.991   5.863   3.963  0.1067  0.5084 -0.6456
 6528SOL    HW121516   6.042   5.786   3.939 -1.6917 -0.1073 -2.8269
 6528SOL    HW221517   6.008   5.926   3.893 -0.0930  1.3006 -0.0021
 6529SOL     OW21518   7.658   1.033   3.962  0.5345  0.1136 -0.2295
 6529SOL    HW121519   7.629   1.117   3.926 -0.4497  0.7000  1.7681
 6529SOL    HW221520   7.727   1.055   4.024  0.5729 -0.6027 -0.0029
 6530SOL     OW21521   4.681   6.080   3.302  0.4534 -0.5360  0.5358
 6530SOL    HW121522   4.634   6.161   3.320  0.9804 -0.1836  0.3211
 6530SOL    HW221523   4.758   6.106   3.253  1.4643 -0.9858  1.8095
 6531SOL     OW21524   7.139   1.609   4.390  0.6622 -0.4668 -0.0006
 6531SOL    HW121525   7.078   1.609   4.463 -0.8118  1.3889 -1.1279
 6531SOL    HW221526   7.118   1.530   4.340  0.5284 -0.8598  0.6791
 6532SOL     OW21527   7.875   3.317   4.185  0.4187 -0.0790 -0.0169
 6532SOL    HW121528   7.907   3.321   4.095 -0.3963  0.5791 -0.2872
 6532SOL    HW221529   7.780   3.305   4.176  0.4749 -1.3113  0.7604
 6533SOL     OW21530   1.210   4.593   3.487  0.3442 -0.6093 -0.1430
 6533SOL    HW121531   1.271   4.536   3.534  1.2554  1.4525  1.3514
 6533SOL    HW221532   1.124   4.572   3.524  0.4058 -2.1213 -0.8063
 6534SOL     OW21533   7.070   7.894   0.435  0.4907  0.0748 -0.0340
 6534SOL    HW121534   7.141   7.948   0.400 -0.0358  0.1972 -0.9379
 6534SOL    HW221535   7.022   7.865   0.358  0.1901 -0.8957  0.4973
 6535SOL     OW21536   8.429   5.868   2.488  0.0286 -0.4414  0.2225
 6535SOL    HW121537   8.403   5.934   2.424  0.4605  0.0975  0.5942
 6535SOL    HW221538   8.477   5.803   2.437  2.1679  0.9974  0.2649
 6536SOL     OW21539   7.096   3.933   3.226 -0.1852  1.1116  0.1592
 6536SOL    HW121540   7.090   4.007   3.165  1.3162  0.0995 -1.3265
 6536SOL    HW221541   7.009   3.893   3.224 -0.4068  1.6084 -0.6714
 6537SOL     OW21542   6.693   0.407   0.509  0.4225 -0.3370  0.4758
 6537SOL    HW121543   6.722   0.478   0.452  1.7549  1.0715  2.7939
 6537SOL    HW221544   6.719   0.327   0.462 -0.9261  0.6233 -2.0852
 6538SOL     OW21545   3.623   5.946   0.460 -0.3622 -0.1541  0.0274
 6538SOL    HW121546   3.652   5.891   0.533  1.0332  0.0041 -0.3762
 6538SOL    HW221547   3.530   5.961   0.476  0.1130  0.6892  2.2938
 6539SOL     OW21548   6.634   6.598   3.506 -0.5417 -0.2539  0.0173
 6539SOL    HW121549   6.632   6.503   3.514 -0.1195 -0.1608  1.5031
 6539SOL    HW221550   6.696   6.627   3.573 -0.2632  1.0409 -0.7554
 6540SOL     OW21551   6.847   7.854   2.616  0.1265  0.2375  0.4971
 6540SOL    HW121552   6.760   7.819   2.638  0.6242 -1.3821  0.0547
 6540SOL    HW221553   6.834   7.949   2.612 -1.9597 -0.0320 -1.0037
 6541SOL     OW21554   3.665   8.173   6.942  0.2743 -0.0395 -0.5337
 6541SOL    HW121555   3.571   8.190   6.949  0.4706  1.2144 -0.7357
 6541SOL    HW221556   3.674   8.114   6.868 -0.5978 -2.5677  1.2170
 6542SOL     OW21557   6.153   2.764   7.510 -0.0609  0.2375 -0.3147
 6542SOL    HW121558   6.154   2.695   7.577  1.1785  1.8875  1.4998
 6542SOL    HW221559   6.224   2.741   7.450  2.2551  1.2539  1.8554
 6543SOL     OW21560   6.830   3.279   6.014  0.0623  0.3636  0.0045
 6543SOL    HW121561   6.740   3.249   6.004  0.2350 -0.0324 -0.3791
 6543SOL    HW221562   6.829   3.332   6.094  0.3589 -3.0231  2.4947
 6544SOL     OW21563   6.066   5.657   8.323  0.8965  0.5369 -0.2321
 6544SOL    HW121564   5.996   5.617   8.270  0.0949 -0.6337  1.6238
 6544SOL    HW221565   6.091   5.735   8.273 -0.2210 -0.1739 -2.0263
 6545SOL     OW21566   5.740   5.347   4.968  0.1066  0.0867  0.0986
 6545SOL    HW121567   5.685   5.297   4.907  0.8327 -1.6347  0.7819
 6545SOL    HW221568   5.829   5.338   4.933  0.7185 -1.9242  1.9275
 6546SOL     OW21569   2.963   1.643   1.948 -0.1365 -0.3711  0.8203
 6546SOL    HW121570   2.954   1.698   1.870  0.0943  1.4346  2.0277
 6546SOL    HW221571   2.882   1.592   1.950  0.3174 -1.3042 -1.1799
 6547SOL     OW21572   7.207   6.110   3.317  0.0443  0.3609  0.1572
 6547SOL    HW121573   7.258   6.042   3.361  0.5552  0.2022 -0.6589
 6547SOL    HW221574   7.187   6.072   3.231 -0.8961  0.6790  0.2236
 6548SOL     OW21575   1.604   6.171   3.011  0.2384 -0.4894 -0.3812
 6548SOL    HW121576   1.628   6.169   3.104  0.0112  0.5468 -0.2944
 6548SOL    HW221577   1.516   6.210   3.009  0.1218 -0.7636 -1.0126
 6549SOL     OW21578   7.783   6.206   3.003  0.5179  0.1941  0.2643
 6549SOL    HW121579   7.819   6.151   3.073 -0.2793 -0.6018  0.0755
 6549SOL    HW221580   7.712   6.153   2.966  0.7512  0.7192 -0.9605
 6550SOL     OW21581   3.682   0.232   4.513  0.1876  0.0648 -0.5881
 6550SOL    HW121582   3.735   0.306   4.484  0.5351  0.3394  0.6920
 6550SOL    HW221583   3.680   0.173   4.438 -1.2914  1.9875 -2.1526
 6551SOL     OW21584   4.621   1.578   5.964  0.2565  0.2671  0.2565
 6551SOL    HW121585   4.534   1.582   5.925  0.5726  1.5501 -0.3605
 6551SOL    HW221586   4.609   1.608   6.054  0.5033  3.5318 -0.6877
 6552SOL     OW21587   7.224   7.512   8.365 -0.1024 -0.0740 -0.1245
 6552SOL    HW121588   7.260   7.478   8.447  0.3365  0.3702 -0.1290
 6552SOL    HW221589   7.258   7.454   8.297 -1.1509 -0.9624  0.0767
 6553SOL     OW21590   4.743   8.740   8.183 -0.2028 -0.3907 -0.5194
 6553SOL    HW121591   4.763   8.649   8.160 -1.2125 -0.4891 -1.0833
 6553SOL    HW221592   4.653   8.752   8.153  0.3719  1.2032 -1.7181
 6554SOL     OW21593   0.618   6.572   8.580  0.2052  0.7213  0.1593
 6554SOL    HW121594   0.617   6.633   8.655  1.3038  1.6175 -0.5232
 6554SOL    HW221595   0.709   6.571   8.552 -0.1440  0.1534 -0.9813
 6555SOL     OW21596   1.357   2.925   3.015 -0.2739  0.5526  0.1219
 6555SOL    HW121597   1.361   2.842   2.969 -1.6456  0.8737 -0.6234
 6555SOL    HW221598   1.447   2.941   3.044  0.1527 -0.7950 -0.4024
 6556SOL     OW21599   0.130   2.845   0.771 -0.7142 -0.4854 -0.3545
 6556SOL    HW121600   0.124   2.870   0.679  0.4424 -0.6481 -0.4891
 6556SOL    HW221601   0.160   2.924   0.816  0.7677 -0.9683 -0.4468
 6557SOL     OW21602   8.331   1.376   6.851  0.3763  0.2342  0.1194
 6557SOL    HW121603   8.302   1.452   6.800  0.7589 -0.5732 -1.3650
 6557SOL    HW221604   8.423   1.365   6.829  0.1617 -1.0597 -0.2527
 6558SOL     OW21605   7.441   0.501   0.986  0.0299  0.0310 -0.1850
 6558SOL    HW121606   7.413   0.534   1.071  1.2468  0.8701 -0.0854
 6558SOL    HW221607   7.366   0.516   0.928 -0.4242  0.4307  0.4943
 6559SOL     OW21608   0.906   0.623   7.180  0.8474 -0.5438 -0.4072
 6559SOL    HW121609   0.833   0.596   7.124  0.3960  0.1979 -0.1878
 6559SOL    HW221610   0.866   0.673   7.251  1.5443 -0.3230 -0.1550
 6560SOL     OW21611   2.397   4.037   2.840 -0.3309 -0.3099  0.1450
 6560SOL    HW121612   2.464   3.970   2.858  0.2613  0.7146  2.1422
 6560SOL    HW221613   2.445   4.120   2.846 -1.1572  0.3484 -1.7276
 6561SOL     OW21614   4.322   7.881   2.052 -0.2334 -0.9686  0.2423
 6561SOL    HW121615   4.254   7.868   2.118 -0.9175 -0.6537 -0.3956
 6561SOL    HW221616   4.281   7.858   1.970 -0.2728  1.3057 -0.4509
 6562SOL     OW21617   5.978   8.506   3.798  0.1330  0.4928  0.1498
 6562SOL    HW121618   5.966   8.567   3.725 -1.1194 -0.1908 -0.2447
 6562SOL    HW221619   6.073   8.498   3.807  0.3152  1.8259 -0.3447
 6563SOL     OW21620   1.057   4.456   0.149 -0.1416 -0.1871 -0.0083
 6563SOL    HW121621   1.059   4.377   0.095 -0.9435  0.7871 -1.5442
 6563SOL    HW221622   1.095   4.430   0.232 -0.3321 -2.1706 -0.5055
 6564SOL     OW21623   1.771   0.417   8.463  0.0845 -0.2451  0.5110
 6564SOL    HW121624   1.790   0.432   8.556 -0.6582 -0.3553  0.6822
 6564SOL    HW221625   1.676   0.426   8.456  0.0576 -0.9203 -0.1124
 6565SOL     OW21626   7.599   1.529   8.279 -0.1051 -0.1437  0.4326
 6565SOL    HW121627   7.617   1.586   8.354  0.4479  0.0308  0.1757
 6565SOL    HW221628   7.671   1.547   8.218  1.4439 -2.7734  1.3014
 6566SOL     OW21629   0.779   7.806   8.214  0.3453  0.3636  0.0191
 6566SOL    HW121630   0.726   7.757   8.277  1.8075 -1.7641 -0.3138
 6566SOL    HW221631   0.719   7.872   8.179 -0.8377  0.8735  2.7406
 6567SOL     OW21632   0.672   8.158   6.709  0.6737  0.1366 -0.5099
 6567SOL    HW121633   0.649   8.232   6.653  0.7231  1.0979  0.6931
 6567SOL    HW221634   0.604   8.157   6.777  1.6060  0.1371  0.4460
 6568SOL     OW21635   4.890   5.958   3.069  0.6751  0.4791 -0.5180
 6568SOL    HW121636   4.814   5.977   3.013 -0.8379 -0.7852  0.9967
 6568SOL    HW221637   4.901   6.037   3.121 -1.6879 -0.3728  1.4568
 6569SOL     OW21638   0.192   1.556   0.249 -0.7788  0.1439 -0.0306
 6569SOL    HW121639   0.210   1.606   0.329 -0.3688 -0.3786  0.2021
 6569SOL    HW221640   0.118   1.499   0.272 -0.1075 -0.6269  0.2414
 6570SOL     OW21641   2.080   4.253   2.656  0.2560 -0.8049  0.2186
 6570SOL    HW121642   2.008   4.191   2.646 -0.6324  0.2645 -0.3352
 6570SOL    HW221643   2.114   4.237   2.744 -0.4771 -1.5232  0.3804
 6571SOL     OW21644   4.589   6.699   0.613  0.0236  0.1058 -0.5160
 6571SOL    HW121645   4.678   6.664   0.616 -0.4686 -1.1601 -0.0131
 6571SOL    HW221646   4.560   6.684   0.523  0.8573  2.0139 -1.1598
 6572SOL     OW21647   2.697   8.051   8.191 -0.0821 -0.2243  0.2870
 6572SOL    HW121648   2.699   7.988   8.119 -0.1091 -0.6167  0.6285
 6572SOL    HW221649   2.706   8.136   8.148 -0.5356 -0.4256 -0.2180
 6573SOL     OW21650   8.412   0.361   8.374 -0.8505 -0.9321  0.4603
 6573SOL    HW121651   8.457   0.432   8.328 -1.4591 -1.2753 -0.7100
 6573SOL    HW221652   8.340   0.404   8.420 -2.3746 -0.9306 -1.7431
 6574SOL     OW21653   7.053   5.245   1.132  1.1012 -0.2964 -0.0575
 6574SOL    HW121654   7.009   5.310   1.188 -0.4603 -0.2225 -1.2803
 6574SOL    HW221655   7.125   5.293   1.091 -1.0804  1.3140 -2.3249
 6575SOL     OW21656   3.724   8.264   2.278  0.2040  0.1955  0.3987
 6575SOL    HW121657   3.749   8.260   2.186  0.5743  0.7636  0.4689
 6575SOL    HW221658   3.650   8.203   2.286 -0.3356  0.7202 -0.4457
 6576SOL     OW21659   4.724   7.263   7.209  0.5215 -0.1379 -0.0508
 6576SOL    HW121660   4.778   7.184   7.212  1.1025  0.1049 -2.2663
 6576SOL    HW221661   4.785   7.333   7.185 -0.6737  0.2051 -2.3217
 6577SOL     OW21662   4.141   1.803   6.841  0.7820  0.4089  0.1469
 6577SOL    HW121663   4.193   1.883   6.847 -0.3320  1.1155  0.8099
 6577SOL    HW221664   4.055   1.828   6.874  0.7022 -1.3416  1.4248
 6578SOL     OW21665   3.319   2.494   1.844 -0.4536 -0.1345  0.6114
 6578SOL    HW121666   3.309   2.421   1.904 -0.0005  0.4225  1.3873
 6578SOL    HW221667   3.288   2.570   1.893 -0.8932  0.2028 -0.1677
 6579SOL     OW21668   2.113   2.334   8.055  0.3590  0.8591 -0.4704
 6579SOL    HW121669   2.182   2.378   8.105 -0.1902  2.0421 -0.7362
 6579SOL    HW221670   2.122   2.242   8.079  0.5061  1.3090  1.3189
 6580SOL     OW21671   3.435   7.138   2.135 -0.1158  0.1896 -0.3618
 6580SOL    HW121672   3.440   7.171   2.224 -1.3282 -0.2609 -0.1199
 6580SOL    HW221673   3.450   7.044   2.143 -2.5953 -0.2613 -0.3048
 6581SOL     OW21674   5.737   6.209   3.764  0.1089  0.5171  0.5165
 6581SOL    HW121675   5.799   6.263   3.812 -0.2151 -1.0445  2.8993
 6581SOL    HW221676   5.790   6.158   3.704  0.9395  0.4741  1.2696
 6582SOL     OW21677   5.517   2.872   0.476 -0.0298 -0.4298  0.4126
 6582SOL    HW121678   5.454   2.824   0.530  1.0934 -0.9216  1.3180
 6582SOL    HW221679   5.499   2.842   0.387 -1.5451 -0.0139  0.5380
 6583SOL     OW21680   0.780   3.783   3.098 -0.5265  0.1002 -0.0033
 6583SOL    HW121681   0.711   3.844   3.072 -0.2611  0.5057  0.2325
 6583SOL    HW221682   0.734   3.716   3.149 -0.5029  1.3816  1.7892
 6584SOL     OW21683   1.117   5.378   6.942  0.5851 -0.5738  0.6741
 6584SOL    HW121684   1.093   5.312   6.877  0.0041 -1.2736  1.5658
 6584SOL    HW221685   1.064   5.356   7.018  1.3776  0.1205  1.4446
 6585SOL     OW21686   2.699   0.503   4.649  0.2360 -0.3778  0.2106
 6585SOL    HW121687   2.707   0.585   4.601  0.8933 -0.7159 -0.2666
 6585SOL    HW221688   2.671   0.529   4.737 -1.9072  0.1810 -0.5750
 6586SOL     OW21689   6.684   2.467   6.242  0.3958  0.2550 -0.2477
 6586SOL    HW121690   6.705   2.542   6.298 -0.7280 -0.0355  0.5841
 6586SOL    HW221691   6.596   2.485   6.209  0.0718 -0.7404  0.0336
 6587SOL     OW21692   8.870   1.473   5.628 -0.5994  0.1582  0.4046
 6587SOL    HW121693   8.859   1.452   5.536  3.5140  0.6186 -0.3973
 6587SOL    HW221694   8.831   1.560   5.638  0.6056  0.9762 -1.4662
 6588SOL     OW21695   1.240   1.945   5.979 -0.0143  0.0484  0.2175
 6588SOL    HW121696   1.262   1.898   5.898 -3.7090 -0.7400 -0.5118
 6588SOL    HW221697   1.235   2.037   5.953 -1.1285 -0.1948 -0.4849
 6589SOL     OW21698   8.734   6.520   6.656 -0.5085 -0.0462 -0.0119
 6589SOL    HW121699   8.759   6.609   6.682 -0.4460  0.0228 -0.3053
 6589SOL    HW221700   8.817   6.477   6.637 -0.5574 -0.0882 -0.1274
 6590SOL     OW21701   7.303   8.625   1.093 -0.5848 -0.5435 -0.1649
 6590SOL    HW121702   7.354   8.674   1.029 -2.0959  2.9413  1.0660
 6590SOL    HW221703   7.363   8.614   1.168 -0.4555  0.1629 -0.1582
 6591SOL     OW21704   8.615   5.648   2.625  0.0786 -0.0566 -1.0387
 6591SOL    HW121705   8.525   5.651   2.591  0.1972  2.4086 -1.3602
 6591SOL    HW221706   8.610   5.594   2.703 -2.0700  1.3362 -0.1155
 6592SOL     OW21707   0.163   8.783   7.120 -0.7221 -0.5138  0.3207
 6592SOL    HW121708   0.242   8.794   7.173 -0.0010  0.0786 -0.8340
 6592SOL    HW221709   0.146   8.689   7.122  0.0364 -0.6575  0.5633
 6593SOL     OW21710   2.524   3.749   1.608  0.1610  0.5311  0.3703
 6593SOL    HW121711   2.482   3.834   1.594  0.5530  0.6241 -0.2805
 6593SOL    HW221712   2.607   3.770   1.651  0.2435  0.4763  0.2385
 6594SOL     OW21713   4.618   1.043   8.470  0.1212  0.1516  0.7717
 6594SOL    HW121714   4.608   0.984   8.395  0.9293 -0.4051  1.0753
 6594SOL    HW221715   4.712   1.044   8.487 -0.1120 -0.4115  2.2940
 6595SOL     OW21716   6.818   8.091   6.083 -0.0854  0.4384  0.1970
 6595SOL    HW121717   6.727   8.078   6.055  0.4157  1.1364 -1.9716
 6595SOL    HW221718   6.866   8.105   6.001  2.1484 -0.7960  1.2291
 6596SOL     OW21719   1.392   6.168   8.589  0.1667  0.3685  0.7193
 6596SOL    HW121720   1.387   6.194   8.497  0.4201  1.7487  1.0782
 6596SOL    HW221721   1.356   6.079   8.591 -0.0453  0.4080 -0.6714
 6597SOL     OW21722   6.730   6.754   1.056  0.0181 -0.4335  0.2472
 6597SOL    HW121723   6.755   6.698   0.982 -0.8193 -1.4821  0.7289
 6597SOL    HW221724   6.809   6.803   1.077  0.2022  0.0809 -1.5082
 6598SOL     OW21725   5.382   1.106   0.223  0.4045  0.1317  0.4441
 6598SOL    HW121726   5.331   1.186   0.236 -0.9078 -0.1776 -2.0617
 6598SOL    HW221727   5.354   1.048   0.294 -2.0265  0.3731 -0.2111
 6599SOL     OW21728   7.084   3.186   6.721 -0.3173  0.0874  0.4713
 6599SOL    HW121729   7.094   3.115   6.786  1.6897  0.5248  0.6922
 6599SOL    HW221730   7.062   3.263   6.773 -0.2112  0.1198  0.4676
 6600SOL     OW21731   6.713   1.611   0.126 -0.0978  0.0837 -0.2777
 6600SOL    HW121732   6.808   1.607   0.134 -0.2398 -0.6107  1.4962
 6600SOL    HW221733   6.694   1.561   0.047  1.1209  2.1720 -1.9987
 6601SOL     OW21734   2.217   3.277   8.756  0.3954  0.1597 -0.6450
 6601SOL    HW121735   2.221   3.370   8.780 -1.9233  0.3295 -0.7505
 6601SOL    HW221736   2.300   3.261   8.710  1.6030  1.7089  0.8377
 6602SOL     OW21737   3.817   5.418   5.671  0.1096  0.4153 -0.3162
 6602SOL    HW121738   3.802   5.323   5.675 -1.5163  0.5882 -1.4643
 6602SOL    HW221739   3.827   5.437   5.578  0.2988  1.3973 -0.1026
 6603SOL     OW21740   6.980   2.756   6.909 -0.1981 -0.2861 -0.0608
 6603SOL    HW121741   6.938   2.788   6.990  1.6282 -0.9042  1.1998
 6603SOL    HW221742   7.055   2.814   6.897 -0.6867  0.0723 -1.6160
 6604SOL     OW21743   4.749   8.825   2.347  0.0932 -0.4592 -0.3322
 6604SOL    HW121744   4.697   8.746   2.362 -0.8204  0.0478 -0.7346
 6604SOL    HW221745   4.741   8.875   2.429  0.7493 -0.8160 -0.0423
 6605SOL     OW21746   0.074   7.598   5.305 -0.6319  0.0276 -0.2261
 6605SOL    HW121747   0.001   7.612   5.366  0.0406 -0.6878  0.7606
 6605SOL    HW221748   0.032   7.562   5.227 -1.3382 -0.4430  0.3523
 6606SOL     OW21749   7.721   7.072   6.808  0.7564 -0.0603 -0.1273
 6606SOL    HW121750   7.720   7.121   6.725 -0.8395 -0.1566 -0.1894
 6606SOL    HW221751   7.719   6.980   6.782  1.7973 -0.1382  0.0194
 6607SOL     OW21752   8.605   5.660   3.516  0.1685  0.2535  0.2785
 6607SOL    HW121753   8.685   5.638   3.563  0.2896  0.5328  0.2101
 6607SOL    HW221754   8.562   5.577   3.500  1.4173 -0.1248 -1.4314
 6608SOL     OW21755   8.698   3.891   4.691 -0.0919  0.1218 -0.1506
 6608SOL    HW121756   8.702   3.798   4.669 -0.5388 -0.1034  0.6590
 6608SOL    HW221757   8.617   3.922   4.650  0.7880  0.5313 -1.6832
 6609SOL     OW21758   5.839   7.544   8.572  0.1643 -0.2501 -0.1674
 6609SOL    HW121759   5.863   7.553   8.480 -0.6972 -0.3141 -0.4084
 6609SOL    HW221760   5.898   7.603   8.619 -0.8021  1.4374 -0.9826
 6610SOL     OW21761   0.133   2.842   1.526  0.5423 -0.3963  0.0632
 6610SOL    HW121762   0.078   2.911   1.486 -0.0641 -1.5519 -1.1823
 6610SOL    HW221763   0.181   2.887   1.595  0.0733  1.2592 -0.6350
 6611SOL     OW21764   5.934   5.791   6.450 -0.5194 -0.0654  0.3548
 6611SOL    HW121765   5.919   5.862   6.512  2.5449 -0.4750  1.7407
 6611SOL    HW221766   6.019   5.811   6.410 -0.5593 -1.8841 -0.7686
 6612SOL     OW21767   3.338   8.845   2.077  0.1839  0.2000  0.0605
 6612SOL    HW121768   3.343   8.814   2.167  1.0807 -0.2779 -0.1454
 6612SOL    HW221769   3.331   8.940   2.085 -0.0486  0.1374  0.6381
 6613SOL     OW21770   7.343   5.477   2.801  0.1043  0.4308 -0.2429
 6613SOL    HW121771   7.385   5.451   2.883 -0.5503  0.7026  0.1876
 6613SOL    HW221772   7.304   5.562   2.819  0.4457  0.7599 -1.0168
 6614SOL     OW21773   2.029   8.481   1.747  0.6028 -0.0669  0.1029
 6614SOL    HW121774   1.991   8.560   1.708 -0.1407  0.6023  2.0501
 6614SOL    HW221775   1.981   8.409   1.706  0.9216  0.5055 -1.3129
 6615SOL     OW21776   3.025   4.024   1.012  0.0551 -0.5543 -0.1712
 6615SOL    HW121777   3.103   3.970   1.025  0.9172  0.2648 -1.6570
 6615SOL    HW221778   3.026   4.086   1.085  0.2269 -1.1944  0.3736
 6616SOL     OW21779   5.839   7.777   1.588  0.0170  0.2088 -0.2167
 6616SOL    HW121780   5.930   7.804   1.582 -0.1053  1.5459  2.4785
 6616SOL    HW221781   5.796   7.821   1.514  1.3386  0.4099 -0.8993
 6617SOL     OW21782   4.171   6.855   3.893  0.2708  0.2903 -0.0695
 6617SOL    HW121783   4.086   6.874   3.932 -0.0931 -1.4518  0.0481
 6617SOL    HW221784   4.229   6.924   3.927  0.0289 -1.1882  3.7715
 6618SOL     OW21785   5.616   4.299   7.540  0.1131 -0.9325 -0.1339
 6618SOL    HW121786   5.578   4.350   7.611 -2.9885  1.4445 -3.1120
 6618SOL    HW221787   5.576   4.213   7.548 -2.2167  0.0495 -0.2641
 6619SOL     OW21788   4.548   0.652   6.350 -0.3306 -0.4424  0.0291
 6619SOL    HW121789   4.522   0.681   6.262  0.2498 -0.1099 -0.0406
 6619SOL    HW221790   4.583   0.731   6.392  1.4404 -1.0336 -0.2236
 6620SOL     OW21791   8.306   2.604   5.763  0.4711  0.0063 -0.1487
 6620SOL    HW121792   8.278   2.580   5.675 -2.3096 -0.9115  0.8776
 6620SOL    HW221793   8.316   2.699   5.760  1.7570 -0.1265 -1.7418
 6621SOL     OW21794   2.972   1.284   1.371 -0.1752 -0.4272  0.1787
 6621SOL    HW121795   3.030   1.304   1.445 -0.0410  1.0772 -0.2912
 6621SOL    HW221796   3.023   1.306   1.293 -0.5620 -1.3353 -0.3478
 6622SOL     OW21797   7.376   3.238   0.337  0.5307 -0.6525  0.2101
 6622SOL    HW121798   7.413   3.326   0.335 -0.4177 -0.2206 -2.1423
 6622SOL    HW221799   7.428   3.189   0.274 -0.9579 -0.8516 -0.9027
 6623SOL     OW21800   3.947   2.714   1.775  0.0515 -0.2914 -0.1890
 6623SOL    HW121801   3.873   2.696   1.717 -0.0826  2.1753 -0.8855
 6623SOL    HW221802   3.908   2.759   1.850  0.7659  0.5436 -0.3046
 6624SOL     OW21803   5.240   1.579   8.357  0.5595 -0.3732 -0.0624
 6624SOL    HW121804   5.308   1.600   8.421 -1.0529  2.4470  0.9380
 6624SOL    HW221805   5.261   1.633   8.281  0.7538 -1.3631 -0.7248
 6625SOL     OW21806   1.138   3.470   5.850 -0.0056 -0.5468  0.2307
 6625SOL    HW121807   1.163   3.444   5.939  0.2113  0.2792  0.4131
 6625SOL    HW221808   1.050   3.506   5.859  0.6443  1.0794  0.4058
 6626SOL     OW21809   6.719   7.191   1.076 -0.0193 -0.1885  0.0436
 6626SOL    HW121810   6.785   7.130   1.109  1.1345  2.0259  2.1082
 6626SOL    HW221811   6.643   7.175   1.132  0.1034 -0.1186  0.2332
 6627SOL     OW21812   3.867   5.474   5.389 -0.0649 -0.1307  0.1334
 6627SOL    HW121813   3.886   5.508   5.302 -0.1150  0.0355  0.1862
 6627SOL    HW221814   3.944   5.424   5.413  0.6683  1.1995  0.6860
 6628SOL     OW21815   2.288   1.192   8.067  0.4636  0.2835 -0.6722
 6628SOL    HW121816   2.326   1.201   7.979 -0.0160  0.7903 -0.8310
 6628SOL    HW221817   2.351   1.235   8.125  2.5981 -3.0274 -0.2372
 6629SOL     OW21818   6.523   3.441   5.960  0.1677 -0.1055  0.1148
 6629SOL    HW121819   6.522   3.525   5.913  1.5563 -0.3749 -0.4525
 6629SOL    HW221820   6.609   3.438   6.002  0.1028 -1.1970  0.2012
 6630SOL     OW21821   6.328   2.415   1.183  0.0846  0.1666 -0.0722
 6630SOL    HW121822   6.379   2.344   1.221  0.1499  0.2510 -0.0034
 6630SOL    HW221823   6.392   2.468   1.136  0.4603  1.5979  1.9434
 6631SOL     OW21824   2.518   4.213   6.357  0.0400  0.1187  0.0027
 6631SOL    HW121825   2.561   4.138   6.398 -1.1233 -0.6866 -0.1855
 6631SOL    HW221826   2.426   4.204   6.381  0.1241  2.5942  1.5928
 6632SOL     OW21827   1.599   1.755   1.807 -0.8029  0.2704  0.3740
 6632SOL    HW121828   1.539   1.821   1.772 -0.6228  0.5012  0.4942
 6632SOL    HW221829   1.589   1.680   1.749 -0.5840  0.6112 -0.1211
 6633SOL     OW21830   0.073   3.682   7.233 -0.0366 -0.2328 -0.2356
 6633SOL    HW121831  -0.009   3.680   7.184  1.2229  0.3720 -2.5536
 6633SOL    HW221832   0.115   3.598   7.214  0.6692  0.1876 -0.6035
 6634SOL     OW21833   2.548   6.951   8.333 -0.0896 -0.0540  0.2264
 6634SOL    HW121834   2.488   7.020   8.306  0.1761 -0.4402 -1.4694
 6634SOL    HW221835   2.501   6.869   8.314  0.8247 -0.3536 -0.8396
 6635SOL     OW21836   1.512   6.978   7.673 -0.0936  0.1070 -0.2427
 6635SOL    HW121837   1.563   6.959   7.752 -0.0124 -0.5292 -0.4434
 6635SOL    HW221838   1.447   7.042   7.702  0.2443  0.2469  0.2268
 6636SOL     OW21839   8.243   0.531   3.660 -0.0106 -0.0882  0.1712
 6636SOL    HW121840   8.283   0.533   3.747  1.3432 -1.9536 -0.3245
 6636SOL    HW221841   8.236   0.437   3.640  1.1879  0.2996 -2.3574
 6637SOL     OW21842   8.038   2.450   8.249 -0.2980 -0.5325 -0.1963
 6637SOL    HW121843   8.075   2.501   8.177 -1.9421  0.4720 -0.3776
 6637SOL    HW221844   8.064   2.498   8.328 -0.2122 -0.4973 -0.2466
 6638SOL     OW21845   2.792   2.913   2.038  0.0257 -0.1807  0.2310
 6638SOL    HW121846   2.884   2.899   2.059  0.4496  0.7523 -0.8373
 6638SOL    HW221847   2.748   2.831   2.062  1.2894 -0.9744 -0.0646
 6639SOL     OW21848   1.151   8.631   1.240  0.0246 -0.0439  0.9655
 6639SOL    HW121849   1.132   8.539   1.256  1.4516 -0.1288  2.4133
 6639SOL    HW221850   1.240   8.631   1.203 -0.8173  0.6329 -1.2203
 6640SOL     OW21851   5.760   1.420   7.202  0.0892  0.3766  0.3840
 6640SOL    HW121852   5.761   1.340   7.255 -2.7138  0.6008  0.8994
 6640SOL    HW221853   5.788   1.390   7.115 -0.5652 -1.1210  0.6507
 6641SOL     OW21854   1.622   1.470   7.767  0.1118 -0.0978  0.0814
 6641SOL    HW121855   1.662   1.500   7.848 -2.4708  0.8464  1.0862
 6641SOL    HW221856   1.545   1.525   7.756 -0.9375 -1.8083 -1.7366
 6642SOL     OW21857   6.035   7.829   2.900  0.0652 -0.1342 -0.5604
 6642SOL    HW121858   6.058   7.887   2.972  0.9305 -0.3941 -0.6157
 6642SOL    HW221859   5.944   7.850   2.880  0.1449  0.6907 -0.0998
 6643SOL     OW21860   8.278   3.982   4.168 -0.0797 -0.2502 -0.4285
 6643SOL    HW121861   8.184   4.002   4.162 -0.4304 -1.0221  1.4976
 6643SOL    HW221862   8.290   3.907   4.110 -0.9491 -0.9269  0.2298
 6644SOL     OW21863   7.937   6.697   3.168  0.1830 -0.2261 -0.5266
 6644SOL    HW121864   7.884   6.724   3.243  1.3832 -0.0870  0.2835
 6644SOL    HW221865   7.872   6.669   3.103 -0.9013  0.2689  0.3040
 6645SOL     OW21866   6.282   4.526   5.469  0.0408  0.4054  0.1993
 6645SOL    HW121867   6.190   4.546   5.455  0.1316  0.0274 -1.1273
 6645SOL    HW221868   6.288   4.500   5.560 -1.3919 -0.7428 -0.0038
 6646SOL     OW21869   6.323   1.543   1.355  0.3298  0.0469 -0.1938
 6646SOL    HW121870   6.354   1.558   1.266 -1.6330 -0.2000 -0.9824
 6646SOL    HW221871   6.229   1.524   1.344 -0.2370  1.2483  2.0291
 6647SOL     OW21872   5.120   2.023   0.033 -0.3504 -0.1810  0.2666
 6647SOL    HW121873   5.192   2.053   0.088 -0.1698  3.3879 -1.5759
 6647SOL    HW221874   5.158   2.013  -0.054 -1.8512  1.1451 -0.6152
 6648SOL     OW21875   7.610   5.149   8.331  0.0080 -0.1899 -0.3520
 6648SOL    HW121876   7.579   5.138   8.241  0.4401  0.6131 -0.6066
 6648SOL    HW221877   7.562   5.083   8.381  0.9873 -1.8016 -1.4363
 6649SOL     OW21878   0.529   6.599   6.425  0.3126 -0.1885  0.4120
 6649SOL    HW121879   0.449   6.571   6.380  0.9346 -1.5058  0.0883
 6649SOL    HW221880   0.498   6.642   6.505 -0.6974 -2.0276  1.0572
 6650SOL     OW21881   2.968   6.704   2.686  0.0856 -0.3331  0.2266
 6650SOL    HW121882   2.931   6.772   2.743 -0.0026  1.9113 -2.3262
 6650SOL    HW221883   2.892   6.669   2.638  0.3315 -1.2951  0.5059
 6651SOL     OW21884   4.954   2.656   6.406  0.2068 -0.5036 -0.1920
 6651SOL    HW121885   4.893   2.672   6.477  0.1594 -3.3805  0.5241
 6651SOL    HW221886   5.036   2.630   6.450  0.7821 -0.4054 -1.1684
 6652SOL     OW21887   7.283   0.131   7.936  0.1831  0.2021  0.0392
 6652SOL    HW121888   7.219   0.182   7.985 -0.7429  1.6590 -2.4798
 6652SOL    HW221889   7.253   0.040   7.944 -2.8683  0.9096 -1.7843
 6653SOL     OW21890   0.335   8.194   3.932  0.2185  0.1530  0.3008
 6653SOL    HW121891   0.373   8.125   3.985 -2.0718 -0.6150  1.0649
 6653SOL    HW221892   0.406   8.258   3.921  2.1995 -1.9590  0.1133
 6654SOL     OW21893   6.308   1.249   5.804  0.2231  0.2128 -0.0906
 6654SOL    HW121894   6.228   1.278   5.848 -0.7686  0.7577 -2.1471
 6654SOL    HW221895   6.369   1.322   5.815  0.0579  0.2637  0.5165
 6655SOL     OW21896   3.300   0.490   3.219  0.2349  0.0464  0.0058
 6655SOL    HW121897   3.291   0.399   3.193  2.0721 -0.6471  1.5955
 6655SOL    HW221898   3.340   0.533   3.144  0.6685 -0.7612 -0.2333
 6656SOL     OW21899   0.609   3.426   4.932  0.5210 -0.0519  0.1687
 6656SOL    HW121900   0.616   3.391   4.843  0.2220 -0.7778  0.4220
 6656SOL    HW221901   0.700   3.434   4.962  0.6059 -2.5965  0.8427
 6657SOL     OW21902   3.995   0.321   8.039 -0.2479 -0.0998  0.8113
 6657SOL    HW121903   4.084   0.335   8.071  1.0432 -1.9842 -1.5731
 6657SOL    HW221904   3.968   0.406   8.004  1.6464  0.0072 -0.5884
 6658SOL     OW21905   3.999   0.497   2.858  0.1129 -0.6648  0.8335
 6658SOL    HW121906   4.072   0.558   2.865 -1.0642  1.0393 -0.7663
 6658SOL    HW221907   3.956   0.502   2.944  0.0085  0.8499  0.7169
 6659SOL     OW21908   4.887   3.477   8.078 -0.2274  0.3244 -0.0664
 6659SOL    HW121909   4.857   3.479   8.169 -0.5637  1.7323 -0.1807
 6659SOL    HW221910   4.875   3.387   8.050 -1.3202  0.1595  0.8965
 6660SOL     OW21911   0.339   7.138   6.956 -0.7493 -0.0618 -0.3895
 6660SOL    HW121912   0.250   7.118   6.927 -0.8054  1.3956 -1.3176
 6660SOL    HW221913   0.330   7.216   7.011 -0.1326 -0.4149  0.2376
 6661SOL     OW21914   2.997   1.680   4.404 -0.3771  0.2716 -0.5940
 6661SOL    HW121915   2.908   1.668   4.372 -0.2280  0.3157 -1.0355
 6661SOL    HW221916   3.048   1.612   4.360 -0.6613 -1.5453  1.7141
 6662SOL     OW21917   1.646   7.534   6.926 -0.2769 -0.5681  0.4562
 6662SOL    HW121918   1.627   7.626   6.943 -1.1239 -0.6858  0.1586
 6662SOL    HW221919   1.677   7.531   6.836 -0.6482 -0.6334  0.3320
 6663SOL     OW21920   6.699   0.212   2.538  0.1187 -0.0391  0.3125
 6663SOL    HW121921   6.735   0.142   2.483 -0.2135 -0.9778  1.2495
 6663SOL    HW221922   6.776   0.261   2.569  0.3285  0.2720 -0.6753
 6664SOL     OW21923   6.678   1.094   6.622 -0.1608 -0.3123  0.3596
 6664SOL    HW121924   6.713   1.155   6.687 -0.9795 -0.0774  0.6029
 6664SOL    HW221925   6.735   1.104   6.546  0.5254 -0.2415  0.8745
 6665SOL     OW21926   6.415   0.011   5.465 -0.4544  0.1508 -0.3003
 6665SOL    HW121927   6.471  -0.017   5.393 -1.6414  0.2552 -1.3069
 6665SOL    HW221928   6.399   0.104   5.447 -0.1702  0.3609  0.5103
 6666SOL     OW21929   4.661   4.746   1.212 -0.7564 -0.1442 -0.1115
 6666SOL    HW121930   4.756   4.747   1.228 -1.0504  0.6641  1.8923
 6666SOL    HW221931   4.646   4.822   1.156 -0.4192  0.9110  1.1743
 6667SOL     OW21932   3.838   4.107   2.330  0.3014 -0.5340 -0.3282
 6667SOL    HW121933   3.778   4.173   2.364  1.7428  0.3796  0.5693
 6667SOL    HW221934   3.887   4.153   2.262  2.8054  0.1102  1.7316
 6668SOL     OW21935   6.300   6.139   2.475  0.2669  0.0075 -0.4516
 6668SOL    HW121936   6.333   6.109   2.560  0.8092 -0.8693 -0.9577
 6668SOL    HW221937   6.217   6.093   2.464  0.2293  0.0693 -0.4299
 6669SOL     OW21938   0.869   4.669   7.678  0.4107  0.5021 -0.0137
 6669SOL    HW121939   0.812   4.739   7.645 -0.3796  0.9332  2.1241
 6669SOL    HW221940   0.948   4.715   7.707  0.9427  0.1711 -0.8938
 6670SOL     OW21941   1.396   4.975   7.163 -0.5619 -0.2680  0.1309
 6670SOL    HW121942   1.470   5.022   7.124 -1.3530 -0.0348 -1.1502
 6670SOL    HW221943   1.436   4.907   7.216  0.5898 -0.8107 -1.3751
 6671SOL     OW21944   5.875   2.731   0.621  0.4024 -0.0585  0.2096
 6671SOL    HW121945   5.967   2.717   0.599  0.2994  1.1280 -1.1536
 6671SOL    HW221946   5.870   2.718   0.716  1.6388 -1.7454  0.0742
 6672SOL     OW21947   1.726   0.965   6.124 -0.4802  0.3584  0.1110
 6672SOL    HW121948   1.769   0.994   6.043 -0.5939  0.4431  0.0820
 6672SOL    HW221949   1.735   0.870   6.123 -0.7618  0.3348 -0.1569
 6673SOL     OW21950   3.819   5.742   4.829  0.5003  0.0182 -0.3287
 6673SOL    HW121951   3.734   5.786   4.826  0.7672  0.4905 -1.7490
 6673SOL    HW221952   3.799   5.650   4.811 -0.0404 -0.5229  2.5103
 6674SOL     OW21953   8.678   1.832   7.759  0.4567 -0.1465 -0.4246
 6674SOL    HW121954   8.745   1.777   7.719 -0.3422 -1.4490 -0.0381
 6674SOL    HW221955   8.595   1.797   7.727 -0.0638  1.2458 -0.6554
 6675SOL     OW21956   7.184   7.559   7.604 -0.4544 -0.5427  0.0842
 6675SOL    HW121957   7.103   7.594   7.640 -0.4654  0.0195 -0.4683
 6675SOL    HW221958   7.233   7.636   7.575  0.4118 -0.8572  0.6820
 6676SOL     OW21959   1.382   4.485   2.373 -0.1549  0.4399  0.1789
 6676SOL    HW121960   1.412   4.575   2.359 -2.5521  1.2039 -0.4321
 6676SOL    HW221961   1.340   4.460   2.291 -6.2739  1.6508  2.4630
 6677SOL     OW21962   7.197   1.216   0.223 -0.0801 -0.1342 -0.3731
 6677SOL    HW121963   7.267   1.165   0.182  0.5789  0.5959 -0.1791
 6677SOL    HW221964   7.242   1.287   0.269 -0.9642  0.6273 -0.6298
 6678SOL     OW21965   1.209   0.676   3.505  0.3519 -0.3065 -0.4954
 6678SOL    HW121966   1.232   0.766   3.531  1.8628 -0.5838 -0.7431
 6678SOL    HW221967   1.115   0.671   3.518  0.0097  1.7228 -1.7372
 6679SOL     OW21968   3.475   7.494   2.051  0.3400  0.3193  0.5082
 6679SOL    HW121969   3.507   7.421   1.999 -0.8019  1.1122 -1.4096
 6679SOL    HW221970   3.426   7.453   2.123  1.2184 -0.7913  0.4995
 6680SOL     OW21971   3.509   5.901   8.060  0.0366  0.8125  0.3849
 6680SOL    HW121972   3.504   5.947   8.144 -1.0072 -0.1211  0.8507
 6680SOL    HW221973   3.420   5.903   8.026 -0.0364 -0.8024  0.4021
 6681SOL     OW21974   0.162   5.419   8.131  0.2862  0.4666  0.1702
 6681SOL    HW121975   0.189   5.465   8.051 -0.8046 -0.7364 -0.9219
 6681SOL    HW221976   0.168   5.486   8.200  0.6366  1.6951 -1.0114
 6682SOL     OW21977   5.618   5.250   7.475 -0.3688 -0.0370 -0.4416
 6682SOL    HW121978   5.707   5.245   7.507  0.0965  2.8679 -0.9542
 6682SOL    HW221979   5.626   5.242   7.380 -0.3323  2.0731 -0.6706
 6683SOL     OW21980   2.343   7.195   2.885 -0.4086 -0.1554 -0.4519
 6683SOL    HW121981   2.431   7.229   2.904 -0.1642 -0.0720 -1.6616
 6683SOL    HW221982   2.289   7.273   2.876 -0.6665 -0.2125  0.5057
 6684SOL     OW21983   2.732   2.515   7.726 -0.1400 -0.5102 -0.0303
 6684SOL    HW121984   2.668   2.579   7.757  1.4933  0.7203  1.0520
 6684SOL    HW221985   2.700   2.486   7.641 -1.4810  0.9627 -0.0597
 6685SOL     OW21986   3.273   1.705   1.089  0.1805 -0.2781  0.6159
 6685SOL    HW121987   3.184   1.734   1.073  0.0669 -0.2923  1.2055
 6685SOL    HW221988   3.327   1.765   1.038 -0.2604 -1.7744 -1.7684
 6686SOL     OW21989   2.682   0.082   5.324 -0.4702 -0.0195  0.6678
 6686SOL    HW121990   2.745   0.144   5.361 -0.6361  0.1830  0.6115
 6686SOL    HW221991   2.693   0.002   5.376 -0.0203 -0.0524  0.5239
 6687SOL     OW21992   2.517   4.703   4.680  0.6875  0.3772  0.1856
 6687SOL    HW121993   2.582   4.675   4.744  1.5809  0.9786 -0.4365
 6687SOL    HW221994   2.499   4.625   4.629  1.1144  0.2680  0.1983
 6688SOL     OW21995   5.188   5.889   0.677  0.1103  0.1089 -0.3023
 6688SOL    HW121996   5.155   5.810   0.720 -1.3175  0.8468  0.0405
 6688SOL    HW221997   5.275   5.903   0.714  0.6944 -1.6895 -0.9159
 6689SOL     OW21998   6.919   6.311   1.591  0.0363 -0.2931  0.1578
 6689SOL    HW121999   6.976   6.297   1.515 -0.4389 -0.5954 -0.1523
 6689SOL    HW222000   6.872   6.228   1.601  1.0252 -0.7004  1.5869
 6690SOL     OW22001   4.777   6.282   4.290  0.0798  0.1501  0.3047
 6690SOL    HW122002   4.739   6.293   4.203 -1.7784 -1.8763  0.7605
 6690SOL    HW222003   4.754   6.363   4.336 -0.2133  0.6266 -0.6440
 6691SOL     OW22004   2.334   6.507   3.068  0.1756 -0.0022  0.4241
 6691SOL    HW122005   2.269   6.575   3.085 -0.1580 -0.4706  1.0770
 6691SOL    HW222006   2.418   6.550   3.083  0.0563  0.7271 -0.8409
 6692SOL     OW22007   1.032   3.259   0.415  0.1485 -0.4588  0.6484
 6692SOL    HW122008   1.073   3.341   0.441  0.6533 -0.1262 -1.0675
 6692SOL    HW222009   0.943   3.283   0.388 -0.0899 -0.6704  1.2169
 6693SOL     OW22010   1.978   4.200   4.219 -0.3910 -0.1705 -0.1148
 6693SOL    HW122011   2.045   4.225   4.155 -0.3476  0.7010  0.2587
 6693SOL    HW222012   1.963   4.280   4.270 -0.2078 -0.9252  1.1677
 6694SOL     OW22013   7.049   4.774   2.171 -0.1889 -0.3714 -0.3974
 6694SOL    HW122014   7.048   4.785   2.266  1.1528  0.1156 -0.4199
 6694SOL    HW222015   6.978   4.713   2.153 -0.0681 -0.9495  0.9845
 6695SOL     OW22016   7.171   0.167   4.433 -0.1549 -0.5976  0.0077
 6695SOL    HW122017   7.093   0.181   4.380  0.0298  0.2447 -0.0467
 6695SOL    HW222018   7.200   0.079   4.410 -0.8765 -0.7736 -0.2424
 6696SOL     OW22019   3.007   6.391   3.801 -0.1584 -0.0215  0.2720
 6696SOL    HW122020   2.972   6.443   3.729  1.3365 -0.6499 -0.9674
 6696SOL    HW222021   3.095   6.425   3.815  0.6917 -1.8541 -0.2767
 6697SOL     OW22022   6.987   4.872   5.277  0.4595 -0.5705  0.3289
 6697SOL    HW122023   6.901   4.856   5.239  0.3289  0.5819  0.1078
 6697SOL    HW222024   7.047   4.877   5.203  0.1048  2.3112  0.1279
 6698SOL     OW22025   6.331   5.173   1.038 -0.1084  0.7474  0.3804
 6698SOL    HW122026   6.388   5.230   1.090 -0.2848  1.1570  0.1274
 6698SOL    HW222027   6.378   5.090   1.033 -0.0203  0.7520  1.0653
 6699SOL     OW22028   2.831   4.116   0.508 -0.5727 -0.1700  0.2171
 6699SOL    HW122029   2.835   4.079   0.596 -0.8767  0.4121  0.4780
 6699SOL    HW222030   2.914   4.163   0.497 -1.1293  0.9754  0.7474
 6700SOL     OW22031   0.356   6.785   5.445  0.1186 -0.2190  0.0218
 6700SOL    HW122032   0.267   6.811   5.470 -0.2921 -0.8313 -0.7546
 6700SOL    HW222033   0.407   6.795   5.525 -0.6916 -0.0600  0.5338
 6701SOL     OW22034   1.228   2.393   6.507  0.3182  0.1218 -0.6887
 6701SOL    HW122035   1.174   2.470   6.525  0.2696 -0.1121  0.2676
 6701SOL    HW222036   1.177   2.319   6.542  1.2064 -0.1086  0.1918
 6702SOL     OW22037   0.269   5.096   5.717 -0.2686 -0.5536  0.5805
 6702SOL    HW122038   0.321   5.077   5.795  0.7254 -1.0029 -0.1574
 6702SOL    HW222039   0.334   5.129   5.654 -0.7837 -1.5938 -0.5355
 6703SOL     OW22040   5.582   5.001   7.960  0.4106 -0.0268 -0.1604
 6703SOL    HW122041   5.649   5.047   8.011 -0.0505 -0.1961  0.6196
 6703SOL    HW222042   5.561   4.924   8.013  1.5477 -1.4501 -1.6842
 6704SOL     OW22043   2.067   4.066   7.630  0.1927 -0.2160 -0.1425
 6704SOL    HW122044   2.007   3.993   7.643 -0.3337  0.2202 -0.0596
 6704SOL    HW222045   2.011   4.144   7.637  0.9692  0.2655  1.2131
 6705SOL     OW22046   3.098   1.732   6.897 -0.1382 -0.2521  0.2694
 6705SOL    HW122047   3.139   1.809   6.859  0.4674  0.1203  1.6128
 6705SOL    HW222048   3.005   1.743   6.880 -0.3246  1.8723  2.1980
 6706SOL     OW22049   1.267   4.321   4.225  0.1939  0.3434 -0.5408
 6706SOL    HW122050   1.210   4.399   4.223 -0.1574  0.0814 -2.3198
 6706SOL    HW222051   1.260   4.285   4.137  2.6897 -0.0407 -0.6347
 6707SOL     OW22052   7.676   8.464   3.501 -0.0287 -0.4159  0.1947
 6707SOL    HW122053   7.658   8.536   3.562 -0.7029 -1.9119  1.8512
 6707SOL    HW222054   7.764   8.434   3.527  0.1888 -0.2917 -0.3935
 6708SOL     OW22055   0.074   2.157   3.516  0.0447  0.6639 -0.1572
 6708SOL    HW122056   0.082   2.081   3.575 -1.7392  0.3387 -0.2482
 6708SOL    HW222057   0.137   2.221   3.549 -0.9515  0.5274  2.1924
 6709SOL     OW22058   6.236   4.593   0.692 -0.3065 -0.5080  0.4893
 6709SOL    HW122059   6.235   4.688   0.703  1.6665 -0.4644  0.6547
 6709SOL    HW222060   6.295   4.578   0.619  1.6504 -1.7121  2.2112
 6710SOL     OW22061   6.191   5.598   8.020 -0.0529  0.2109  0.7079
 6710SOL    HW122062   6.134   5.659   7.974 -0.3009 -0.9768 -0.6023
 6710SOL    HW222063   6.137   5.521   8.035 -0.1542  0.7224  3.5336
 6711SOL     OW22064   1.938   3.371   6.056  0.1811  0.0190 -0.2388
 6711SOL    HW122065   1.956   3.292   6.005  0.6786 -0.2228  0.2926
 6711SOL    HW222066   1.853   3.355   6.097  0.0395 -0.0201 -0.5512
 6712SOL     OW22067   6.544   8.196   0.052  0.2116 -0.4577 -0.1784
 6712SOL    HW122068   6.592   8.124   0.012 -0.6812 -0.4183 -1.3608
 6712SOL    HW222069   6.525   8.165   0.141  0.3218 -1.4517 -0.4878
 6713SOL     OW22070   2.401   2.640   4.284  0.0584  0.6728  0.2113
 6713SOL    HW122071   2.360   2.659   4.368  0.1204 -1.2277  0.7186
 6713SOL    HW222072   2.401   2.724   4.237  0.1625  1.8173  2.1477
 6714SOL     OW22073   2.481   0.694   1.349 -0.7552  0.0476 -0.1949
 6714SOL    HW122074   2.387   0.707   1.336 -0.5405  1.5019 -0.4960
 6714SOL    HW222075   2.489   0.660   1.438 -1.4315  2.5233  0.9008
 6715SOL     OW22076   8.587   7.910   1.419  0.1519 -0.6095 -0.1045
 6715SOL    HW122077   8.659   7.918   1.356 -0.4815  1.7258 -0.6355
 6715SOL    HW222078   8.620   7.954   1.498 -0.1077 -0.9680  0.2056
 6716SOL     OW22079   7.587   2.759   3.894  0.1950  0.2276  0.1774
 6716SOL    HW122080   7.583   2.833   3.835  0.3494 -0.7189 -1.0643
 6716SOL    HW222081   7.497   2.724   3.896  0.2394  0.1179  0.3166
 6717SOL     OW22082   8.067   3.583   8.035 -0.3746 -0.0944 -0.3341
 6717SOL    HW122083   7.990   3.556   8.084 -0.7112 -1.1696 -1.3922
 6717SOL    HW222084   8.040   3.579   7.943  1.1446 -1.3075 -0.7870
 6718SOL     OW22085   5.279   7.594   1.112  0.5685 -0.0006  0.1451
 6718SOL    HW122086   5.271   7.574   1.018 -1.5444 -2.4325  0.7264
 6718SOL    HW222087   5.330   7.521   1.148 -0.1079 -0.0116  1.1223
 6719SOL     OW22088   2.136   1.750   2.817  0.0659  0.0390 -0.3242
 6719SOL    HW122089   2.221   1.732   2.856  0.0416  0.2635 -0.1679
 6719SOL    HW222090   2.073   1.728   2.887 -0.0655 -1.1918 -0.7982
 6720SOL     OW22091   0.795   2.577   7.378  0.0287  0.0756 -0.1349
 6720SOL    HW122092   0.836   2.659   7.352  0.3041 -0.2060 -0.5956
 6720SOL    HW222093   0.762   2.540   7.296  0.7919 -0.7555 -0.0757
 6721SOL     OW22094   5.140   2.944   0.685  0.0934  0.4613  0.1448
 6721SOL    HW122095   5.153   2.931   0.779 -1.7898 -0.5107  0.3321
 6721SOL    HW222096   5.207   2.890   0.643 -0.5158 -0.9892  0.9575
 6722SOL     OW22097   4.095   1.861   0.235 -0.1133 -0.6834  0.4234
 6722SOL    HW122098   4.126   1.950   0.217  0.3636 -0.7843  0.7235
 6722SOL    HW222099   4.144   1.833   0.313 -2.0108 -0.3213  1.8114
 6723SOL     OW22100   5.551   1.413   2.459  0.2568  0.2895  0.2302
 6723SOL    HW122101   5.627   1.374   2.417  0.2132  1.3700 -0.8919
 6723SOL    HW222102   5.494   1.339   2.479  0.7372 -0.3471 -0.6931
 6724SOL     OW22103   5.977   2.956   6.967  0.2529 -0.4932 -0.1472
 6724SOL    HW122104   5.924   2.880   6.988 -0.0296 -0.8192 -1.8354
 6724SOL    HW222105   5.966   2.967   6.872 -1.8142  3.2155  0.3313
 6725SOL     OW22106   6.565   3.574   2.842 -0.3709  0.2634  0.6367
 6725SOL    HW122107   6.525   3.579   2.755 -1.4447  0.3082  1.1156
 6725SOL    HW222108   6.659   3.584   2.826 -0.5629  0.3576 -0.5056
 6726SOL     OW22109   6.285   3.993   7.437 -0.0607 -0.5110 -0.8328
 6726SOL    HW122110   6.215   3.957   7.492  0.2159  0.1394 -0.0364
 6726SOL    HW222111   6.362   3.994   7.493  0.1349  0.5411 -1.0949
 6727SOL     OW22112   5.907   3.287   2.325  0.2712 -0.2204  0.2489
 6727SOL    HW122113   5.927   3.206   2.276  0.3754  0.6449 -1.1979
 6727SOL    HW222114   5.987   3.305   2.373  0.5532 -0.5163 -0.0973
 6728SOL     OW22115   8.079   7.799   1.003  0.3471  0.0625 -0.3650
 6728SOL    HW122116   8.122   7.780   0.920  1.4000 -1.0597  0.3925
 6728SOL    HW222117   8.044   7.714   1.033 -0.0208  0.4440  0.3291
 6729SOL     OW22118   1.385   0.087   7.850  0.0627 -0.4167 -0.1849
 6729SOL    HW122119   1.392   0.101   7.756  2.2821 -1.0274 -0.1514
 6729SOL    HW222120   1.313   0.145   7.877 -0.3899  0.0225 -2.1796
 6730SOL     OW22121   1.088   0.152   3.112  0.4226  0.0300 -0.4465
 6730SOL    HW122122   1.019   0.161   3.046 -0.2047  2.2980  0.4252
 6730SOL    HW222123   1.168   0.139   3.061 -0.1612  0.9416 -1.6577
 6731SOL     OW22124   7.857   5.808   8.731 -0.5153 -0.5196 -0.2060
 6731SOL    HW122125   7.928   5.744   8.738  0.4283  0.3939 -1.1012
 6731SOL    HW222126   7.817   5.791   8.646  1.1997  1.4587 -1.5099
 6732SOL     OW22127   7.375   7.938   8.867  0.2498  0.1564 -0.0786
 6732SOL    HW122128   7.446   7.997   8.843 -1.0141  1.0401 -1.8857
 6732SOL    HW222129   7.404   7.852   8.838 -0.0568  0.7716 -2.3385
 6733SOL     OW22130   2.305   1.045   6.772  0.4482 -0.4199 -0.2348
 6733SOL    HW122131   2.378   1.108   6.773  0.5926 -0.5870 -0.2072
 6733SOL    HW222132   2.346   0.961   6.788  0.1261 -0.4017  0.7118
 6734SOL     OW22133   3.517   5.426   3.135  0.1297  0.5094 -0.1381
 6734SOL    HW122134   3.546   5.471   3.056 -1.5955  0.3792 -0.8689
 6734SOL    HW222135   3.460   5.489   3.179  0.1859  0.1708  0.4252
 6735SOL     OW22136   7.082   1.649   8.812 -0.2152 -0.4602 -0.1765
 6735SOL    HW122137   7.070   1.698   8.894  0.6297 -0.6916  0.0936
 6735SOL    HW222138   6.996   1.611   8.795 -0.6235  0.2923  0.1459
 6736SOL     OW22139   6.268   3.460   5.275 -0.0153 -0.3755  0.8631
 6736SOL    HW122140   6.200   3.396   5.295 -0.5451 -0.4789 -1.0491
 6736SOL    HW222141   6.296   3.439   5.185  0.4265  1.4977  0.5081
 6737SOL     OW22142   3.942   5.812   4.234  0.2184  0.3185 -0.1326
 6737SOL    HW122143   3.949   5.882   4.298 -0.0253 -0.2063  0.4885
 6737SOL    HW222144   4.019   5.757   4.249 -0.1563 -0.1462  0.1469
 6738SOL     OW22145   0.236   4.865   2.285 -0.0325  0.5737  0.0224
 6738SOL    HW122146   0.155   4.817   2.270 -0.5781  1.4497  0.1076
 6738SOL    HW222147   0.263   4.892   2.197  0.2007  0.2500 -0.0101
 6739SOL     OW22148   2.314   4.511   2.905 -0.2696 -0.5881 -0.1020
 6739SOL    HW122149   2.317   4.457   2.826  0.5520  0.7394 -1.0157
 6739SOL    HW222150   2.224   4.501   2.937 -0.3527 -1.8648 -0.6797
 6740SOL     OW22151   8.174   2.947   3.956 -0.4952 -0.6976 -0.2832
 6740SOL    HW122152   8.151   3.011   4.023  0.9447 -0.0721 -0.3602
 6740SOL    HW222153   8.249   2.900   3.992  1.4822  0.8591 -2.1528
 6741SOL     OW22154   0.513   8.407   2.704  0.0753 -0.3225 -0.1824
 6741SOL    HW122155   0.565   8.479   2.668  1.2632 -0.7367  0.6185
 6741SOL    HW222156   0.444   8.451   2.754  1.1206  0.3120  0.7745
 6742SOL     OW22157   2.733   1.737   0.055 -0.0848 -0.4663 -0.1992
 6742SOL    HW122158   2.726   1.684  -0.025  0.1090 -1.3765  0.3676
 6742SOL    HW222159   2.645   1.735   0.093  0.0235 -0.7666  0.0475
 6743SOL     OW22160   1.082   7.488   4.396 -0.6840 -0.4466 -0.4031
 6743SOL    HW122161   1.038   7.533   4.468 -0.2361  0.8958 -0.9285
 6743SOL    HW222162   1.126   7.414   4.437  0.1076  0.6698  0.8430
 6744SOL     OW22163   7.188   2.004   4.953 -0.1465  0.0804  0.7698
 6744SOL    HW122164   7.140   2.016   5.035 -1.3703 -0.5824  0.1722
 6744SOL    HW222165   7.144   2.059   4.890  0.3634  0.0564  0.3823
 6745SOL     OW22166   0.226   6.739   4.746  0.2226 -0.1324  0.6903
 6745SOL    HW122167   0.165   6.788   4.801  0.7372  0.1972  0.9682
 6745SOL    HW222168   0.283   6.694   4.808  1.2493  0.7893  0.4421
 6746SOL     OW22169   8.022   7.185   7.631  0.0964 -0.2147  0.3070
 6746SOL    HW122170   7.975   7.115   7.584  0.3972 -1.6029  1.9645
 6746SOL    HW222171   8.114   7.163   7.619  0.3547  1.5724 -1.5490
 6747SOL     OW22172   5.544   5.499   8.606 -0.3383 -0.3082 -0.3404
 6747SOL    HW122173   5.635   5.494   8.577 -0.7903 -3.1559 -1.5920
 6747SOL    HW222174   5.501   5.553   8.539  0.2476  0.4700 -0.1117
 6748SOL     OW22175   4.893   3.854   0.755  0.0516 -0.3066  0.8047
 6748SOL    HW122176   4.820   3.797   0.729  0.1187  0.3449 -0.9946
 6748SOL    HW222177   4.880   3.934   0.704  1.8272 -0.0571  0.6838
 6749SOL     OW22178   7.812   5.886   4.518 -0.2841  0.2030 -0.8317
 6749SOL    HW122179   7.737   5.940   4.494 -0.1482  0.2157 -1.2483
 6749SOL    HW222180   7.793   5.855   4.606 -0.6382  0.4497 -0.8206
 6750SOL     OW22181   8.261   1.170   7.006 -0.5465 -0.1325 -0.2496
 6750SOL    HW122182   8.336   1.116   6.978 -0.3508  0.4209 -0.8032
 6750SOL    HW222183   8.285   1.259   6.982 -1.1167  0.1354  0.1500
 6751SOL     OW22184   8.300   3.716   7.723 -0.0223  0.4132 -0.3121
 6751SOL    HW122185   8.231   3.729   7.659 -1.3818 -0.2748  0.9561
 6751SOL    HW222186   8.337   3.631   7.701 -1.1969 -0.3102  0.4144
 6752SOL     OW22187   7.125   0.558   5.888 -0.2687 -0.4692 -0.5062
 6752SOL    HW122188   7.165   0.621   5.948 -1.5276  1.4146 -1.5550
 6752SOL    HW222189   7.033   0.582   5.885 -0.5972 -1.7530 -1.7104
 6753SOL     OW22190   7.613   3.775   1.753 -0.0179  0.0418  0.1489
 6753SOL    HW122191   7.520   3.795   1.739 -0.0913 -0.7256 -0.5746
 6753SOL    HW222192   7.651   3.780   1.665  0.6955  0.6762  0.4891
 6754SOL     OW22193   4.301   4.486   6.170 -0.2563  0.3566  0.0836
 6754SOL    HW122194   4.214   4.525   6.181 -0.5093 -0.7260  2.6104
 6754SOL    HW222195   4.290   4.395   6.197  1.4401 -0.1101 -0.6523
 6755SOL     OW22196   1.191   6.563   5.142  0.0374  0.8924 -0.0560
 6755SOL    HW122197   1.175   6.470   5.156 -0.0089  1.1095  1.5808
 6755SOL    HW222198   1.267   6.584   5.197  0.8780  1.5729 -1.4109
 6756SOL     OW22199   8.344   7.530   3.696 -0.1079  0.3862 -0.2368
 6756SOL    HW122200   8.399   7.589   3.644  1.2544 -0.7877 -0.1858
 6756SOL    HW222201   8.281   7.495   3.633 -0.0372  0.8441 -0.5690
 6757SOL     OW22202   5.194   1.067   7.467  0.3568  0.2974  0.0718
 6757SOL    HW122203   5.188   1.156   7.501  0.7785  0.0596  0.8071
 6757SOL    HW222204   5.124   1.020   7.514  1.3902 -0.1948  1.1695
 6758SOL     OW22205   3.243   3.254   1.982 -0.2703  0.2140  0.3356
 6758SOL    HW122206   3.217   3.343   1.961 -1.5917  0.1042  1.3212
 6758SOL    HW222207   3.307   3.230   1.915  2.9992  3.1723  2.1179
 6759SOL     OW22208   5.009   6.924   6.218 -0.2324 -0.3229  0.0284
 6759SOL    HW122209   5.018   6.853   6.154  0.7526 -0.0387 -0.1610
 6759SOL    HW222210   4.979   6.999   6.166 -0.5967 -0.4129  0.1083
 6760SOL     OW22211   4.294   6.079   8.476  0.9234  0.4301  0.0499
 6760SOL    HW122212   4.317   6.002   8.424  3.0363  0.6586  0.5472
 6760SOL    HW222213   4.361   6.144   8.453 -0.1127  1.7036  0.5388
 6761SOL     OW22214   5.795   3.963   8.590 -0.0230 -0.5096 -0.4144
 6761SOL    HW122215   5.775   4.057   8.590 -0.3161 -0.5698 -0.3349
 6761SOL    HW222216   5.770   3.934   8.678  0.5313 -0.5652 -0.2751
 6762SOL     OW22217   1.490   4.231   5.990 -0.1291  0.2679  0.3963
 6762SOL    HW122218   1.501   4.178   5.912  0.2715  0.5038  0.2902
 6762SOL    HW222219   1.563   4.206   6.047 -2.6763 -3.1196  2.6109
 6763SOL     OW22220   7.931   3.949   7.927  0.5763 -0.5473  0.7256
 6763SOL    HW122221   7.929   4.018   7.861 -0.4009 -2.0112 -0.8509
 6763SOL    HW222222   8.022   3.950   7.960  0.9356  0.5645 -0.2549
 6764SOL     OW22223   6.480   5.811   1.068 -0.1372 -0.4089 -0.6937
 6764SOL    HW122224   6.435   5.803   0.984 -1.2880 -0.4250 -0.1029
 6764SOL    HW222225   6.436   5.883   1.112  0.1397 -0.6987  0.0804
 6765SOL     OW22226   2.125   5.392   8.089  0.3071  0.0774  0.4194
 6765SOL    HW122227   2.146   5.353   8.004  1.6186 -0.7314  1.0674
 6765SOL    HW222228   2.209   5.426   8.121 -0.0219 -0.2229  1.6677
 6766SOL     OW22229   2.681   5.954   1.040 -0.0820 -0.6865 -0.0250
 6766SOL    HW122230   2.615   6.013   1.078  0.0537 -1.2821  1.1652
 6766SOL    HW222231   2.754   6.012   1.018 -0.8875 -0.0480 -1.1669
 6767SOL     OW22232   0.855   3.887   4.644  0.2981 -0.0383  0.1073
 6767SOL    HW122233   0.895   3.833   4.713  0.5853 -0.6093 -0.4991
 6767SOL    HW222234   0.783   3.932   4.689  0.2935 -0.6295  0.7243
 6768SOL     OW22235   5.796   3.697   5.148  0.0700 -0.1709  0.4370
 6768SOL    HW122236   5.813   3.786   5.120 -1.9939  0.9065  2.2599
 6768SOL    HW222237   5.881   3.653   5.144  0.6843  0.9843 -3.1594
 6769SOL     OW22238   6.581   5.678   6.350 -0.2362 -0.0480 -0.4556
 6769SOL    HW122239   6.572   5.753   6.291 -1.0862  0.0618 -0.1887
 6769SOL    HW222240   6.543   5.604   6.301  0.4041 -0.2697 -0.6316
 6770SOL     OW22241   4.500   1.784   5.707 -0.2804  0.0319 -0.3145
 6770SOL    HW122242   4.592   1.758   5.713  0.3958  2.3287  0.0011
 6770SOL    HW222243   4.459   1.739   5.781  1.0251  0.6090  0.8087
 6771SOL     OW22244   8.406   6.630   2.693 -0.0776  0.6988 -0.5727
 6771SOL    HW122245   8.363   6.714   2.681  1.4553  1.3286 -2.1578
 6771SOL    HW222246   8.361   6.571   2.633  1.0063  1.2931 -2.0346
 6772SOL     OW22247   4.923   6.685   3.762  0.3896 -0.1929 -0.3917
 6772SOL    HW122248   4.876   6.731   3.693  0.8211  0.7232 -0.0879
 6772SOL    HW222249   5.004   6.735   3.774  0.7518 -0.8748  0.1345
 6773SOL     OW22250   1.382   8.584   2.185  0.1590 -0.1080 -0.1335
 6773SOL    HW122251   1.429   8.504   2.163  0.4072  0.3428 -1.3597
 6773SOL    HW222252   1.334   8.606   2.105  1.6468  2.0021 -0.5545
 6774SOL     OW22253   3.832   1.586   8.515  0.0827 -0.6538 -0.0110
 6774SOL    HW122254   3.833   1.558   8.606 -2.2045 -1.2658 -0.1239
 6774SOL    HW222255   3.895   1.529   8.471 -0.2825 -1.7252  0.8263
 6775SOL     OW22256   3.369   1.891   8.713  0.6254 -0.0253  0.2728
 6775SOL    HW122257   3.434   1.827   8.681  1.3130  0.9426 -0.3125
 6775SOL    HW222258   3.413   1.935   8.786  0.9534  1.1663 -0.6099
 6776SOL     OW22259   6.885   5.109   0.531 -0.4450  0.4567  0.2217
 6776SOL    HW122260   6.920   5.191   0.498 -0.0665  0.0631 -0.3905
 6776SOL    HW222261   6.907   5.109   0.624  2.1510 -0.2091 -0.2999
 6777SOL     OW22262   1.989   5.951   0.281 -0.5283 -0.2686 -0.2422
 6777SOL    HW122263   1.978   5.872   0.332  1.1307 -1.0548 -1.0086
 6777SOL    HW222264   1.940   6.018   0.328 -0.9146 -1.4656  1.1094
 6778SOL     OW22265   3.061   6.818   8.630 -0.8294 -0.0095  0.1649
 6778SOL    HW122266   3.080   6.909   8.653 -0.1064 -0.5376  1.7830
 6778SOL    HW222267   2.994   6.824   8.561 -0.0051  1.7470 -0.5267
 6779SOL     OW22268   2.356   6.393   0.261 -0.2451 -0.1955 -0.1324
 6779SOL    HW122269   2.298   6.439   0.200  0.2400 -2.2862 -2.3353
 6779SOL    HW222270   2.300   6.328   0.303 -0.3602  0.5831  0.9492
 6780SOL     OW22271   0.802   8.304   1.362  0.0710  0.4501  0.4185
 6780SOL    HW122272   0.718   8.260   1.373  0.8960 -1.5650 -0.8257
 6780SOL    HW222273   0.810   8.361   1.439 -2.8373  1.4567  0.0756
 6781SOL     OW22274   5.078   1.635   4.906  0.4394  0.0357  0.5620
 6781SOL    HW122275   5.035   1.555   4.935 -0.9591 -0.0763 -1.5359
 6781SOL    HW222276   5.037   1.705   4.957  0.4989 -0.4210  1.2446
 6782SOL     OW22277   6.561   8.703   7.401  0.8476  0.4914  0.1317
 6782SOL    HW122278   6.551   8.685   7.495 -2.9348  1.5816  0.0957
 6782SOL    HW222279   6.526   8.791   7.390 -0.6544 -0.3435 -2.5383
 6783SOL     OW22280   1.371   2.927   0.240 -0.3850 -0.1340 -0.0700
 6783SOL    HW122281   1.343   2.968   0.321  0.8394 -0.4392  0.5361
 6783SOL    HW222282   1.446   2.979   0.212  0.0758 -0.8819 -0.2444
 6784SOL     OW22283   6.878   5.415   2.814  0.3600 -0.0611 -0.0251
 6784SOL    HW122284   6.931   5.394   2.737 -0.8096  1.9750 -1.5024
 6784SOL    HW222285   6.819   5.341   2.824 -1.1595  0.6758 -2.7078
 6785SOL     OW22286   2.146   6.796   1.013  0.5267 -0.6448  0.5707
 6785SOL    HW122287   2.073   6.847   1.049 -0.5106 -0.1684 -2.0097
 6785SOL    HW222288   2.107   6.745   0.942  2.8810  0.7450 -1.9272
 6786SOL     OW22289   2.771   2.703   4.803  0.2913  0.1075  0.1365
 6786SOL    HW122290   2.853   2.748   4.822  0.3540 -0.2075  0.6214
 6786SOL    HW222291   2.707   2.773   4.791  0.4912  0.3372  0.4085
 6787SOL     OW22292   1.776   1.681   4.830 -0.2936  0.6667 -0.6215
 6787SOL    HW122293   1.731   1.610   4.784 -0.6889  0.8542 -0.5253
 6787SOL    HW222294   1.820   1.638   4.903 -2.0161  0.7402  0.5231
 6788SOL     OW22295   3.283   5.666   2.774  0.0770 -0.3888  0.3063
 6788SOL    HW122296   3.307   5.642   2.684 -1.4743  2.3048 -0.9453
 6788SOL    HW222297   3.225   5.595   2.803 -1.2756 -0.2127 -1.7420
 6789SOL     OW22298   2.827   5.570   2.320  0.3270  0.3028 -0.1301
 6789SOL    HW122299   2.918   5.560   2.294 -0.1282 -0.9092 -1.3449
 6789SOL    HW222300   2.826   5.548   2.414  1.0076 -1.4416 -0.5046
 6790SOL     OW22301   3.909   8.041   8.431  0.5675 -0.0115 -0.4534
 6790SOL    HW122302   3.883   7.984   8.503  0.2339  0.6286 -0.0517
 6790SOL    HW222303   3.980   7.995   8.387 -0.2158 -1.0966 -0.6230
 6791SOL     OW22304   5.681   3.734   0.575  0.7132 -0.6243 -0.5543
 6791SOL    HW122305   5.661   3.714   0.484 -0.8346  0.5763 -0.5399
 6791SOL    HW222306   5.617   3.684   0.626  0.1595  0.3193 -0.2763
 6792SOL     OW22307   8.344   4.632   1.922 -0.1060  0.0275 -0.4754
 6792SOL    HW122308   8.382   4.622   2.010 -1.7717  0.7655  0.3752
 6792SOL    HW222309   8.290   4.554   1.911 -0.3173  0.1931 -0.6130
 6793SOL     OW22310   8.756   5.414   1.807  0.0264  0.3892  0.3783
 6793SOL    HW122311   8.812   5.388   1.734 -2.4041  0.1419 -1.5341
 6793SOL    HW222312   8.745   5.334   1.859 -3.0591 -1.3111 -2.4780
 6794SOL     OW22313   3.876   3.737   7.484  0.7407  0.0874 -0.4068
 6794SOL    HW122314   3.917   3.765   7.566 -0.1033  0.3102 -0.0486
 6794SOL    HW222315   3.930   3.776   7.415  2.0999 -0.9871  0.0002
 6795SOL     OW22316   8.666   6.315   0.758 -0.4315  0.2325 -0.3270
 6795SOL    HW122317   8.717   6.265   0.694 -1.9396 -0.0462 -1.3837
 6795SOL    HW222318   8.632   6.389   0.709  0.2066  1.2685  0.7546
 6796SOL     OW22319   2.545   0.643   3.499 -0.5671  0.2055 -0.4252
 6796SOL    HW122320   2.564   0.565   3.445  0.1668 -1.2651  1.8212
 6796SOL    HW222321   2.490   0.697   3.443 -1.2649 -2.0041 -2.0413
 6797SOL     OW22322   7.452   2.727   6.827 -0.8172 -0.3910  0.1815
 6797SOL    HW122323   7.485   2.710   6.739  0.5521 -0.0117  0.6030
 6797SOL    HW222324   7.392   2.655   6.844 -1.5374 -0.1786 -1.2638
 6798SOL     OW22325   2.604   0.310   1.238  0.1214  0.5542 -0.4088
 6798SOL    HW122326   2.577   0.250   1.307  2.5566  0.5240  0.6437
 6798SOL    HW222327   2.677   0.359   1.276  0.7487  1.4227 -2.5517
 6799SOL     OW22328   2.673   8.374   8.439 -0.4162  0.4086  0.3445
 6799SOL    HW122329   2.672   8.433   8.364 -0.1147 -0.8720 -0.6959
 6799SOL    HW222330   2.759   8.387   8.478 -0.6060  1.1415  0.5228
 6800SOL     OW22331   4.459   1.867   7.719 -0.4977 -0.0955  0.2780
 6800SOL    HW122332   4.368   1.839   7.731 -0.6659  0.9794  1.8393
 6800SOL    HW222333   4.459   1.959   7.748  1.4651 -0.6351  2.2181
 6801SOL     OW22334   6.251   6.810   3.797 -0.4744  0.6412 -0.3539
 6801SOL    HW122335   6.220   6.897   3.774 -0.4323  0.9889  0.8191
 6801SOL    HW222336   6.342   6.822   3.824  0.0130 -0.0204 -1.6309
 6802SOL     OW22337   5.943   6.613   0.892  0.0017 -0.4200 -0.9832
 6802SOL    HW122338   5.879   6.683   0.878 -0.1305 -0.8638 -2.8713
 6802SOL    HW222339   5.994   6.641   0.967 -0.6757  1.2310 -1.1084
 6803SOL     OW22340   7.172   2.749   8.556  0.1585 -0.1462 -0.2987
 6803SOL    HW122341   7.102   2.683   8.561 -0.0291  0.1424  1.1340
 6803SOL    HW222342   7.135   2.818   8.501  0.0203 -0.8162 -1.0689
 6804SOL     OW22343   5.024   4.388   7.067  0.0905  0.0135 -0.2923
 6804SOL    HW122344   4.935   4.418   7.050 -0.5070 -0.1510  2.1438
 6804SOL    HW222345   5.055   4.446   7.137  1.3274 -0.8914 -0.0555
 6805SOL     OW22346   5.453   6.090   5.758  0.0956 -0.1703 -0.0387
 6805SOL    HW122347   5.489   6.105   5.845 -0.9785 -0.8012  0.5256
 6805SOL    HW222348   5.402   6.169   5.739  3.4755  1.8345 -1.8251
 6806SOL     OW22349   0.049   3.474   7.657  0.6275 -0.3622 -0.2235
 6806SOL    HW122350  -0.027   3.509   7.612  0.7048 -0.7073 -0.6257
 6806SOL    HW222351   0.062   3.387   7.620  1.2835 -0.2664 -0.2423
 6807SOL     OW22352   7.622   3.707   6.295 -0.0882 -0.2000  0.2974
 6807SOL    HW122353   7.559   3.780   6.296 -2.5330 -2.1711  0.7025
 6807SOL    HW222354   7.606   3.662   6.378 -0.3501 -2.5214 -0.9490
 6808SOL     OW22355   4.253   3.502   3.285  0.4691  0.3140  0.5673
 6808SOL    HW122356   4.180   3.440   3.291 -0.4063  1.4050  2.4641
 6808SOL    HW222357   4.328   3.454   3.319  0.0859 -0.1243  0.8069
 6809SOL     OW22358   6.984   1.606   0.205 -0.4539 -0.6508 -0.3821
 6809SOL    HW122359   6.984   1.517   0.171  0.5875 -0.5778 -0.6213
 6809SOL    HW222360   7.076   1.624   0.225 -0.2791  1.0911 -2.3535
 6810SOL     OW22361   6.011   2.627   2.807  0.3117 -0.3409  0.5386
 6810SOL    HW122362   5.923   2.602   2.778  0.3935 -1.0252  0.8610
 6810SOL    HW222363   6.010   2.613   2.901  1.0197 -1.1484  0.4310
 6811SOL     OW22364   2.679   3.910   7.690  0.2263 -0.3672 -0.1626
 6811SOL    HW122365   2.633   3.965   7.627 -0.2937  2.1835  2.2292
 6811SOL    HW222366   2.753   3.964   7.719 -0.0414 -1.0563  2.0067
 6812SOL     OW22367   0.809   3.628   3.509  0.0521  0.1209 -0.5709
 6812SOL    HW122368   0.786   3.607   3.600  0.2447 -0.1495 -0.5836
 6812SOL    HW222369   0.813   3.724   3.507  0.4709  0.1150 -0.1876
 6813SOL     OW22370   6.059   1.060   8.368 -0.3037 -0.0113 -0.6747
 6813SOL    HW122371   5.985   1.001   8.383 -0.6530  0.1919 -1.5723
 6813SOL    HW222372   6.018   1.145   8.352  0.1406  0.1735 -0.8250
 6814SOL     OW22373   1.850   3.020   2.461 -0.0339  0.1024  0.1816
 6814SOL    HW122374   1.944   3.038   2.464  0.2628 -1.2647  0.0322
 6814SOL    HW222375   1.808   3.106   2.465  1.2326  0.7647 -0.3206
 6815SOL     OW22376   3.783   3.388   1.829 -0.1250 -0.0718 -0.1614
 6815SOL    HW122377   3.718   3.385   1.899 -1.1935  4.6225 -0.6203
 6815SOL    HW222378   3.865   3.366   1.872 -0.9107  1.5189  2.3875
 6816SOL     OW22379   5.607   0.509   4.627 -0.0275  0.1203  0.0944
 6816SOL    HW122380   5.579   0.426   4.667 -1.5747  1.0407  1.0292
 6816SOL    HW222381   5.615   0.489   4.534  0.3171 -1.2446  0.3931
 6817SOL     OW22382   7.293   5.380   6.933 -0.6922  0.1646  0.0452
 6817SOL    HW122383   7.208   5.362   6.974  0.2514 -0.3411  1.8590
 6817SOL    HW222384   7.339   5.435   6.996  0.1154  0.9663 -1.2062
 6818SOL     OW22385   2.117   4.936   4.647 -0.0397  0.1158 -0.3210
 6818SOL    HW122386   2.051   4.963   4.711  0.1538 -1.1276  0.4275
 6818SOL    HW222387   2.067   4.922   4.566 -0.4092  0.9105 -0.2426
 6819SOL     OW22388   3.171   3.070   6.291  0.1991 -0.6792 -0.1598
 6819SOL    HW122389   3.090   3.060   6.341  0.5831 -1.8552  0.2510
 6819SOL    HW222390   3.141   3.096   6.203 -0.4686  1.5343  0.6486
 6820SOL     OW22391   6.615   6.388   2.599 -0.1849  0.3097  0.6303
 6820SOL    HW122392   6.643   6.381   2.690 -3.1538  1.7044  1.7792
 6820SOL    HW222393   6.606   6.482   2.583 -1.3038  0.0505 -0.5164
 6821SOL     OW22394   5.843   2.825   6.753 -0.0475 -0.6070 -0.5196
 6821SOL    HW122395   5.749   2.825   6.732  0.3854 -2.3625 -2.8771
 6821SOL    HW222396   5.861   2.735   6.781  1.1241 -0.5467 -1.0464
 6822SOL     OW22397   5.916   5.305   7.536  0.0980  0.6500 -0.0553
 6822SOL    HW122398   6.000   5.259   7.532 -1.4374 -2.4407  0.1360
 6822SOL    HW222399   5.903   5.322   7.629  0.6842  1.5675 -0.1283
 6823SOL     OW22400   2.492   3.817   2.245 -0.4178  0.2359 -0.3840
 6823SOL    HW122401   2.425   3.854   2.303 -0.3836 -0.2582 -0.0191
 6823SOL    HW222402   2.565   3.796   2.304 -0.6674 -0.9629 -0.4777
 6824SOL     OW22403   8.657   3.266   3.380 -0.7078 -0.2650 -0.4489
 6824SOL    HW122404   8.630   3.341   3.433  1.3565 -0.8097  1.5264
 6824SOL    HW222405   8.624   3.190   3.427 -0.2133 -0.7120 -0.8151
 6825SOL     OW22406   8.351   8.458   3.947 -0.3225 -0.4111  0.4957
 6825SOL    HW122407   8.355   8.362   3.942  0.0383 -0.3323 -2.2562
 6825SOL    HW222408   8.277   8.482   3.892  0.6626  0.9556 -0.2808
 6826SOL     OW22409   0.905   6.703   8.295 -0.4319 -0.2139 -0.0114
 6826SOL    HW122410   0.833   6.746   8.340 -0.3346  0.2987 -0.3411
 6826SOL    HW222411   0.900   6.734   8.205  0.9782  0.8715  0.2351
 6827SOL     OW22412   3.022   8.613   3.109 -0.3278 -0.2734 -0.3007
 6827SOL    HW122413   2.996   8.546   3.046 -0.4217 -1.0175  0.5131
 6827SOL    HW222414   3.118   8.604   3.115 -0.4480 -1.0844  0.6158
 6828SOL     OW22415   7.869   6.069   1.161 -0.0774 -0.0285 -0.0496
 6828SOL    HW122416   7.798   6.128   1.185  0.9321  1.6696 -1.0117
 6828SOL    HW222417   7.902   6.036   1.245 -0.8742  0.5422  0.5000
 6829SOL     OW22418   3.641   2.445   5.978 -0.2721  0.2452  0.3626
 6829SOL    HW122419   3.732   2.470   5.993 -0.6818  2.1991 -0.0531
 6829SOL    HW222420   3.608   2.423   6.065  0.9596 -2.0307  0.3249
 6830SOL     OW22421   3.625   6.436   4.710  0.1819 -0.2630 -0.2480
 6830SOL    HW122422   3.710   6.414   4.672 -0.0498  0.2756 -1.1128
 6830SOL    HW222423   3.561   6.395   4.652 -0.2029  1.3160 -0.9957
 6831SOL     OW22424   2.850   8.380   4.766 -0.3488 -0.1418  0.2157
 6831SOL    HW122425   2.840   8.300   4.715  2.0502 -0.1586 -0.3179
 6831SOL    HW222426   2.791   8.369   4.840 -1.2318 -1.6866 -0.6736
 6832SOL     OW22427   6.065   6.240   4.651 -0.2877 -0.2438  0.2583
 6832SOL    HW122428   5.978   6.246   4.612  0.1363 -2.3941 -1.1964
 6832SOL    HW222429   6.052   6.191   4.732 -0.4886 -0.1624  0.2759
 6833SOL     OW22430   4.784   1.745   7.666 -0.1367 -0.1916  0.1179
 6833SOL    HW122431   4.824   1.754   7.579  1.5529  0.1010  0.8758
 6833SOL    HW222432   4.750   1.833   7.686  2.1147  0.5744  0.9177
 6834SOL     OW22433   6.793   4.946   2.074 -0.4024  0.3881  0.0609
 6834SOL    HW122434   6.748   4.935   1.990 -1.0059  0.9701  0.2975
 6834SOL    HW222435   6.770   4.867   2.123  2.2440 -1.3770 -1.2875
 6835SOL     OW22436   1.159   7.616   2.237 -0.3832  0.4424 -0.2574
 6835SOL    HW122437   1.099   7.640   2.308  0.0555  0.7573  0.0097
 6835SOL    HW222438   1.231   7.678   2.245  0.8360 -1.0066  0.4877
 6836SOL     OW22439   6.110   4.366   5.990  0.2374 -0.2572 -0.2257
 6836SOL    HW122440   6.121   4.454   6.025  1.7240  0.0185 -1.2997
 6836SOL    HW222441   6.032   4.372   5.934  0.1998  0.3261 -0.1181
 6837SOL     OW22442   2.234   7.244   0.808 -0.3953 -0.0557 -0.5239
 6837SOL    HW122443   2.189   7.291   0.738  0.6031 -0.1666 -1.2682
 6837SOL    HW222444   2.188   7.269   0.887 -0.0486  2.0115 -0.9203
 6838SOL     OW22445   0.166   4.501   4.280  0.2258 -0.6271  0.6729
 6838SOL    HW122446   0.222   4.507   4.358 -2.2090  1.1392  2.4705
 6838SOL    HW222447   0.106   4.429   4.300 -1.2308  0.6477  1.1234
 6839SOL     OW22448   5.942   1.267   1.244 -0.3143 -0.2978  0.1911
 6839SOL    HW122449   5.942   1.181   1.285 -1.5087  0.6922  2.4945
 6839SOL    HW222450   6.027   1.305   1.268  0.3112 -0.8843 -1.0266
 6840SOL     OW22451   8.378   8.598   2.516  0.1356  0.1799 -0.7259
 6840SOL    HW122452   8.322   8.533   2.473 -0.3256  0.0698  0.0316
 6840SOL    HW222453   8.379   8.572   2.608  0.4133  0.9140 -0.5164
 6841SOL     OW22454   0.152   5.091   2.712 -0.0641  0.2115  0.5189
 6841SOL    HW122455   0.143   5.133   2.627 -0.2373  0.7689  0.8061
 6841SOL    HW222456   0.225   5.137   2.754 -1.2035  1.2630  1.4233
 6842SOL     OW22457   2.548   8.194   5.823  0.3613 -1.0210 -0.0874
 6842SOL    HW122458   2.636   8.182   5.787  0.1589 -3.4815  0.0689
 6842SOL    HW222459   2.543   8.132   5.896 -1.3666 -0.6361  0.1618
 6843SOL     OW22460   3.043   6.227   5.999 -0.1662  0.3726 -0.3392
 6843SOL    HW122461   3.095   6.157   6.040 -0.1212  1.0489  0.8134
 6843SOL    HW222462   2.978   6.249   6.066 -1.1711  0.3718 -1.3016
 6844SOL     OW22463   6.993   1.218   5.333 -0.3751  0.1450 -0.2836
 6844SOL    HW122464   7.028   1.305   5.312  0.2274 -0.4142 -1.7647
 6844SOL    HW222465   6.899   1.226   5.320 -0.3511  0.6687 -0.1206
 6845SOL     OW22466   7.611   6.242   3.556 -0.6295 -0.0863 -0.0382
 6845SOL    HW122467   7.669   6.194   3.616  1.4508 -0.5286 -2.2538
 6845SOL    HW222468   7.626   6.201   3.471 -2.6738  1.2159 -1.0918
 6846SOL     OW22469   0.548   7.040   6.058 -0.3881  0.3961 -0.1181
 6846SOL    HW122470   0.502   7.092   6.124  0.2481 -1.6814  2.1515
 6846SOL    HW222471   0.490   6.965   6.043 -0.3243  0.6261 -1.6686
 6847SOL     OW22472   7.245   1.373   5.139  0.1254  0.0409  0.1356
 6847SOL    HW122473   7.171   1.433   5.133 -1.0867 -1.3033  1.2493
 6847SOL    HW222474   7.261   1.345   5.049 -0.5227  0.5695 -0.1469
 6848SOL     OW22475   7.575   8.138   2.018 -0.7220  0.2900  0.0777
 6848SOL    HW122476   7.629   8.060   2.003  1.1668  1.6669 -0.6436
 6848SOL    HW222477   7.615   8.180   2.095 -0.7351  1.3519 -0.4858
 6849SOL     OW22478   2.040   3.263   7.126 -0.3857  0.6498  0.5290
 6849SOL    HW122479   2.027   3.302   7.213  0.1731 -0.3340  1.0723
 6849SOL    HW222480   1.974   3.195   7.119 -0.8526  1.1542 -0.0980
 6850SOL     OW22481   0.383   6.773   6.636  0.0458 -0.6051  0.2307
 6850SOL    HW122482   0.455   6.753   6.697 -0.0631 -0.8034  0.2930
 6850SOL    HW222483   0.338   6.690   6.623 -1.3038 -0.1470  1.6402
 6851SOL     OW22484   2.579   1.853   3.599 -0.4923  0.7026 -0.6056
 6851SOL    HW122485   2.495   1.836   3.642  1.9017 -2.7841  3.4296
 6851SOL    HW222486   2.593   1.778   3.542  0.9259 -0.2617  0.9030
 6852SOL     OW22487   5.351   1.935   3.788  0.2050  0.1145  0.0462
 6852SOL    HW122488   5.265   1.975   3.801  0.0562 -0.8571  2.9492
 6852SOL    HW222489   5.333   1.853   3.741  0.1750  1.8708 -3.2807
 6853SOL     OW22490   7.881   2.500   0.630 -0.2703 -0.5365 -0.9955
 6853SOL    HW122491   7.804   2.521   0.576 -0.3617  0.6023 -0.4410
 6853SOL    HW222492   7.850   2.510   0.720  0.7217  0.7130 -0.7695
 6854SOL     OW22493   2.895   0.699   1.393  0.0503  0.2648  0.0171
 6854SOL    HW122494   2.928   0.756   1.462 -0.3862  0.3309  0.1763
 6854SOL    HW222495   2.833   0.754   1.344 -1.0067 -0.2981  0.6739
 6855SOL     OW22496   2.386   5.101   4.951  0.0869  0.9162  0.5182
 6855SOL    HW122497   2.367   5.088   5.044  2.4971 -0.6429  0.8645
 6855SOL    HW222498   2.369   5.016   4.911  0.5618  1.1426 -0.1753
 6856SOL     OW22499   1.595   3.949   3.290  0.2897 -0.1450 -0.5265
 6856SOL    HW122500   1.590   3.918   3.380 -0.0700  1.6873  0.1381
 6856SOL    HW222501   1.689   3.957   3.273  0.3568 -0.1871 -0.1906
 6857SOL     OW22502   8.660   5.989   7.505 -0.0724  0.2222 -0.1746
 6857SOL    HW122503   8.644   5.971   7.597  1.6558  2.3788  0.6251
 6857SOL    HW222504   8.574   6.015   7.471 -0.4243  1.0315  1.2586
 6858SOL     OW22505   6.120   8.505   7.970 -0.4559  0.0578  0.0842
 6858SOL    HW122506   6.161   8.425   7.938  0.5903  0.5127  0.2286
 6858SOL    HW222507   6.059   8.476   8.038 -1.1046 -0.7269 -0.8069
 6859SOL     OW22508   5.884   3.223   2.828 -0.6746  0.4159  0.3152
 6859SOL    HW122509   5.881   3.304   2.778 -0.5820 -0.6354 -1.4767
 6859SOL    HW222510   5.952   3.170   2.786 -0.6628 -0.5585  1.4903
 6860SOL     OW22511   0.513   1.449   0.175 -0.0220  0.0434  0.7060
 6860SOL    HW122512   0.423   1.425   0.153 -0.3514 -0.1955  2.1977
 6860SOL    HW222513   0.505   1.499   0.257  1.1230  0.7907  0.3871
 6861SOL     OW22514   6.421   3.924   5.056  0.1854  0.1744  0.0944
 6861SOL    HW122515   6.391   3.989   4.992  1.1545 -0.6878 -1.2764
 6861SOL    HW222516   6.498   3.964   5.096  0.4533  0.1038 -0.3464
 6862SOL     OW22517   2.585   7.429   5.022 -0.8681 -0.2003  0.3974
 6862SOL    HW122518   2.648   7.407   4.954  0.1189 -1.5656  1.6858
 6862SOL    HW222519   2.631   7.491   5.078 -0.5854 -1.2628  1.3884
 6863SOL     OW22520   1.224   0.553   7.906  0.2486  0.4371  0.0440
 6863SOL    HW122521   1.291   0.561   7.838  0.0509 -1.9976 -0.5222
 6863SOL    HW222522   1.197   0.643   7.924  0.8403  1.2194 -2.5827
 6864SOL     OW22523   4.979   7.012   5.160 -0.0451  0.4756 -0.1638
 6864SOL    HW122524   4.988   6.958   5.239 -0.3715 -1.2917 -1.2896
 6864SOL    HW222525   4.896   7.059   5.173 -0.6018 -0.5547  0.1177
 6865SOL     OW22526   0.924   2.644   3.668  0.3273 -0.0127  0.1772
 6865SOL    HW122527   0.998   2.668   3.723  0.5763  0.3685 -0.3196
 6865SOL    HW222528   0.928   2.548   3.663  0.3504 -0.0452  0.7443
 6866SOL     OW22529   2.417   3.174   4.804 -0.3492  0.0743 -0.2578
 6866SOL    HW122530   2.430   3.213   4.717 -0.8107 -1.9776 -1.3182
 6866SOL    HW222531   2.324   3.185   4.821 -0.3659 -0.0370 -0.2782
 6867SOL     OW22532   6.115   4.348   6.342  0.3965  0.2402 -0.9790
 6867SOL    HW122533   6.152   4.433   6.365  0.7295  0.0751 -0.8931
 6867SOL    HW222534   6.086   4.357   6.252 -0.8549  0.8809 -0.5398
 6868SOL     OW22535   6.254   3.857   0.194  0.2982  0.0095 -0.3367
 6868SOL    HW122536   6.206   3.813   0.124 -0.4278 -0.9389  0.7101
 6868SOL    HW222537   6.346   3.852   0.168 -0.0117  0.4424 -1.6091
 6869SOL     OW22538   5.270   2.388   2.484  0.3391  0.5088  0.2615
 6869SOL    HW122539   5.282   2.345   2.569  1.4111  0.4339  0.0821
 6869SOL    HW222540   5.333   2.460   2.484 -1.0477  1.7945  0.3339
 6870SOL     OW22541   3.041   4.167   4.879  0.0117  0.0485  0.0538
 6870SOL    HW122542   3.105   4.102   4.908 -1.2158 -0.9538  0.6231
 6870SOL    HW222543   3.054   4.241   4.939  0.7113 -0.0904  0.0830
 6871SOL     OW22544   3.716   4.146   1.705  0.4178 -0.0069 -0.1234
 6871SOL    HW122545   3.669   4.087   1.646 -1.1099 -0.0804  1.0880
 6871SOL    HW222546   3.647   4.191   1.754  1.6068  0.1591  1.4911
 6872SOL     OW22547   0.121   3.608   6.340 -0.2648 -0.0987  0.2745
 6872SOL    HW122548   0.201   3.627   6.389  0.3076 -3.8621  1.1558
 6872SOL    HW222549   0.128   3.662   6.261  2.0446  1.3128  1.3396
 6873SOL     OW22550   7.377   6.312   4.076 -0.1385  0.5114 -0.1605
 6873SOL    HW122551   7.310   6.376   4.052 -0.0563  0.7696  0.2809
 6873SOL    HW222552   7.387   6.322   4.171  1.8603  1.8239 -0.4445
 6874SOL     OW22553   2.929   2.659   2.798 -0.0246  0.1709  0.1978
 6874SOL    HW122554   2.879   2.581   2.773 -0.2983 -0.5304  2.6124
 6874SOL    HW222555   2.956   2.698   2.715 -1.4579 -1.4601 -1.1258
 6875SOL     OW22556   4.085   4.320   5.978  0.1585  0.1018 -0.2150
 6875SOL    HW122557   3.991   4.333   5.979  0.0799 -0.4526 -0.2562
 6875SOL    HW222558   4.120   4.401   5.940 -0.3056  0.2657 -0.2929
 6876SOL     OW22559   7.778   1.008   4.877 -0.0544 -0.0472  0.2736
 6876SOL    HW122560   7.749   0.989   4.967 -3.3290 -0.4248 -0.7060
 6876SOL    HW222561   7.697   1.009   4.827  1.8070 -3.2499 -3.3278
 6877SOL     OW22562   6.091   1.763   3.230 -0.1222  0.2696  0.1643
 6877SOL    HW122563   6.045   1.846   3.245 -1.2972 -0.4927  0.9365
 6877SOL    HW222564   6.163   1.764   3.293  0.4415  1.0953 -0.4671
 6878SOL     OW22565   7.480   7.343   1.886 -0.7369 -0.7675  0.0391
 6878SOL    HW122566   7.558   7.310   1.842 -0.8376 -0.0304 -0.7099
 6878SOL    HW222567   7.413   7.278   1.868 -1.2595  0.3500 -2.4492
 6879SOL     OW22568   1.329   4.589   8.492  0.3352  0.3229 -0.4376
 6879SOL    HW122569   1.415   4.592   8.451  0.0191  1.2585 -1.0619
 6879SOL    HW222570   1.280   4.659   8.450 -0.1162  1.0781  1.2784
 6880SOL     OW22571   7.673   6.457   8.127 -0.2088 -0.1290  0.0728
 6880SOL    HW122572   7.626   6.375   8.144 -0.0099 -0.0446  1.0766
 6880SOL    HW222573   7.758   6.429   8.094 -0.8987 -0.2844 -1.6719
 6881SOL     OW22574   5.848   3.921   1.938 -0.2333  0.1384  0.5223
 6881SOL    HW122575   5.820   4.005   1.903  1.3690  1.2378  1.6991
 6881SOL    HW222576   5.784   3.900   2.005 -0.3275  0.7211  0.6161
 6882SOL     OW22577   4.781   2.981   2.360  0.2491 -0.3085 -0.0467
 6882SOL    HW122578   4.745   2.895   2.338 -1.8717 -0.0809  2.0983
 6882SOL    HW222579   4.774   2.986   2.455  0.8851  2.0064 -0.0674
 6883SOL     OW22580   6.700   1.476   8.464 -0.0217  0.1694 -0.1478
 6883SOL    HW122581   6.708   1.389   8.424 -1.9248 -0.6252  1.0932
 6883SOL    HW222582   6.657   1.529   8.396  1.8810  0.4511 -1.2251
 6884SOL     OW22583   3.303   2.753   2.894 -0.0224  0.4672 -0.0004
 6884SOL    HW122584   3.246   2.828   2.912  0.0496  0.3193  0.8629
 6884SOL    HW222585   3.312   2.753   2.799 -0.0324  1.5579 -0.0220
 6885SOL     OW22586   6.373   4.300   6.648 -0.3404 -0.7551  1.0055
 6885SOL    HW122587   6.286   4.339   6.651 -0.4741 -1.0824  1.4425
 6885SOL    HW222588   6.361   4.217   6.600 -0.1497 -0.4999  0.5102
 6886SOL     OW22589   0.149   2.745   6.969  0.1592  0.3539 -0.3944
 6886SOL    HW122590   0.242   2.741   6.991 -0.2431 -0.1948  1.4249
 6886SOL    HW222591   0.128   2.658   6.936  0.0066  0.0111  0.5732
 6887SOL     OW22592   2.958   8.763   5.285 -0.2813  0.5937  0.8286
 6887SOL    HW122593   2.908   8.749   5.205 -0.4885  0.3229  1.0020
 6887SOL    HW222594   2.980   8.856   5.285 -1.3584  0.8558  1.0808
 6888SOL     OW22595   8.035   5.124   0.766  0.3909 -0.2518  0.1404
 6888SOL    HW122596   8.036   5.160   0.677 -0.6290 -0.4877  0.0283
 6888SOL    HW222597   8.058   5.032   0.755  2.4422  0.1859  0.3698
 6889SOL     OW22598   4.830   4.631   0.586  0.1411  0.2090  0.0757
 6889SOL    HW122599   4.900   4.567   0.577  0.4721  0.4789  0.6690
 6889SOL    HW222600   4.783   4.628   0.503  0.7427 -0.1095 -0.2533
 6890SOL     OW22601   4.719   5.504   5.664  0.1983  0.4942 -0.1350
 6890SOL    HW122602   4.651   5.569   5.682 -0.7374  0.0767 -1.9709
 6890SOL    HW222603   4.740   5.467   5.750 -2.2093  0.3334  0.4513
 6891SOL     OW22604   5.565   4.341   0.207 -0.0017  0.0193 -0.1880
 6891SOL    HW122605   5.634   4.275   0.205  0.7119  0.7595 -0.9545
 6891SOL    HW222606   5.608   4.421   0.176 -1.9677 -0.2610 -4.3329
 6892SOL     OW22607   2.125   7.193   1.891  0.6797 -0.2369  0.5108
 6892SOL    HW122608   2.075   7.138   1.831  2.5001 -1.1940 -0.2124
 6892SOL    HW222609   2.170   7.256   1.834  1.1398 -0.0984  1.0128
 6893SOL     OW22610   6.922   3.163   5.627 -0.6797 -0.0678  0.1639
 6893SOL    HW122611   7.015   3.146   5.607 -1.1761 -0.8454 -1.8153
 6893SOL    HW222612   6.887   3.077   5.650 -0.9549  0.1919  0.7279
 6894SOL     OW22613   2.844   6.262   8.215  0.2978 -0.0213 -0.3739
 6894SOL    HW122614   2.892   6.181   8.200 -2.2036 -1.8652  0.7241
 6894SOL    HW222615   2.781   6.266   8.143 -0.9214 -0.2038  0.6353
 6895SOL     OW22616   4.743   3.741   6.864  0.3149 -0.8270 -0.0500
 6895SOL    HW122617   4.799   3.680   6.816  1.3618  0.5200 -0.6267
 6895SOL    HW222618   4.699   3.792   6.796  1.6306  0.9448  0.3452
 6896SOL     OW22619   7.261   2.484   6.898 -0.0411 -0.2574  0.0244
 6896SOL    HW122620   7.302   2.420   6.839 -1.4093  0.3700 -1.6900
 6896SOL    HW222621   7.167   2.470   6.886 -0.3546  0.3283  1.6176
 6897SOL     OW22622   6.130   5.359   0.268  0.7812  0.4303 -0.1470
 6897SOL    HW122623   6.143   5.306   0.189 -2.9866 -0.1692 -0.5354
 6897SOL    HW222624   6.132   5.450   0.236 -1.5168  0.1800 -1.1986
 6898SOL     OW22625   7.239   1.110   7.312  0.1177  0.2744 -0.4158
 6898SOL    HW122626   7.249   1.144   7.222  1.4958  0.3889 -0.2455
 6898SOL    HW222627   7.219   1.187   7.364  2.9318  0.9131 -0.0822
 6899SOL     OW22628   2.052   2.957   6.417 -0.5374  0.1795 -0.2952
 6899SOL    HW122629   2.070   2.870   6.380  1.6666  0.2905  0.4072
 6899SOL    HW222630   1.959   2.971   6.400 -0.9256 -2.2674 -0.5306
 6900SOL     OW22631   8.027   5.414   1.306  0.5899  0.2168  0.6592
 6900SOL    HW122632   8.061   5.487   1.255  0.8655 -0.2972  0.0944
 6900SOL    HW222633   7.950   5.450   1.351  0.9542  0.9573  0.7096
 6901SOL     OW22634   3.170   6.539   1.771  0.2579 -0.2077  0.1170
 6901SOL    HW122635   3.218   6.588   1.705  0.0546 -0.7218 -0.4224
 6901SOL    HW222636   3.179   6.448   1.745 -0.5387 -0.3543  0.3141
 6902SOL     OW22637   4.235   3.229   6.952 -0.3915 -0.0610  0.1251
 6902SOL    HW122638   4.187   3.212   7.033  0.4104 -0.7931  0.4683
 6902SOL    HW222639   4.223   3.322   6.935 -0.2412  0.1860  1.3072
 6903SOL     OW22640   4.605   5.653   8.082 -0.3127 -0.1480 -0.2827
 6903SOL    HW122641   4.634   5.744   8.070 -0.6384 -0.0144 -0.0722
 6903SOL    HW222642   4.569   5.628   7.996 -1.9891  0.5691  0.1598
 6904SOL     OW22643   8.780   6.623   4.453 -0.4639 -0.0942  0.6139
 6904SOL    HW122644   8.765   6.540   4.499 -2.9382  1.0893  2.1782
 6904SOL    HW222645   8.699   6.637   4.404  0.8531  0.3085 -1.5478
 6905SOL     OW22646   5.895   0.415   3.740  0.0567  0.4152  0.4130
 6905SOL    HW122647   5.818   0.453   3.783 -0.2083  1.2558 -0.7687
 6905SOL    HW222648   5.937   0.364   3.809 -1.8553 -0.5366  0.9460
 6906SOL     OW22649   1.153   3.132   5.189 -0.3590 -0.1740 -0.0228
 6906SOL    HW122650   1.246   3.114   5.176 -0.8162 -1.7258 -1.4209
 6906SOL    HW222651   1.109   3.077   5.125 -2.2424  0.7600  0.4119
 6907SOL     OW22652   6.386   6.422   6.702  0.1890  0.2449 -0.1394
 6907SOL    HW122653   6.346   6.472   6.631  0.0007 -1.4762 -1.3273
 6907SOL    HW222654   6.315   6.407   6.764 -0.2055 -0.0572 -0.6537
 6908SOL     OW22655   0.390   5.634   3.534  0.0523 -0.1700 -0.5102
 6908SOL    HW122656   0.352   5.547   3.525  0.6006 -0.4408 -0.2274
 6908SOL    HW222657   0.384   5.654   3.627  0.9554 -0.3838 -0.3984
 6909SOL     OW22658   2.194   2.632   4.775 -0.3293 -0.2971  0.2543
 6909SOL    HW122659   2.101   2.633   4.751  0.2515  1.0302 -2.3738
 6909SOL    HW222660   2.209   2.719   4.814  0.0178 -0.0526 -0.4046
 6910SOL     OW22661   6.656   1.940   3.235  0.0785  0.0507  0.4961
 6910SOL    HW122662   6.682   1.886   3.160  0.9713  1.1142  0.0076
 6910SOL    HW222663   6.567   1.912   3.255 -1.1521  1.3122 -2.5193
 6911SOL     OW22664   4.526   6.844   2.217 -0.0839  0.3880 -0.0631
 6911SOL    HW122665   4.481   6.840   2.132  0.1429  1.4444 -0.2474
 6911SOL    HW222666   4.613   6.809   2.200  0.1792  1.1920 -0.4312
 6912SOL     OW22667   2.947   7.638   5.219  0.0279  0.0052 -0.1423
 6912SOL    HW122668   2.998   7.713   5.247  0.8733 -0.4266 -0.4789
 6912SOL    HW222669   3.012   7.571   5.196 -0.6859 -0.6167 -0.4347
 6913SOL     OW22670   3.357   6.125   3.074 -0.0648  0.1366 -0.0080
 6913SOL    HW122671   3.324   6.210   3.104  0.2327  0.1892  0.1800
 6913SOL    HW222672   3.423   6.147   3.008  1.6904  0.1588  1.6656
 6914SOL     OW22673   1.557   8.398   0.628 -0.5424  0.1732 -0.1449
 6914SOL    HW122674   1.591   8.320   0.585 -0.5665  0.9793 -1.6754
 6914SOL    HW222675   1.574   8.469   0.566 -1.0994  1.2849  0.9385
 6915SOL     OW22676   4.073   7.413   4.351  0.2367  0.1708  0.0461
 6915SOL    HW122677   4.061   7.434   4.443  1.8617  0.0564  0.3074
 6915SOL    HW222678   4.017   7.476   4.305  2.8075  3.3607  0.9200
 6916SOL     OW22679   4.466   5.621   2.274  0.5454  0.0951  0.0404
 6916SOL    HW122680   4.559   5.623   2.254  0.3330 -2.0754 -1.4676
 6916SOL    HW222681   4.429   5.694   2.223  1.3700  0.9482  0.6269
 6917SOL     OW22682   5.718   1.038   3.138  0.1480  0.1786 -0.0674
 6917SOL    HW122683   5.707   1.121   3.185 -0.9432  1.1369 -1.8915
 6917SOL    HW222684   5.637   1.028   3.087 -0.2154 -2.5660  0.8805
 6918SOL     OW22685   8.405   2.640   8.394  0.3594 -0.5284 -0.3557
 6918SOL    HW122686   8.404   2.544   8.391  1.8951 -0.6098  0.6183
 6918SOL    HW222687   8.497   2.663   8.384  0.1347  0.8042  0.4940
 6919SOL     OW22688   8.089   0.187   3.848 -0.7100 -0.1271 -0.3760
 6919SOL    HW122689   8.051   0.131   3.780 -1.0105  1.9579 -2.0650
 6919SOL    HW222690   8.014   0.229   3.889 -0.4292  0.3457 -0.3376
 6920SOL     OW22691   0.732   7.774   3.131  0.2147  0.4849  0.3216
 6920SOL    HW122692   0.787   7.697   3.115 -1.9418 -1.0503 -0.1506
 6920SOL    HW222693   0.792   7.848   3.124  2.7836 -1.2052  2.7046
 6921SOL     OW22694   6.378   7.629   3.504  0.4695  0.0368 -0.4342
 6921SOL    HW122695   6.448   7.635   3.569 -0.0158  1.0021  0.0274
 6921SOL    HW222696   6.312   7.572   3.545 -0.1651  1.2235  0.2783
 6922SOL     OW22697   3.150   2.619   7.879 -0.5557  0.3636  0.3238
 6922SOL    HW122698   3.107   2.539   7.848  0.9135 -0.6984  0.9290
 6922SOL    HW222699   3.170   2.601   7.971 -2.7882  2.5795  1.3354
 6923SOL     OW22700   5.013   0.502   1.196 -0.2820 -0.1744  0.0929
 6923SOL    HW122701   4.999   0.509   1.102 -0.3962 -1.7071 -0.0319
 6923SOL    HW222702   5.107   0.486   1.205 -0.1991  0.4156  0.2683
 6924SOL     OW22703   2.224   3.308   1.286 -0.0831  0.7362  0.2102
 6924SOL    HW122704   2.295   3.303   1.222  0.4697  0.0199  0.8699
 6924SOL    HW222705   2.196   3.400   1.283  0.1394  0.7787 -0.8298
 6925SOL     OW22706   0.500   6.973   0.339 -0.4367 -0.4812  0.0887
 6925SOL    HW122707   0.490   6.951   0.246  0.7421 -0.0367 -0.1591
 6925SOL    HW222708   0.593   6.958   0.357 -0.1459  1.6707  0.5980
 6926SOL     OW22709   6.046   6.832   6.683 -0.6549 -0.2092  0.3387
 6926SOL    HW122710   6.035   6.765   6.615  0.2422 -1.2329  1.1699
 6926SOL    HW222711   5.985   6.805   6.752 -0.0319 -0.3926  0.8270
 6927SOL     OW22712   0.574   7.995   2.046 -0.5559  0.3894 -0.0940
 6927SOL    HW122713   0.622   8.076   2.064  0.2369 -0.1106  0.0820
 6927SOL    HW222714   0.556   7.999   1.952 -1.0487  1.0512  0.0251
 6928SOL     OW22715   0.699   4.913   4.512  0.4170  0.4465 -0.7800
 6928SOL    HW122716   0.743   4.838   4.551 -0.5630  0.9211  1.3661
 6928SOL    HW222717   0.754   4.988   4.536  0.5550  0.6028 -1.5559
 6929SOL     OW22718   5.025   8.270   0.949  0.1180 -0.2710 -0.2457
 6929SOL    HW122719   5.083   8.315   0.887 -0.9765  0.1346 -1.0073
 6929SOL    HW222720   4.965   8.220   0.894 -1.6331  1.0277  0.3927
 6930SOL     OW22721   2.325   0.336   0.635 -0.4174  0.5145  0.0276
 6930SOL    HW122722   2.417   0.362   0.641 -0.5016  0.8561 -0.1178
 6930SOL    HW222723   2.324   0.265   0.571 -0.2322  0.4004  0.1510
 6931SOL     OW22724   2.887   1.664   8.455 -0.6818 -0.0808  0.0549
 6931SOL    HW122725   2.964   1.644   8.509 -1.4753 -0.6923  0.9910
 6931SOL    HW222726   2.906   1.750   8.418  0.9872 -0.7422 -0.7276
 6932SOL     OW22727   4.435   7.278   3.654 -0.4266 -0.0693  0.0573
 6932SOL    HW122728   4.423   7.202   3.711  0.9178  0.5696  1.2356
 6932SOL    HW222729   4.510   7.256   3.600  0.0314  0.4480  0.4725
 6933SOL     OW22730   1.117   8.176   3.052 -0.2877 -0.2630  0.5670
 6933SOL    HW122731   1.148   8.227   3.127  0.3849 -1.4740  1.1507
 6933SOL    HW222732   1.178   8.102   3.047 -1.3663 -1.1453 -0.0805
 6934SOL     OW22733   6.934   4.616   7.551  0.5009 -0.5006 -0.2950
 6934SOL    HW122734   6.975   4.561   7.484  1.3279 -1.4145  0.9220
 6934SOL    HW222735   6.999   4.623   7.620 -0.0109  1.1538  0.0598
 6935SOL     OW22736   5.759   6.028   4.959 -0.3822 -0.0158 -0.6569
 6935SOL    HW122737   5.747   6.038   4.865 -0.2720 -1.8452 -0.9075
 6935SOL    HW222738   5.808   5.946   4.968  0.2502  0.5008  0.9596
 6936SOL     OW22739   8.730   7.123   1.500 -0.2683 -0.0490  0.0647
 6936SOL    HW122740   8.764   7.048   1.549  1.1915 -0.0053 -0.8236
 6936SOL    HW222741   8.778   7.199   1.535  1.1010 -0.0674 -1.6362
 6937SOL     OW22742   8.192   1.550   6.681  0.3382  0.2189 -0.4628
 6937SOL    HW122743   8.165   1.479   6.622 -1.4636 -0.6990  1.3298
 6937SOL    HW222744   8.129   1.620   6.666  0.2805  0.2435 -0.1311
 6938SOL     OW22745   5.303   5.312   0.299 -0.0600 -0.2659 -0.4139
 6938SOL    HW122746   5.385   5.335   0.256  0.9310  2.3015  2.5030
 6938SOL    HW222747   5.329   5.271   0.381 -1.7311 -0.6287 -0.0232
 6939SOL     OW22748   2.725   6.309   7.677  0.1321 -0.2309  0.1993
 6939SOL    HW122749   2.734   6.214   7.677 -0.3569 -0.2810  0.3248
 6939SOL    HW222750   2.784   6.339   7.747  2.1601 -0.2373 -1.4129
 6940SOL     OW22751   4.624   5.517   0.413  0.0779  0.2369  0.3718
 6940SOL    HW122752   4.719   5.508   0.403 -0.0945  0.0253 -1.5076
 6940SOL    HW222753   4.594   5.549   0.328 -1.6717 -0.8266  0.5373
 6941SOL     OW22754   6.991   2.830   6.464 -0.3070 -0.3562  0.3305
 6941SOL    HW122755   7.047   2.752   6.473  0.0316  0.0022  1.4653
 6941SOL    HW222756   6.997   2.853   6.371  2.5308  0.4606  0.6261
 6942SOL     OW22757   1.620   2.384   7.914  0.5313  0.0603 -0.7429
 6942SOL    HW122758   1.608   2.479   7.907  2.7924  0.5849  1.2511
 6942SOL    HW222759   1.654   2.358   7.829 -0.6586  0.9151 -1.5125
 6943SOL     OW22760   0.187   5.584   2.574  0.0488 -0.6903 -0.8478
 6943SOL    HW122761   0.282   5.567   2.577 -0.0572 -1.4455  2.8618
 6943SOL    HW222762   0.148   5.497   2.577 -0.7926 -0.3692 -2.1514
 6944SOL     OW22763   1.768   7.132   7.440  0.4752  0.5328 -0.1049
 6944SOL    HW122764   1.799   7.119   7.351 -0.4608  1.4063 -0.5822
 6944SOL    HW222765   1.700   7.199   7.432 -2.2260 -1.9185  0.7316
 6945SOL     OW22766   0.159   0.744   8.497  0.0251  0.1032 -0.2236
 6945SOL    HW122767   0.092   0.802   8.533  0.0124  1.5103 -2.3189
 6945SOL    HW222768   0.149   0.662   8.545 -1.6557  1.0148  1.0814
 6946SOL     OW22769   2.582   2.243   3.373  0.1087  0.2959  0.6754
 6946SOL    HW122770   2.609   2.201   3.455  1.2644 -0.1458  0.0814
 6946SOL    HW222771   2.490   2.218   3.363  0.7824 -2.3719  0.2304
 6947SOL     OW22772   1.046   8.232   5.871 -0.2953  0.0832 -0.4369
 6947SOL    HW122773   1.037   8.286   5.793  1.2267  0.4060 -0.4255
 6947SOL    HW222774   1.039   8.142   5.840  1.9680  0.1238 -1.2878
 6948SOL     OW22775   8.681   0.920   3.048 -0.4407  0.1033 -0.2355
 6948SOL    HW122776   8.633   0.904   2.967 -1.7894 -1.4044  0.8083
 6948SOL    HW222777   8.752   0.856   3.047 -0.3894  0.1606 -0.2725
 6949SOL     OW22778   3.307   5.650   6.266 -0.2139 -0.0483 -0.3431
 6949SOL    HW122779   3.359   5.572   6.283 -0.8183 -0.0867  1.5422
 6949SOL    HW222780   3.347   5.718   6.319 -2.0211 -0.0827  1.1616
 6950SOL     OW22781   7.431   7.858   0.936  0.3518  0.6141 -0.2775
 6950SOL    HW122782   7.415   7.816   1.020  0.5915  2.0060  0.4985
 6950SOL    HW222783   7.366   7.820   0.877 -1.0064  0.9109  0.9832
 6951SOL     OW22784   8.446   1.156   3.144 -0.4606 -0.0166  0.4121
 6951SOL    HW122785   8.533   1.194   3.134 -0.1910 -0.7590 -0.0934
 6951SOL    HW222786   8.460   1.077   3.197 -0.8134 -0.1828  0.2622
 6952SOL     OW22787   1.367   1.130   1.375 -0.3067 -0.0070 -0.5039
 6952SOL    HW122788   1.277   1.147   1.347 -1.2910 -2.7797  0.5934
 6952SOL    HW222789   1.417   1.131   1.294 -2.3690 -3.7185 -2.1280
 6953SOL     OW22790   2.708   6.479   5.347  0.3456 -0.2082  0.3574
 6953SOL    HW122791   2.735   6.533   5.273  1.2067 -0.4742  0.4729
 6953SOL    HW222792   2.645   6.417   5.309  1.4286 -0.9157 -0.3556
 6954SOL     OW22793   0.402   6.758   0.729 -0.1483  0.5259  0.0832
 6954SOL    HW122794   0.488   6.730   0.696 -1.3718 -1.0999 -1.9493
 6954SOL    HW222795   0.396   6.851   0.705  1.2011  0.8003  0.7008
 6955SOL     OW22796   4.933   3.061   1.028 -0.0568 -0.0640 -0.5408
 6955SOL    HW122797   4.881   3.046   0.949  0.7821  2.4141 -1.6708
 6955SOL    HW222798   5.005   3.116   0.999  1.4998 -0.8438  1.5858
 6956SOL     OW22799   6.665   0.230   6.664 -0.4607  0.2827  0.0636
 6956SOL    HW122800   6.695   0.299   6.605 -0.8477  0.2526 -0.1711
 6956SOL    HW222801   6.692   0.260   6.751 -0.7220  0.7825 -0.0225
 6957SOL     OW22802   0.495   5.973   8.436 -0.9261  0.3422 -0.2278
 6957SOL    HW122803   0.475   6.047   8.378  0.8946  0.4958 -0.7226
 6957SOL    HW222804   0.481   5.895   8.382 -3.0788  0.2540  0.3644
 6958SOL     OW22805   5.943   7.067   6.101  0.3672 -0.0262  0.1815
 6958SOL    HW122806   5.860   7.047   6.144  0.9411 -1.4061  0.7242
 6958SOL    HW222807   5.919   7.084   6.010 -0.5845  0.4177  0.4957
 6959SOL     OW22808   5.468   7.535   6.576  0.4445  0.0076  0.0617
 6959SOL    HW122809   5.482   7.507   6.666 -0.0602  1.4101  0.5972
 6959SOL    HW222810   5.459   7.453   6.527  1.0393 -0.7762  1.2194
 6960SOL     OW22811   2.321   8.594   1.259 -0.2127  0.2683  0.2263
 6960SOL    HW122812   2.262   8.569   1.329  0.5020 -0.2517  0.6617
 6960SOL    HW222813   2.385   8.651   1.300 -0.6985  1.2457 -0.3500
 6961SOL     OW22814   7.084   6.872   6.305 -0.4838 -0.0608 -0.1787
 6961SOL    HW122815   7.020   6.940   6.325 -0.8943 -0.1198 -1.2235
 6961SOL    HW222816   7.116   6.894   6.218  0.8648 -0.0863  0.2897
 6962SOL     OW22817   1.973   7.973   0.616  0.8422 -0.5230 -0.3471
 6962SOL    HW122818   1.977   7.878   0.623 -1.1594 -0.6982 -0.8706
 6962SOL    HW222819   1.959   8.002   0.706  2.4333 -0.6153 -0.0433
 6963SOL     OW22820   5.552   1.665   3.970 -0.1603  0.4182 -0.6210
 6963SOL    HW122821   5.640   1.637   3.945  0.3743  0.5391  1.0005
 6963SOL    HW222822   5.557   1.761   3.972 -0.8794  0.5277 -2.3164
 6964SOL     OW22823   6.155   0.824   5.658 -0.5702  0.7018 -0.3307
 6964SOL    HW122824   6.114   0.842   5.743 -2.1634  0.3183 -0.9774
 6964SOL    HW222825   6.138   0.902   5.606  0.2733  0.8762 -0.3651
 6965SOL     OW22826   3.703   2.657   8.042 -0.5901  0.3605  0.0947
 6965SOL    HW122827   3.699   2.562   8.057  1.8712 -0.0293 -1.1395
 6965SOL    HW222828   3.700   2.666   7.947  0.5880  1.3558  0.1228
 6966SOL     OW22829   5.712   8.470   2.124  0.3589  0.1672 -0.0939
 6966SOL    HW122830   5.796   8.469   2.169  0.5673  2.7612 -0.2613
 6966SOL    HW222831   5.647   8.455   2.193  0.8442  1.0425  0.5739
 6967SOL     OW22832   0.101   7.713   0.010 -0.6820 -0.1262  0.0016
 6967SOL    HW122833   0.052   7.631   0.001  0.0398 -0.6122  0.4478
 6967SOL    HW222834   0.054   7.775  -0.046  0.1218 -1.4414 -2.2474
 6968SOL     OW22835   5.538   3.135   4.065 -0.1903  0.3393 -0.0753
 6968SOL    HW122836   5.497   3.201   4.121 -1.5522 -0.9523  0.5142
 6968SOL    HW222837   5.536   3.172   3.978  0.2716  1.6217  0.4426
 6969SOL     OW22838   2.749   3.941   6.698  0.5974  0.5925  0.3792
 6969SOL    HW122839   2.831   3.902   6.668 -2.5275 -4.5670 -3.2352
 6969SOL    HW222840   2.727   3.892   6.777 -0.0801  0.1004 -0.1029
 6970SOL     OW22841   6.936   0.214   3.451  0.2624  0.1824 -0.9470
 6970SOL    HW122842   6.855   0.241   3.406 -1.1599 -0.7986  0.8713
 6970SOL    HW222843   6.941   0.120   3.436 -0.1621 -0.1416  0.7061
 6971SOL     OW22844   5.842   1.036   6.633  0.5289  0.0973  0.3229
 6971SOL    HW122845   5.749   1.054   6.616  1.0374  1.5407 -1.0957
 6971SOL    HW222846   5.863   0.963   6.575  0.3840  0.0170  0.3702
 6972SOL     OW22847   0.479   6.006   1.194 -0.4183  0.2793 -0.1877
 6972SOL    HW122848   0.430   6.066   1.251  1.3326  2.3800 -0.7524
 6972SOL    HW222849   0.463   6.039   1.106  0.2166 -0.3966 -0.5613
 6973SOL     OW22850   7.502   6.038   5.447  0.2228  0.2475 -0.1036
 6973SOL    HW122851   7.570   6.012   5.385 -0.1194 -0.2197 -0.2829
 6973SOL    HW222852   7.535   6.008   5.532  0.3773  0.2886 -0.1472
 6974SOL     OW22853   6.668   8.611   6.820 -0.3734  0.0618  0.0733
 6974SOL    HW122854   6.621   8.694   6.820  2.5466  1.8526 -1.2197
 6974SOL    HW222855   6.691   8.595   6.911 -2.8127 -0.5706  0.6564
 6975SOL     OW22856   0.092   2.534   1.798  0.0402  0.2136  0.6530
 6975SOL    HW122857   0.103   2.534   1.703  1.4023  0.9869  0.7889
 6975SOL    HW222858   0.179   2.550   1.833 -0.2697 -0.9129  2.0764
 6976SOL     OW22859   6.043   3.102   3.972  0.9686 -0.2661  0.2398
 6976SOL    HW122860   6.135   3.127   3.960  0.6200  0.9021 -0.1119
 6976SOL    HW222861   5.993   3.180   3.946 -0.1753 -1.3448 -0.9418
 6977SOL     OW22862   8.354   8.836   6.989  0.3066 -0.6267 -0.1164
 6977SOL    HW122863   8.422   8.781   7.030  0.6658 -0.1473 -0.0642
 6977SOL    HW222864   8.362   8.816   6.896 -0.4678 -1.6693  0.0238
 6978SOL     OW22865   2.334   0.387   8.333  0.2474 -0.1544  0.1350
 6978SOL    HW122866   2.252   0.432   8.352  0.7308  0.5238  0.6719
 6978SOL    HW222867   2.402   0.453   8.348  0.8129 -0.2686 -1.7278
 6979SOL     OW22868   7.819   4.684   2.859  0.1483 -0.1545 -0.4837
 6979SOL    HW122869   7.778   4.599   2.843  0.8250 -0.4108 -0.9299
 6979SOL    HW222870   7.911   4.671   2.835  0.4739  0.4333  0.3775
 6980SOL     OW22871   6.564   0.612   7.366 -0.6461 -0.0092 -0.0177
 6980SOL    HW122872   6.510   0.689   7.348 -0.8879 -0.4627 -1.3096
 6980SOL    HW222873   6.573   0.612   7.462  0.5009  2.3701 -0.0514
 6981SOL     OW22874   3.481   6.064   8.289  0.2841  0.2075  0.1052
 6981SOL    HW122875   3.539   6.141   8.287  0.8971 -0.2471 -0.0331
 6981SOL    HW222876   3.454   6.057   8.381 -1.4519  1.7902 -0.2220
 6982SOL     OW22877   5.729   5.378   0.742 -0.1614  0.0248  0.0290
 6982SOL    HW122878   5.700   5.380   0.651 -1.9570  0.4565  0.5655
 6982SOL    HW222879   5.744   5.286   0.761 -2.4022 -0.4081  0.0137
 6983SOL     OW22880   1.894   7.762   0.220  0.2044  0.3715 -0.4901
 6983SOL    HW122881   1.875   7.682   0.171 -0.8877  1.7499 -2.4572
 6983SOL    HW222882   1.808   7.796   0.245  0.6182  1.2742 -0.2445
 6984SOL     OW22883   2.369   5.640   0.574 -0.1478 -0.0772 -0.1615
 6984SOL    HW122884   2.364   5.707   0.642 -1.4192  0.7495 -1.0280
 6984SOL    HW222885   2.460   5.611   0.576  0.2924  1.2745  0.6257
 6985SOL     OW22886   8.009   0.105   2.746  0.2977 -0.0738  0.4389
 6985SOL    HW122887   7.972   0.186   2.782  0.7641  0.1121  0.5169
 6985SOL    HW222888   8.103   0.114   2.762  0.4759 -0.1392 -0.5261
 6986SOL     OW22889   4.855   0.611   7.712  0.1827 -0.2094 -0.1201
 6986SOL    HW122890   4.926   0.607   7.647 -0.2584 -1.1790 -0.5544
 6986SOL    HW222891   4.786   0.661   7.668  0.1417 -0.2819 -0.1375
 6987SOL     OW22892   5.368   4.672   0.801  0.3863 -0.1043 -0.0022
 6987SOL    HW122893   5.303   4.603   0.788  0.1788  0.5052 -2.7741
 6987SOL    HW222894   5.323   4.739   0.852 -0.2379 -0.8903  0.4936
 6988SOL     OW22895   3.090   7.890   1.547  0.1636  0.4333 -0.3467
 6988SOL    HW122896   3.007   7.881   1.594  0.0177  1.5295 -0.3810
 6988SOL    HW222897   3.138   7.809   1.568 -1.3507 -0.7551 -1.2286
 6989SOL     OW22898   6.274   7.596   1.245  0.0914 -0.1246 -0.2017
 6989SOL    HW122899   6.312   7.534   1.308  0.2422 -0.1289 -0.2959
 6989SOL    HW222900   6.309   7.568   1.160  1.8197  1.3201 -0.0249
 6990SOL     OW22901   1.109   6.052   8.775  0.1514 -0.3780  0.3577
 6990SOL    HW122902   1.143   6.030   8.688  1.1780  0.1904  0.5882
 6990SOL    HW222903   1.084   6.144   8.768 -1.2048 -0.7467  0.2477
 6991SOL     OW22904   2.398   6.765   5.766 -0.2818  0.9061  0.2589
 6991SOL    HW122905   2.446   6.686   5.739 -0.2399  0.6129  1.1459
 6991SOL    HW222906   2.391   6.756   5.861 -2.5598  0.6714  0.1121
 6992SOL     OW22907   4.199   7.681   5.104  0.1952 -0.0665 -0.0146
 6992SOL    HW122908   4.134   7.751   5.104 -0.9422 -1.0793 -0.6856
 6992SOL    HW222909   4.168   7.620   5.171  1.1461  0.0336  0.5290
 6993SOL     OW22910   5.798   2.307   1.810  0.6383  0.5463 -0.3612
 6993SOL    HW122911   5.753   2.392   1.807  2.0133  1.5318  2.7859
 6993SOL    HW222912   5.727   2.243   1.813 -0.5265  1.8056  0.4855
 6994SOL     OW22913   1.376   1.067   3.332 -0.1051 -0.5101  0.6066
 6994SOL    HW122914   1.353   1.009   3.259  1.6980 -1.4053  0.6778
 6994SOL    HW222915   1.314   1.140   3.326 -1.0267 -1.3640 -0.8276
 6995SOL     OW22916   7.831   5.518   0.121  1.1183  0.0900 -0.7746
 6995SOL    HW122917   7.861   5.444   0.068  0.8666 -1.1226  0.6936
 6995SOL    HW222918   7.906   5.539   0.176 -0.0438 -1.9088  1.7815
 6996SOL     OW22919   4.745   7.441   0.438 -0.4490  0.3097 -0.5669
 6996SOL    HW122920   4.791   7.365   0.403 -1.0600 -0.6938  0.7018
 6996SOL    HW222921   4.653   7.412   0.444 -0.4067  0.4640  1.6006
 6997SOL     OW22922   1.242   0.817   3.820  0.3783  0.2679 -0.0056
 6997SOL    HW122923   1.221   0.901   3.861 -0.9664 -0.3473  0.6474
 6997SOL    HW222924   1.255   0.838   3.728  1.2714  1.3627  0.3428
 6998SOL     OW22925   2.380   3.521   0.224  0.4975  0.5833  0.0443
 6998SOL    HW122926   2.322   3.448   0.243  0.4650  0.1945 -1.3897
 6998SOL    HW222927   2.456   3.508   0.281 -0.2399  0.3898  1.0075
 6999SOL     OW22928   2.309   2.692   4.531 -0.5187  0.0665 -0.2065
 6999SOL    HW122929   2.336   2.671   4.620  2.0396  2.0370 -0.3871
 6999SOL    HW222930   2.227   2.741   4.541 -0.6131 -0.3034  0.9769
 7000SOL     OW22931   5.405   6.282   4.031  0.1696 -0.5649 -0.0902
 7000SOL    HW122932   5.346   6.218   4.070  0.4152 -0.5579  0.2911
 7000SOL    HW222933   5.448   6.235   3.960  0.5579 -0.9032  0.3721
 7001SOL     OW22934   2.778   8.089   5.129  0.3208 -0.3078  0.2035
 7001SOL    HW122935   2.788   8.112   5.037  1.4226  0.3429  0.4741
 7001SOL    HW222936   2.845   8.139   5.174 -1.6592  1.1740  1.6768
 7002SOL     OW22937   1.080   2.695   6.204  0.1296  0.0398 -0.2291
 7002SOL    HW122938   1.059   2.752   6.131 -0.0135  2.9075  1.8624
 7002SOL    HW222939   1.155   2.644   6.174 -1.2010 -0.4414 -3.0319
 7003SOL     OW22940   6.847   0.901   4.654  0.8886 -0.1659 -0.3129
 7003SOL    HW122941   6.926   0.862   4.689  1.1695  1.4296  0.9381
 7003SOL    HW222942   6.790   0.914   4.730  0.8077  1.7757 -0.6553
 7004SOL     OW22943   6.376   7.328   1.596  0.1514 -0.0210  0.2271
 7004SOL    HW122944   6.465   7.350   1.623  0.4861 -0.7662 -0.2660
 7004SOL    HW222945   6.320   7.378   1.656  0.8867  1.5174 -0.3204
 7005SOL     OW22946   8.362   0.316   5.655 -0.4610 -0.2726  0.0893
 7005SOL    HW122947   8.269   0.335   5.642  0.0310  2.1069 -0.4120
 7005SOL    HW222948   8.403   0.336   5.571  0.8624  1.5787  1.0964
 7006SOL     OW22949   4.647   6.534   3.896 -0.1557 -0.1120 -0.5724
 7006SOL    HW122950   4.573   6.528   3.835  0.1041  1.2404 -1.0729
 7006SOL    HW222951   4.626   6.472   3.966 -3.0254  1.9566  0.5978
 7007SOL     OW22952   6.486   8.584   1.568  0.1695 -0.1193  0.5394
 7007SOL    HW122953   6.435   8.561   1.491  1.4293  0.0610 -0.3792
 7007SOL    HW222954   6.524   8.669   1.547  1.5603 -0.6431  0.8080
 7008SOL     OW22955   6.159   6.735   3.492  0.7063 -0.1131 -0.1071
 7008SOL    HW122956   6.250   6.744   3.464  0.1771  1.5332 -1.4503
 7008SOL    HW222957   6.164   6.731   3.588  2.2966 -2.1399 -0.2022
 7009SOL     OW22958   5.121   5.068   7.648 -0.0231 -0.1710 -0.2933
 7009SOL    HW122959   5.044   5.089   7.596 -0.5970  1.7821  1.1930
 7009SOL    HW222960   5.195   5.098   7.595 -0.4323 -0.2532 -0.9090
 7010SOL     OW22961   6.411   5.097   7.648  0.1535  0.0792 -0.2601
 7010SOL    HW122962   6.408   5.192   7.657  0.6618 -0.0511  1.6568
 7010SOL    HW222963   6.364   5.079   7.567  0.4063  1.9826 -0.8718
 7011SOL     OW22964   3.181   6.742   0.551  0.6426 -0.1196 -0.3323
 7011SOL    HW122965   3.118   6.674   0.574 -0.8166 -0.0919 -3.6338
 7011SOL    HW222966   3.174   6.806   0.622 -1.9798 -0.8428  0.1568
 7012SOL     OW22967   3.560   3.070   3.469  0.4078 -0.0800  0.5335
 7012SOL    HW122968   3.593   2.985   3.498 -0.8798 -0.1731  1.8710
 7012SOL    HW222969   3.465   3.064   3.482  0.0925  0.9301 -1.0685
 7013SOL     OW22970   7.563   8.017   3.002  0.6675  0.3828 -0.1982
 7013SOL    HW122971   7.572   7.982   2.913 -0.9271  1.0654 -0.6617
 7013SOL    HW222972   7.511   8.097   2.991  0.6258  0.5930  1.3326
 7014SOL     OW22973   3.172   5.083   2.604 -0.4575  0.0877 -0.4070
 7014SOL    HW122974   3.203   5.040   2.525  0.2290  0.6654 -0.4635
 7014SOL    HW222975   3.205   5.030   2.676 -0.5229 -0.0708 -0.4934
 7015SOL     OW22976   6.498   3.568   2.577  0.6768 -0.6002  0.6041
 7015SOL    HW122977   6.406   3.590   2.564  0.8297  0.6084  1.4098
 7015SOL    HW222978   6.526   3.532   2.493 -0.7476 -1.8513  0.6205
 7016SOL     OW22979   2.647   4.193   2.461 -0.1080 -0.4903 -0.0485
 7016SOL    HW122980   2.558   4.177   2.492  0.0871  0.4671  1.1296
 7016SOL    HW222981   2.703   4.148   2.525  0.2538 -0.9777 -0.7063
 7017SOL     OW22982   7.068   1.833   1.487  0.0320  0.3651  0.4694
 7017SOL    HW122983   7.142   1.810   1.431 -0.7859 -0.2806 -0.3710
 7017SOL    HW222984   7.106   1.840   1.575  1.1234  0.2778  0.0270
 7018SOL     OW22985   0.294   7.054   7.238  0.5030 -0.3858  0.0230
 7018SOL    HW122986   0.330   7.055   7.149  1.2262  0.4194  0.3182
 7018SOL    HW222987   0.258   6.966   7.248 -0.9943 -0.0316 -1.6213
 7019SOL     OW22988   2.276   7.446   1.113  0.1820  0.4285 -0.2125
 7019SOL    HW122989   2.332   7.524   1.113  0.6377  0.1356  1.3466
 7019SOL    HW222990   2.282   7.412   1.024  1.7824  0.8947 -0.3166
 7020SOL     OW22991   0.044   4.392   7.647 -0.1784  0.4882 -0.4445
 7020SOL    HW122992  -0.046   4.420   7.666 -0.0765  0.5834 -0.0959
 7020SOL    HW222993   0.037   4.346   7.563 -0.8381 -0.9212  0.3376
 7021SOL     OW22994   4.182   8.644   8.438  0.3416  0.3833 -0.4685
 7021SOL    HW122995   4.255   8.693   8.399  0.5228  0.8442  0.4326
 7021SOL    HW222996   4.189   8.556   8.400 -0.2016  1.1236 -2.3777
 7022SOL     OW22997   4.981   8.791   2.175  0.1659  0.5390 -0.1602
 7022SOL    HW122998   4.977   8.703   2.137  0.9937  0.6783 -0.5964
 7022SOL    HW222999   4.895   8.803   2.216  0.6169 -1.1474  1.4502
 7023SOL     OW23000   6.233   8.546   7.316  0.0374 -0.4583  0.2946
 7023SOL    HW123001   6.238   8.632   7.359 -0.5507 -1.6809  2.9958
 7023SOL    HW223002   6.147   8.546   7.273  0.0781  0.3233  0.1925
 7024SOL     OW23003   7.946   3.657   0.962 -0.0744  0.3214 -0.2953
 7024SOL    HW123004   7.897   3.623   1.037  2.3447 -0.1284  1.1779
 7024SOL    HW223005   7.907   3.614   0.886  0.1426 -2.6093  1.1062
 7025SOL     OW23006   7.447   2.655   1.482 -0.5786  0.3933  0.4830
 7025SOL    HW123007   7.516   2.669   1.547  0.3239 -0.1822 -0.3190
 7025SOL    HW223008   7.425   2.743   1.452 -0.0076  0.5759  0.5710
 7026SOL     OW23009   3.843   0.722   0.484  0.3880 -0.0120 -0.0136
 7026SOL    HW123010   3.833   0.634   0.522 -1.0217  0.0259 -0.2474
 7026SOL    HW223011   3.759   0.765   0.500 -0.2885  0.0244 -3.1015
 7027SOL     OW23012   4.615   4.966   1.079 -0.1252  0.4820  0.2108
 7027SOL    HW123013   4.692   5.019   1.098  0.3133 -0.9327  3.0147
 7027SOL    HW223014   4.543   5.012   1.122 -0.0529 -0.1882  1.1012
 7028SOL     OW23015   2.577   7.707   1.365 -0.0863  0.1322  0.0676
 7028SOL    HW123016   2.545   7.723   1.454 -0.4627  0.1100 -0.0649
 7028SOL    HW223017   2.554   7.616   1.348  0.7960 -0.1477  0.2868
 7029SOL     OW23018   3.237   7.485   5.885 -0.2093  0.1922 -0.0883
 7029SOL    HW123019   3.286   7.499   5.966  2.5882 -0.0522 -1.6117
 7029SOL    HW223020   3.226   7.573   5.849  1.4728  0.0900 -0.9623
 7030SOL     OW23021   8.242   8.591   5.366 -0.1804 -0.1904 -0.0353
 7030SOL    HW123022   8.147   8.590   5.364 -0.2216  1.3983 -0.1088
 7030SOL    HW223023   8.265   8.586   5.459 -0.4651  2.5246  0.2576
 7031SOL     OW23024   0.911   2.790   4.788 -0.9841 -0.2890  0.2188
 7031SOL    HW123025   0.897   2.704   4.826 -0.0592 -0.2022  0.7861
 7031SOL    HW223026   0.824   2.830   4.785 -1.4351 -1.2697 -0.1485
 7032SOL     OW23027   8.666   0.904   6.402 -0.3984  0.1508  0.3380
 7032SOL    HW123028   8.752   0.931   6.432 -0.2876  0.0036  0.1527
 7032SOL    HW223029   8.605   0.945   6.464 -0.1475 -0.6927  1.1639
 7033SOL     OW23030   5.583   1.784   4.948  0.0723  0.0154  0.2333
 7033SOL    HW123031   5.584   1.735   5.030 -1.0827 -1.7130 -0.7315
 7033SOL    HW223032   5.491   1.806   4.933 -0.0851 -1.5661 -1.6044
 7034SOL     OW23033   6.003   2.124   6.767  0.2499 -0.3055 -0.0945
 7034SOL    HW123034   6.030   2.215   6.782 -1.3454  0.3085 -0.7743
 7034SOL    HW223035   6.059   2.093   6.696  1.1849 -0.0662  0.5114
 7035SOL     OW23036   8.330   3.847   6.218  0.3016 -0.0338 -0.0184
 7035SOL    HW123037   8.348   3.936   6.187  1.5622  0.7981  2.7886
 7035SOL    HW223038   8.409   3.822   6.265 -0.5928 -2.0733  0.5042
 7036SOL     OW23039   6.397   8.591   5.626  0.6006 -0.2054  0.4962
 7036SOL    HW123040   6.427   8.624   5.542 -0.5097  0.3251  0.2908
 7036SOL    HW223041   6.311   8.631   5.639  0.5577 -0.6252  1.6769
 7037SOL     OW23042   6.061   0.597   6.216  0.5079 -0.0360  0.4650
 7037SOL    HW123043   6.121   0.670   6.202  0.2942  0.2174  0.8757
 7037SOL    HW223044   6.068   0.545   6.136 -0.0070  0.9047 -0.1964
 7038SOL     OW23045   7.425   6.374   0.005  0.5335 -0.2104  0.1732
 7038SOL    HW123046   7.397   6.285  -0.016  1.0277 -0.6431  1.2753
 7038SOL    HW223047   7.482   6.399  -0.068 -0.3391 -0.4237 -0.6096
 7039SOL     OW23048   5.236   6.433   5.226  0.2935 -0.1333 -0.5811
 7039SOL    HW123049   5.199   6.345   5.220  1.3639 -0.5994 -0.6968
 7039SOL    HW223050   5.266   6.452   5.137  0.4705  0.1522 -0.4624
 7040SOL     OW23051   6.320   4.730   4.750 -0.0811 -0.0767  0.7148
 7040SOL    HW123052   6.302   4.670   4.678 -0.3293 -0.7595  1.3422
 7040SOL    HW223053   6.250   4.714   4.813  1.2026 -0.8846  1.9874
 7041SOL     OW23054   4.285   6.189   7.881  0.0963 -0.3152  0.2051
 7041SOL    HW123055   4.324   6.262   7.834  0.0860 -0.9599 -0.8226
 7041SOL    HW223056   4.191   6.195   7.862  0.1735 -0.9708 -0.4296
 7042SOL     OW23057   8.791   6.957   1.247 -0.3580  0.0437  0.0007
 7042SOL    HW123058   8.779   6.946   1.152 -1.6761  0.2258  0.1210
 7042SOL    HW223059   8.731   7.028   1.270  0.5348  0.5483  0.8560
 7043SOL     OW23060   7.623   7.680   3.019 -0.4729 -0.0416  0.5793
 7043SOL    HW123061   7.630   7.705   3.111 -0.2234 -1.7512  1.0600
 7043SOL    HW223062   7.547   7.622   3.016  1.2070 -2.4025  0.3380
 7044SOL     OW23063   3.122   7.154   0.702  0.6856  0.5989  0.2409
 7044SOL    HW123064   3.073   7.074   0.681  1.0935  0.1668  0.9002
 7044SOL    HW223065   3.214   7.127   0.695  0.8856  0.2538  3.0965
 7045SOL     OW23066   4.458   7.035   3.768 -0.0200  0.1711 -0.1941
 7045SOL    HW123067   4.502   6.950   3.761 -0.9549 -0.4070  0.7698
 7045SOL    HW223068   4.469   7.060   3.859  0.7233  1.3664 -0.5962
 7046SOL     OW23069   3.636   1.030   5.823  0.0807 -0.0438 -0.2586
 7046SOL    HW123070   3.691   1.050   5.899  0.3729 -1.1942 -0.1429
 7046SOL    HW223071   3.577   0.961   5.854  0.0897 -0.4043 -1.0222
 7047SOL     OW23072   0.422   2.779   3.669 -0.1478  1.0473  0.1746
 7047SOL    HW123073   0.464   2.855   3.709 -0.5415  1.0363  0.6264
 7047SOL    HW223074   0.370   2.816   3.597 -0.3609  1.2109  0.4110
 7048SOL     OW23075   6.529   8.303   6.445  0.0300  0.3355  0.1668
 7048SOL    HW123076   6.515   8.332   6.355 -1.3258  1.7521  0.8039
 7048SOL    HW223077   6.586   8.370   6.483  3.1824 -1.7814 -0.3926
 7049SOL     OW23078   8.761   8.601   6.137  0.3450 -0.5808 -0.5000
 7049SOL    HW123079   8.692   8.660   6.167  1.7272  1.2263 -0.7160
 7049SOL    HW223080   8.842   8.642   6.166  1.5906 -0.3496 -3.8371
 7050SOL     OW23081   4.791   6.559   7.664  0.2855 -0.1971 -0.6416
 7050SOL    HW123082   4.856   6.578   7.732 -0.7541  1.5697 -0.0740
 7050SOL    HW223083   4.821   6.609   7.588 -2.0764  3.5928  0.6399
 7051SOL     OW23084   3.416   7.623   2.407  0.2691 -0.0385  0.1082
 7051SOL    HW123085   3.372   7.624   2.492 -1.9285  0.6399 -0.9915
 7051SOL    HW223086   3.508   7.607   2.429  0.0319  1.5342  2.7274
 7052SOL     OW23087   7.511   3.139   1.791 -0.0593  0.4475  0.1042
 7052SOL    HW123088   7.579   3.071   1.785 -0.5006 -0.0481  0.5730
 7052SOL    HW223089   7.549   3.214   1.746  1.9038  1.0497  2.4755
 7053SOL     OW23090   3.298   5.610   3.716 -0.1225 -0.2119 -0.2684
 7053SOL    HW123091   3.271   5.702   3.712  0.0351 -0.1475  0.0907
 7053SOL    HW223092   3.366   5.602   3.650  0.0585  0.0008 -0.1110
 7054SOL     OW23093   3.511   1.992   3.013  0.5951 -0.2533  0.0230
 7054SOL    HW123094   3.545   1.908   3.044  1.1507 -0.0358  0.0130
 7054SOL    HW223095   3.529   2.054   3.084  0.6244 -0.0438 -0.1649
 7055SOL     OW23096   4.195   5.498   1.456  0.2363  0.3980  0.6071
 7055SOL    HW123097   4.200   5.405   1.435  0.3989  0.5761 -0.1950
 7055SOL    HW223098   4.167   5.539   1.374  1.0008  1.1476  0.7095
 7056SOL     OW23099   2.854   5.677   4.422  0.0221 -0.2366  0.1785
 7056SOL    HW123100   2.839   5.583   4.434 -0.2059 -0.2754 -0.3534
 7056SOL    HW223101   2.949   5.686   4.421  0.0658 -0.6334 -0.9038
 7057SOL     OW23102   1.832   2.391   2.448 -0.0956 -0.0867  0.0434
 7057SOL    HW123103   1.842   2.305   2.408 -0.1600  0.2111 -0.6162
 7057SOL    HW223104   1.822   2.451   2.375  1.1154  0.6509  0.4414
 7058SOL     OW23105   8.354   4.260   1.014  0.1067  0.2519 -0.0601
 7058SOL    HW123106   8.309   4.344   1.024 -0.4852  0.0087 -0.5943
 7058SOL    HW223107   8.343   4.217   1.099 -1.0699  0.0190 -0.3120
 7059SOL     OW23108   4.438   5.409   0.903 -0.3304 -0.0346  0.2331
 7059SOL    HW123109   4.457   5.334   0.847 -1.6989 -0.1881 -0.0456
 7059SOL    HW223110   4.483   5.483   0.861  1.3659 -0.7365  0.7335
 7060SOL     OW23111   4.336   2.650   8.844  0.1169 -0.0262 -0.6373
 7060SOL    HW123112   4.265   2.711   8.863  0.7160  1.5364 -2.9639
 7060SOL    HW223113   4.415   2.698   8.869  0.4874 -0.7703 -0.3705
 7061SOL     OW23114   8.666   5.210   0.458 -0.5546  0.8139  0.0312
 7061SOL    HW123115   8.630   5.123   0.439  0.5450  0.8169 -2.6804
 7061SOL    HW223116   8.594   5.270   0.442 -0.9477  0.4714  0.5140
 7062SOL     OW23117   3.879   6.650   6.484 -0.1930  0.0542  0.1663
 7062SOL    HW123118   3.815   6.714   6.515 -1.9379 -1.9158  0.8563
 7062SOL    HW223119   3.923   6.620   6.563 -0.6622 -0.9024  0.0691
 7063SOL     OW23120   7.921   3.020   6.677 -0.2232 -0.7670  0.6233
 7063SOL    HW123121   7.933   2.925   6.667 -2.6669 -1.0398 -0.5699
 7063SOL    HW223122   7.836   3.037   6.635  0.0386  1.9211  1.0536
 7064SOL     OW23123   8.763   2.929   8.568 -0.5818 -0.0698  0.1860
 7064SOL    HW123124   8.751   3.024   8.558  0.5765  0.1704  0.8135
 7064SOL    HW223125   8.761   2.915   8.663  0.2828 -0.5043  0.1517
 7065SOL     OW23126   2.664   0.648   1.137 -0.0403  0.0222 -0.4874
 7065SOL    HW123127   2.577   0.623   1.169  0.6063 -1.8550 -0.0502
 7065SOL    HW223128   2.678   0.736   1.173 -1.4878  0.1006 -0.0405
 7066SOL     OW23129   2.121   4.750   3.372  0.0920 -0.1167  0.6917
 7066SOL    HW123130   2.142   4.742   3.279  0.3693 -1.0753  0.8210
 7066SOL    HW223131   2.026   4.739   3.376  0.0974 -0.2234  0.5356
 7067SOL     OW23132   6.289   7.062   2.875 -0.0316  0.2886 -0.1352
 7067SOL    HW123133   6.315   7.120   2.804  1.3032 -1.3374 -1.0416
 7067SOL    HW223134   6.367   7.010   2.894 -0.2921  0.7263  2.6301
 7068SOL     OW23135   4.000   4.154   8.444 -0.6023 -0.2546  0.2335
 7068SOL    HW123136   3.991   4.068   8.404  0.1058 -1.0822  1.7636
 7068SOL    HW223137   3.966   4.143   8.533  1.2879  0.4911  1.1035
 7069SOL     OW23138   2.612   7.628   7.930  0.4080  0.8416  0.0280
 7069SOL    HW123139   2.610   7.548   7.982  1.6906  1.4405  1.0474
 7069SOL    HW223140   2.667   7.606   7.855  0.8101  0.7769  0.3376
 7070SOL     OW23141   2.847   0.475   1.044 -0.3506 -0.5052  0.6961
 7070SOL    HW123142   2.923   0.508   1.091 -1.2548  0.2577  1.6643
 7070SOL    HW223143   2.776   0.534   1.068 -1.8109 -2.5331  1.7014
 7071SOL     OW23144   2.362   7.694   1.067  0.2226  0.0494  0.1766
 7071SOL    HW123145   2.442   7.698   1.014  0.3407  3.9116  0.4241
 7071SOL    HW223146   2.291   7.706   1.005 -0.1642 -1.8883  0.1687
 7072SOL     OW23147   4.783   6.834   5.900  0.0393  0.1374  0.0446
 7072SOL    HW123148   4.755   6.925   5.911 -1.4773 -0.1747 -0.9177
 7072SOL    HW223149   4.819   6.831   5.812 -2.1174 -0.6553 -0.8794
 7073SOL     OW23150   8.646   3.820   1.574 -0.1539  0.1208 -0.3648
 7073SOL    HW123151   8.676   3.851   1.488  1.4178  0.1567  0.1745
 7073SOL    HW223152   8.670   3.890   1.634 -0.7935 -0.1268  0.1895
 7074SOL     OW23153   4.337   7.173   1.255 -0.2176 -0.7000  0.0701
 7074SOL    HW123154   4.403   7.161   1.186 -0.1320 -1.1400  0.2262
 7074SOL    HW223155   4.345   7.265   1.280 -1.2693 -0.1138 -1.5428
 7075SOL     OW23156   3.262   0.556   2.508 -0.3500  0.0875  0.1702
 7075SOL    HW123157   3.195   0.503   2.553  0.2831 -0.9615 -0.0878
 7075SOL    HW223158   3.222   0.580   2.425 -0.3204 -0.7811 -0.1073
 7076SOL     OW23159   7.344   2.122   4.382 -0.1229 -0.4287  1.0118
 7076SOL    HW123160   7.418   2.149   4.435 -0.0552  0.8043  0.3361
 7076SOL    HW223161   7.293   2.063   4.438  1.1351 -0.9590  1.6155
 7077SOL     OW23162   0.508   3.833   3.381  0.1793  0.2924 -0.3000
 7077SOL    HW123163   0.571   3.880   3.436 -0.1613  1.2647 -0.7062
 7077SOL    HW223164   0.559   3.766   3.337  0.2371 -1.4575  2.1903
 7078SOL     OW23165   8.712   8.798   1.724 -0.4694  0.6624 -0.4529
 7078SOL    HW123166   8.788   8.758   1.682 -0.7427  0.6140 -0.9106
 7078SOL    HW223167   8.639   8.740   1.702 -0.2833 -0.6561  1.9901
 7079SOL     OW23168   1.120   5.221   8.698 -0.0000 -0.3701 -0.0341
 7079SOL    HW123169   1.026   5.208   8.713 -0.2759 -1.1078 -2.0993
 7079SOL    HW223170   1.161   5.141   8.730 -0.1677 -0.4063  0.0894
 7080SOL     OW23171   2.703   1.309   2.273 -0.3376  0.3574 -0.1036
 7080SOL    HW123172   2.796   1.310   2.294 -0.5139 -1.2744  0.9546
 7080SOL    HW223173   2.664   1.373   2.333  0.0109  0.5344 -0.0658
 7081SOL     OW23174   2.585   1.120   1.760  0.0739  0.2312 -0.1491
 7081SOL    HW123175   2.525   1.071   1.816 -0.0210 -0.6732 -1.0239
 7081SOL    HW223176   2.639   1.053   1.718 -0.0342  0.8697 -1.3412
 7082SOL     OW23177   3.210   5.782   1.635  0.1688  0.5691  0.0058
 7082SOL    HW123178   3.242   5.756   1.548 -0.9818 -0.4768 -0.1260
 7082SOL    HW223179   3.270   5.739   1.696 -0.5982 -0.9058 -0.2473
 7083SOL     OW23180   7.820   5.306   7.713  0.0215 -0.1030  0.2764
 7083SOL    HW123181   7.878   5.332   7.784  1.3063 -0.2121 -0.7017
 7083SOL    HW223182   7.870   5.243   7.663 -0.4599  0.7131 -1.3046
 7084SOL     OW23183   3.787   4.925   5.195 -0.6420  0.6597 -0.2434
 7084SOL    HW123184   3.776   4.991   5.264  0.3321 -0.9504  1.5530
 7084SOL    HW223185   3.723   4.857   5.216  2.0345 -1.5821  1.3589
 7085SOL     OW23186   6.791   4.450   8.136 -0.1956 -0.0500 -0.3087
 7085SOL    HW123187   6.878   4.416   8.115  0.1876  1.2527 -0.9221
 7085SOL    HW223188   6.732   4.402   8.079 -0.1453 -2.2192  1.3348
 7086SOL     OW23189   7.699   2.161   0.630  0.1630 -0.7186  0.1743
 7086SOL    HW123190   7.767   2.226   0.609 -1.3467  0.8723  0.0235
 7086SOL    HW223191   7.703   2.152   0.725 -0.1329  0.2079  0.2835
 7087SOL     OW23192   7.323   5.166   6.191  0.0322 -0.3957 -0.1666
 7087SOL    HW123193   7.231   5.143   6.177 -0.1752  0.4895 -0.3844
 7087SOL    HW223194   7.325   5.203   6.279 -0.2941  1.6884 -0.9715
 7088SOL     OW23195   4.224   8.712   2.596  0.0907  0.5291 -0.6714
 7088SOL    HW123196   4.168   8.790   2.596 -1.2575 -0.3275 -2.9941
 7088SOL    HW223197   4.307   8.743   2.560  0.2307  1.2715  0.2614
 7089SOL     OW23198   0.995   8.526   4.616 -0.2501 -0.2849  0.5258
 7089SOL    HW123199   1.079   8.532   4.663 -0.2168  1.7998  0.2848
 7089SOL    HW223200   0.978   8.615   4.586 -0.4032 -1.3715 -3.2124
 7090SOL     OW23201   6.743   0.430   6.474  0.7053 -0.2168 -0.0879
 7090SOL    HW123202   6.815   0.420   6.413 -0.0277  1.1617 -1.2253
 7090SOL    HW223203   6.780   0.480   6.547  1.2946 -0.9161  0.1051
 7091SOL     OW23204   5.643   8.036   4.114 -0.1229 -0.1082 -0.1063
 7091SOL    HW123205   5.725   8.074   4.145  0.9096 -1.0968 -1.4832
 7091SOL    HW223206   5.578   8.065   4.177  1.5077 -0.4138  1.8286
 7092SOL     OW23207   3.115   1.383   1.586  0.2421  0.1377  0.0514
 7092SOL    HW123208   3.154   1.343   1.664  0.2604 -1.2378 -0.6270
 7092SOL    HW223209   3.133   1.476   1.595  1.4757 -0.1673  0.9986
 7093SOL     OW23210   3.096   1.026   1.773  0.1451 -0.1042  0.1381
 7093SOL    HW123211   3.129   1.115   1.763  0.3962  0.1357  2.4652
 7093SOL    HW223212   3.170   0.977   1.809  0.0795 -1.3532 -1.3036
 7094SOL     OW23213   3.021   1.147   5.809 -0.5683 -0.6472 -0.4645
 7094SOL    HW123214   2.961   1.083   5.772  0.1663 -1.3394 -0.4870
 7094SOL    HW223215   3.036   1.117   5.898 -2.1767  0.9035  0.3896
 7095SOL     OW23216   6.546   7.527   6.441  0.2690 -0.7550 -0.3520
 7095SOL    HW123217   6.501   7.486   6.366  0.8407  1.1402 -1.8152
 7095SOL    HW223218   6.554   7.457   6.505 -1.5546 -2.0919 -1.4729
 7096SOL     OW23219   3.047   4.026   5.467  0.2097  0.0636  0.0171
 7096SOL    HW123220   3.064   3.987   5.381  0.4060 -0.7686  0.4153
 7096SOL    HW223221   3.131   4.021   5.513 -0.5489 -2.3447  1.3342
 7097SOL     OW23222   7.218   3.004   2.406  0.0102  0.5689  0.1908
 7097SOL    HW123223   7.162   2.927   2.415  0.3314  0.2477 -0.4746
 7097SOL    HW223224   7.278   2.981   2.335  0.6844  1.0899  0.5906
 7098SOL     OW23225   2.581   4.133   4.702 -0.3780  0.4648 -0.7861
 7098SOL    HW123226   2.558   4.050   4.660 -2.3232  0.4417  0.2130
 7098SOL    HW223227   2.649   4.110   4.765 -0.8478 -0.3702 -0.5722
 7099SOL     OW23228   3.742   8.534   3.931 -0.3461  0.3229  0.1411
 7099SOL    HW123229   3.749   8.472   3.859  0.9690  0.5231  0.0620
 7099SOL    HW223230   3.799   8.497   3.999 -1.7758 -0.0143  1.2133
 7100SOL     OW23231   1.307   2.697   2.311  0.0746 -0.0681 -0.1087
 7100SOL    HW123232   1.402   2.696   2.303  0.1768 -0.1458  0.9808
 7100SOL    HW223233   1.290   2.727   2.401 -0.9282  0.0758 -0.3304
 7101SOL     OW23234   7.992   5.448   5.756  0.2692  0.4666  0.6067
 7101SOL    HW123235   8.022   5.505   5.827 -3.1035  0.9582  1.8022
 7101SOL    HW223236   7.969   5.366   5.800  3.3230 -1.3311 -0.8314
 7102SOL     OW23237   7.549   1.813   7.446 -0.2007  0.1570  0.4147
 7102SOL    HW123238   7.465   1.851   7.472  0.9452  2.7967  0.6415
 7102SOL    HW223239   7.606   1.827   7.523  0.8194 -0.2572 -0.2461
 7103SOL     OW23240   0.130   1.921   3.645  0.3536  0.9341 -0.0633
 7103SOL    HW123241   0.118   1.860   3.573 -1.2485  1.3287 -0.1647
 7103SOL    HW223242   0.062   1.897   3.708  0.4289  1.8888  0.3989
 7104SOL     OW23243   7.148   3.433   3.383 -0.1076  0.1222 -0.0813
 7104SOL    HW123244   7.232   3.389   3.386 -1.4523 -2.6679 -0.3860
 7104SOL    HW223245   7.153   3.489   3.305  1.8664  1.0560  0.6491
 7105SOL     OW23246   3.479   1.220   1.160 -0.2321  0.1130  0.0798
 7105SOL    HW123247   3.575   1.213   1.154 -0.1678  1.1335 -0.2708
 7105SOL    HW223248   3.459   1.303   1.117 -0.9104  1.8177  3.3949
 7106SOL     OW23249   6.989   6.963   7.714  0.3234 -0.6468  0.0062
 7106SOL    HW123250   6.916   6.903   7.699 -0.4431 -0.1399  1.4735
 7106SOL    HW223251   7.012   6.996   7.627 -1.3133 -0.6962 -0.4851
 7107SOL     OW23252   8.122   7.527   0.500  0.3083 -0.7965  0.2964
 7107SOL    HW123253   8.044   7.579   0.478 -0.1947 -1.3765  0.6877
 7107SOL    HW223254   8.135   7.470   0.424  0.8183 -0.1648 -0.1025
 7108SOL     OW23255   6.083   6.557   3.758  0.0676  0.1106 -0.2976
 7108SOL    HW123256   6.153   6.522   3.702 -0.1870  1.6896 -1.6533
 7108SOL    HW223257   6.002   6.536   3.711 -0.2160  0.5909 -0.0225
 7109SOL     OW23258   7.690   2.279   3.714  0.8045 -0.2850  0.3965
 7109SOL    HW123259   7.639   2.232   3.648  0.5535 -0.4240  0.6856
 7109SOL    HW223260   7.677   2.371   3.693 -0.6717 -0.2582  1.2632
 7110SOL     OW23261   4.124   3.530   8.275 -0.4399  0.1428 -0.0335
 7110SOL    HW123262   4.126   3.508   8.368  0.2421 -1.1300 -0.3268
 7110SOL    HW223263   4.214   3.515   8.245 -0.9625 -0.8991 -1.1968
 7111SOL     OW23264   8.864   3.739   3.526  0.2080 -0.0906  0.1459
 7111SOL    HW123265   8.938   3.696   3.570 -0.9468  0.1128  2.3932
 7111SOL    HW223266   8.810   3.667   3.495  0.4049 -0.2315  0.1236
 7112SOL     OW23267   0.682   3.935   1.165  0.3989  0.2630 -0.4250
 7112SOL    HW123268   0.758   3.965   1.115 -0.2959  3.3703  0.1583
 7112SOL    HW223269   0.611   3.994   1.139 -1.7915 -2.2796 -0.6467
 7113SOL     OW23270   7.324   2.722   4.643 -1.1182 -0.3765 -0.7593
 7113SOL    HW123271   7.257   2.766   4.695 -1.5215  0.3654 -1.8662
 7113SOL    HW223272   7.387   2.791   4.623  0.9641 -1.3959  1.6849
 7114SOL     OW23273   1.953   8.632   5.959 -0.3310  0.6477 -0.3876
 7114SOL    HW123274   2.041   8.670   5.957 -0.3200  0.6738  0.2553
 7114SOL    HW223275   1.912   8.673   6.035 -0.0366 -1.2210  0.8751
 7115SOL     OW23276   2.667   5.484   0.938  0.0173  0.0331 -0.1888
 7115SOL    HW123277   2.752   5.508   0.902  0.1657 -1.3040 -0.8012
 7115SOL    HW223278   2.641   5.558   0.992  1.6152  0.4070  0.0901
 7116SOL     OW23279   8.341   5.108   1.833  0.1790 -0.3785  0.3281
 7116SOL    HW123280   8.403   5.118   1.905  1.3337  2.8258 -0.9298
 7116SOL    HW223281   8.392   5.127   1.754 -1.7570 -0.6667 -1.0725
 7117SOL     OW23282   3.629   0.722   8.305  0.5914  0.2924  0.0020
 7117SOL    HW123283   3.558   0.733   8.242 -0.8821 -0.0692  1.5163
 7117SOL    HW223284   3.708   0.712   8.252 -0.8965 -2.5408 -1.8898
 7118SOL     OW23285   8.557   7.006   7.826 -0.7422 -0.3298 -0.2632
 7118SOL    HW123286   8.489   6.939   7.816 -0.3437 -0.6038 -1.2568
 7118SOL    HW223287   8.513   7.080   7.868 -1.2153 -1.1724  0.7883
 7119SOL     OW23288   1.275   2.790   2.614 -0.2157 -0.4495  0.0961
 7119SOL    HW123289   1.180   2.789   2.609 -0.1684  0.2266 -1.5728
 7119SOL    HW223290   1.297   2.882   2.631  0.1823 -0.1592 -1.7890
 7120SOL     OW23291   5.901   5.371   1.516  0.0837 -0.6572 -0.2248
 7120SOL    HW123292   5.992   5.400   1.521 -0.2718  0.3953  0.4538
 7120SOL    HW223293   5.850   5.452   1.508 -0.7792 -1.2488 -1.0066
 7121SOL     OW23294   2.466   3.285   1.701 -0.7048 -0.2836 -0.4965
 7121SOL    HW123295   2.410   3.359   1.678 -0.8382 -0.6398 -1.3250
 7121SOL    HW223296   2.504   3.256   1.618  1.0481  0.2091  0.0763
 7122SOL     OW23297   4.549   6.264   2.176  0.1119 -0.0069  0.2116
 7122SOL    HW123298   4.603   6.343   2.167  1.0382 -0.4825  1.3179
 7122SOL    HW223299   4.604   6.194   2.142  0.0477 -0.4396  0.9709
 7123SOL     OW23300   3.397   6.856   8.311  0.3721  0.3767  0.0467
 7123SOL    HW123301   3.464   6.878   8.247 -1.6029 -0.4622 -2.4888
 7123SOL    HW223302   3.403   6.926   8.377  1.9932  1.7359 -1.4345
 7124SOL     OW23303   5.657   8.672   1.956  0.1307  0.6974  0.0001
 7124SOL    HW123304   5.670   8.597   2.014  2.5230  1.8596  1.1157
 7124SOL    HW223305   5.593   8.727   2.001 -2.3855 -1.0112 -1.2809
 7125SOL     OW23306   1.966   5.390   0.700 -0.1171 -0.5134  0.2289
 7125SOL    HW123307   2.048   5.393   0.750 -0.3517  0.7291  0.5557
 7125SOL    HW223308   1.905   5.345   0.758 -0.4004  0.9578  1.1252
 7126SOL     OW23309   3.216   6.143   7.004 -0.6201  0.1984 -0.2051
 7126SOL    HW123310   3.255   6.228   6.985 -0.0276  0.0370  0.3063
 7126SOL    HW223311   3.136   6.164   7.053 -0.5013  0.4538 -0.1215
 7127SOL     OW23312   0.943   4.769   5.894 -0.2110  0.7945 -0.4404
 7127SOL    HW123313   0.928   4.778   5.988 -0.2330  0.2120 -0.3883
 7127SOL    HW223314   1.011   4.834   5.875  1.7952 -0.9362  0.4855
 7128SOL     OW23315   5.523   0.242   7.561  0.3167 -0.0179 -0.3465
 7128SOL    HW123316   5.440   0.238   7.514 -0.3362 -0.2833  0.7902
 7128SOL    HW223317   5.512   0.316   7.621  0.9591  0.0360 -0.2934
 7129SOL     OW23318   4.309   7.423   7.142  0.6341  0.2587  0.2307
 7129SOL    HW123319   4.332   7.331   7.125 -0.7189 -0.2430  1.0151
 7129SOL    HW223320   4.316   7.432   7.237 -3.9342 -0.4580  0.8457
 7130SOL     OW23321   3.196   5.965   1.959 -0.3692 -0.5025 -0.0754
 7130SOL    HW123322   3.213   5.939   2.049  1.1853  2.1785  0.5193
 7130SOL    HW223323   3.259   5.914   1.907  1.1811  0.4693  0.7903
 7131SOL     OW23324   5.752   6.571   1.121 -0.5847 -0.3855  0.2611
 7131SOL    HW123325   5.758   6.579   1.216 -2.0738 -0.5319  0.3942
 7131SOL    HW223326   5.818   6.506   1.098  0.3517  0.2425  1.0849
 7132SOL     OW23327   4.102   3.224   2.964  0.6261  0.3500 -0.0173
 7132SOL    HW123328   4.192   3.193   2.973  0.8661  1.0234 -0.0292
 7132SOL    HW223329   4.086   3.224   2.870 -0.0368 -1.5576  0.0731
 7133SOL     OW23330   2.264   0.070   5.496 -0.1088  0.4465  0.1091
 7133SOL    HW123331   2.224   0.063   5.409 -1.5771 -1.4894  0.8826
 7133SOL    HW223332   2.304  -0.016   5.511 -0.9034  0.3355  1.8110
 7134SOL     OW23333   5.884   3.589   2.102 -0.3866  0.1368  0.1083
 7134SOL    HW123334   5.807   3.577   2.159  0.7428  0.9360  1.9015
 7134SOL    HW223335   5.951   3.624   2.161 -0.1714  4.5909 -2.3649
 7135SOL     OW23336   3.132   8.736   5.947 -0.5268  0.3675 -0.3448
 7135SOL    HW123337   3.208   8.682   5.965 -0.8128  0.0599 -0.0456
 7135SOL    HW223338   3.135   8.805   6.014  0.6199  1.5805 -1.5676
 7136SOL     OW23339   1.647   4.431   0.355 -0.2132 -0.4017  0.3385
 7136SOL    HW123340   1.703   4.482   0.413  0.0957  0.1561 -0.4306
 7136SOL    HW223341   1.609   4.363   0.411 -0.8127  0.7938  1.4293
 7137SOL     OW23342   5.368   2.349   7.838  0.0231  0.1413 -0.0952
 7137SOL    HW123343   5.296   2.384   7.891  0.6657  1.3151  0.0484
 7137SOL    HW223344   5.380   2.414   7.768  0.3420 -0.5029 -0.6461
 7138SOL     OW23345   8.494   4.827   4.184 -0.6793  0.3380  0.3523
 7138SOL    HW123346   8.492   4.916   4.149 -1.7875  0.9475  1.8685
 7138SOL    HW223347   8.416   4.785   4.149 -2.4126  1.2976  2.7861
 7139SOL     OW23348   1.392   0.442   6.854 -0.6973 -0.1982  0.2690
 7139SOL    HW123349   1.400   0.391   6.774  1.2597  0.8714 -0.2483
 7139SOL    HW223350   1.453   0.401   6.915 -0.1644  0.6288  0.3096
 7140SOL     OW23351   4.022   0.155   1.239  0.2656 -0.1544 -0.1911
 7140SOL    HW123352   3.951   0.117   1.292  0.7514  0.6787  1.1111
 7140SOL    HW223353   4.019   0.248   1.261  1.9518 -0.1507  0.1264
 7141SOL     OW23354   7.909   0.101   5.119  0.2692 -0.5313  0.2796
 7141SOL    HW123355   7.848   0.172   5.101  0.6847 -0.2063  0.1318
 7141SOL    HW223356   7.995   0.142   5.114  0.4756 -0.8496  1.1228
 7142SOL     OW23357   3.620   1.726   3.028 -0.1012 -0.3415  0.4016
 7142SOL    HW123358   3.683   1.679   2.973 -1.5464 -2.6756  0.6285
 7142SOL    HW223359   3.663   1.731   3.114  0.9554  0.7374 -0.1549
 7143SOL     OW23360   6.512   2.666   1.914 -0.0971  0.2209 -0.2316
 7143SOL    HW123361   6.508   2.571   1.903  0.5797  0.1460  0.1855
 7143SOL    HW223362   6.470   2.700   1.834 -1.6828 -0.4325  0.2862
 7144SOL     OW23363   7.379   7.151   6.915  0.2837  0.6190 -0.1190
 7144SOL    HW123364   7.359   7.064   6.881 -0.5690  0.7361  0.0722
 7144SOL    HW223365   7.374   7.142   7.010  3.0565  0.1955  0.0828
 7145SOL     OW23366   6.433   3.960   2.530  0.3741  0.3843 -0.5037
 7145SOL    HW123367   6.409   3.884   2.476 -2.1013 -0.1675  1.1954
 7145SOL    HW223368   6.506   3.930   2.583 -0.0023 -0.5320 -0.4903
 7146SOL     OW23369   5.920   4.582   7.459  0.5131  0.3124 -0.3065
 7146SOL    HW123370   5.907   4.650   7.393  0.7304  0.1692 -0.4963
 7146SOL    HW223371   5.923   4.630   7.542  0.5569  0.5219 -0.4286
 7147SOL     OW23372   0.964   1.453   4.176  0.1067 -0.2562  0.4072
 7147SOL    HW123373   0.940   1.493   4.093  0.7708  2.5370  1.4649
 7147SOL    HW223374   1.035   1.507   4.210  0.7551 -2.0876  2.2134
 7148SOL     OW23375   7.742   6.485   1.549  0.5500  0.1225 -0.2231
 7148SOL    HW123376   7.682   6.549   1.511 -0.5682 -0.3135  0.7247
 7148SOL    HW223377   7.807   6.538   1.596 -0.9026  0.6106  1.3540
 7149SOL     OW23378   6.135   2.362   6.818  0.1464  0.0187 -0.5720
 7149SOL    HW123379   6.145   2.421   6.893 -0.6910 -1.5107  0.8209
 7149SOL    HW223380   6.205   2.387   6.758  1.9188  0.2549  1.4654
 7150SOL     OW23381   4.469   7.274   2.445  0.4522  0.3571  0.3162
 7150SOL    HW123382   4.408   7.348   2.437 -0.4373 -0.4686 -0.9331
 7150SOL    HW223383   4.439   7.227   2.523 -2.9658 -2.0541 -2.1126
 7151SOL     OW23384   5.012   5.836   4.272 -0.4486  0.2452  0.4293
 7151SOL    HW123385   5.095   5.847   4.224  0.8368 -1.0936  2.2036
 7151SOL    HW223386   5.037   5.843   4.364 -2.7124  1.9328  1.0067
 7152SOL     OW23387   5.575   6.721   1.004  0.4395 -0.3936 -0.0091
 7152SOL    HW123388   5.577   6.788   1.072  1.5028  0.0548 -0.4594
 7152SOL    HW223389   5.650   6.665   1.024  0.6211 -0.3918 -0.6714
 7153SOL     OW23390   4.027   3.550   6.678 -0.0011  0.0238 -0.2113
 7153SOL    HW123391   3.999   3.587   6.594 -0.7980  0.4155  0.2112
 7153SOL    HW223392   3.967   3.478   6.694 -0.4032  0.4858  0.4195
 7154SOL     OW23393   6.689   6.000   6.976 -0.5296  0.3065  0.4412
 7154SOL    HW123394   6.674   5.979   7.068  1.8994 -0.7627  0.6678
 7154SOL    HW223395   6.634   5.937   6.928  0.2366 -0.9717  1.1823
 7155SOL     OW23396   3.593   4.495   1.938  0.6530 -0.2142 -0.5439
 7155SOL    HW123397   3.687   4.485   1.920  0.4172 -2.1425 -1.0070
 7155SOL    HW223398   3.582   4.587   1.962  2.4482  0.3554 -1.7053
 7156SOL     OW23399   7.539   8.157   8.837 -0.2836  0.1627  0.5215
 7156SOL    HW123400   7.626   8.190   8.814 -0.1632 -0.3647  0.2046
 7156SOL    HW223401   7.510   8.213   8.909  0.7742 -0.3146  1.3549
 7157SOL     OW23402   3.479   0.018   3.201 -0.6678  0.0608 -0.1462
 7157SOL    HW123403   3.424  -0.039   3.254 -1.9399  0.6788 -0.7480
 7157SOL    HW223404   3.507  -0.036   3.127 -0.2602 -0.3249  0.2881
 7158SOL     OW23405   3.873   3.428   0.724  0.0356  0.4672  0.1822
 7158SOL    HW123406   3.778   3.435   0.738  0.1480 -1.1287  2.3728
 7158SOL    HW223407   3.911   3.488   0.789  0.5153 -0.5809  0.9041
 7159SOL     OW23408   2.888   4.435   1.829  0.1312  0.9788  0.5561
 7159SOL    HW123409   2.981   4.413   1.840  0.3365  0.7725 -1.2286
 7159SOL    HW223410   2.888   4.516   1.780 -0.6563  1.3304  1.1135
 7160SOL     OW23411   7.942   4.492   0.926  0.3347 -0.0307  0.1107
 7160SOL    HW123412   7.856   4.503   0.968  0.1354  0.5936 -0.4360
 7160SOL    HW223413   7.930   4.529   0.838  0.3471 -2.5288 -1.0200
 7161SOL     OW23414   7.353   2.111   3.836  0.2376  0.0776 -0.0472
 7161SOL    HW123415   7.437   2.153   3.854  0.8460 -1.0063 -0.3035
 7161SOL    HW223416   7.335   2.058   3.913  0.4143 -0.6717 -0.5105
 7162SOL     OW23417   7.490   7.716   7.524  0.0529  0.1988  0.3353
 7162SOL    HW123418   7.538   7.675   7.452 -1.5634 -2.1547  0.4859
 7162SOL    HW223419   7.407   7.744   7.484  0.6304  2.3530  0.5210
 7163SOL     OW23420   3.755   5.594   4.321  0.3289  0.2576  0.0001
 7163SOL    HW123421   3.667   5.602   4.283  1.0110 -2.0209 -2.3354
 7163SOL    HW223422   3.806   5.661   4.278  0.3682 -0.2852 -0.8182
 7164SOL     OW23423   2.239   7.710   1.363 -0.6098  0.0337  0.1139
 7164SOL    HW123424   2.319   7.688   1.411 -1.8630 -1.7330  1.5269
 7164SOL    HW223425   2.267   7.719   1.272  1.1032 -1.1284  0.4791
 7165SOL     OW23426   3.888   6.925   1.354  0.0324  0.0575 -0.6798
 7165SOL    HW123427   3.820   6.991   1.368 -1.9917 -2.3030  1.3099
 7165SOL    HW223428   3.935   6.921   1.437 -0.4154 -1.5781 -0.4904
 7166SOL     OW23429   7.221   5.425   4.403  0.1461 -0.1969 -0.1756
 7166SOL    HW123430   7.256   5.442   4.315 -0.3580 -1.0717 -0.5558
 7166SOL    HW223431   7.298   5.431   4.460  0.4915  0.3239 -0.6808
 7167SOL     OW23432   6.944   8.683   6.640  1.0428 -0.2541 -0.2853
 7167SOL    HW123433   6.946   8.642   6.726 -1.6223  0.2881  0.1104
 7167SOL    HW223434   6.854   8.672   6.609  0.8273  3.0233 -1.2278
 7168SOL     OW23435   4.070   6.636   8.573  0.0146 -0.4198 -0.4381
 7168SOL    HW123436   4.015   6.559   8.589  0.8376 -0.7697  0.8859
 7168SOL    HW223437   4.151   6.618   8.620  1.1405  0.2615 -2.0368
 7169SOL     OW23438   3.035   8.324   5.000  0.0297  0.1345  0.0751
 7169SOL    HW123439   3.058   8.409   5.038  0.5938 -0.2765  0.6778
 7169SOL    HW223440   2.977   8.345   4.927 -1.2011  0.9506  1.2279
 7170SOL     OW23441   1.656   1.510   0.014 -0.0631  0.0073 -0.0489
 7170SOL    HW123442   1.606   1.436   0.048  0.7404 -0.8675 -0.6882
 7170SOL    HW223443   1.702   1.545   0.091  0.0829 -0.5990  0.1466
 7171SOL     OW23444   6.412   2.754   0.865 -0.5795  0.0513 -0.3678
 7171SOL    HW123445   6.345   2.718   0.922  1.0687 -3.4215 -0.3748
 7171SOL    HW223446   6.485   2.774   0.923  0.1039 -0.8394 -0.9020
 7172SOL     OW23447   0.393   2.306   6.329  0.2078  0.6835 -0.0305
 7172SOL    HW123448   0.437   2.288   6.246 -1.4867  0.1085 -0.8421
 7172SOL    HW223449   0.434   2.387   6.360  1.9752  0.0583 -0.6057
 7173SOL     OW23450   3.686   3.854   4.191  0.5399 -0.6559  0.0988
 7173SOL    HW123451   3.772   3.875   4.156  0.7567 -2.0510 -0.2835
 7173SOL    HW223452   3.630   3.847   4.114  0.1724 -0.1800  0.3158
 7174SOL     OW23453   6.456   7.637   7.054  0.5356  0.4509  0.4140
 7174SOL    HW123454   6.417   7.665   6.971  1.5292 -0.2559 -0.3142
 7174SOL    HW223455   6.400   7.676   7.121  0.0580  1.5391 -0.5785
 7175SOL     OW23456   2.882   1.866   6.646 -0.6987 -0.2710  0.3380
 7175SOL    HW123457   2.838   1.857   6.561  2.6281  2.6615 -1.9395
 7175SOL    HW223458   2.930   1.784   6.657 -1.0125 -0.6061 -0.7029
 7176SOL     OW23459   3.382   8.553   5.816 -0.1353  0.1288  0.0108
 7176SOL    HW123460   3.408   8.624   5.874  0.8659 -0.7282  0.6534
 7176SOL    HW223461   3.378   8.476   5.872  0.6826 -0.6931 -0.9971
 7177SOL     OW23462   8.034   2.184   8.321  0.0734  0.0502 -0.0825
 7177SOL    HW123463   7.959   2.176   8.380  1.7172 -0.5699  2.0685
 7177SOL    HW223464   8.034   2.276   8.294 -3.3930 -0.5893 -3.0606
 7178SOL     OW23465   1.819   6.866   1.444  0.0163  0.2741  0.3346
 7178SOL    HW123466   1.804   6.946   1.393 -0.3658  0.6477  1.0201
 7178SOL    HW223467   1.758   6.872   1.517  0.6361 -0.2019  0.9070
 7179SOL     OW23468   5.763   5.767   4.128  0.9994 -0.3799  0.5035
 7179SOL    HW123469   5.813   5.817   4.063 -1.9545 -1.0131 -2.5876
 7179SOL    HW223470   5.792   5.677   4.116 -0.2799 -0.6577 -0.8615
 7180SOL     OW23471   2.937   2.755   8.188 -0.0266 -0.0342 -0.2608
 7180SOL    HW123472   2.924   2.776   8.281  0.0074 -0.1845 -0.2208
 7180SOL    HW223473   3.024   2.714   8.185  0.5003  1.0576 -0.5395
 7181SOL     OW23474   5.544   3.775   7.298 -0.2785 -0.1381 -0.4551
 7181SOL    HW123475   5.485   3.725   7.241 -1.2039 -0.1216  0.4633
 7181SOL    HW223476   5.486   3.827   7.352  0.6235  0.4605 -0.0498
 7182SOL     OW23477   4.660   3.353   3.565  0.2123 -0.0191  0.4223
 7182SOL    HW123478   4.716   3.423   3.534  0.1982  0.0040  0.4490
 7182SOL    HW223479   4.718   3.298   3.618  0.2051  0.0157  0.4665
 7183SOL     OW23480   3.465   6.939   6.930 -1.0540 -0.6030  0.1878
 7183SOL    HW123481   3.464   6.901   6.842 -2.1556  0.2066 -0.1652
 7183SOL    HW223482   3.376   6.969   6.945 -0.6863  0.0304  1.2583
 7184SOL     OW23483   6.935   8.588   8.543 -0.2771  0.3240 -0.0053
 7184SOL    HW123484   7.003   8.533   8.503 -0.0550  0.0212  0.7642
 7184SOL    HW223485   6.949   8.674   8.505 -2.4795 -0.6555 -3.5232
 7185SOL     OW23486   7.385   5.909   2.798 -0.6653 -0.7524 -0.2496
 7185SOL    HW123487   7.329   5.923   2.721  0.2174 -0.3865 -0.8419
 7185SOL    HW223488   7.336   5.847   2.852 -1.5664 -0.5716 -0.8264
 7186SOL     OW23489   1.022   4.164   7.742 -0.1257 -0.8263  0.1394
 7186SOL    HW123490   0.994   4.093   7.685  1.1341 -0.7239 -0.6391
 7186SOL    HW223491   0.998   4.244   7.696  0.5938 -0.7449 -0.1069
 7187SOL     OW23492   3.707   4.812   6.603 -0.3943  0.0330 -0.8037
 7187SOL    HW123493   3.644   4.884   6.604 -0.6354 -0.1795 -0.0798
 7187SOL    HW223494   3.792   4.855   6.592 -0.6936  0.2828 -2.4551
 7188SOL     OW23495   0.097   7.679   0.717 -0.1032  0.2427  0.2605
 7188SOL    HW123496   0.077   7.668   0.624  1.4709 -0.7050  0.0109
 7188SOL    HW223497   0.190   7.699   0.720  0.0265 -0.4480  1.6702
 7189SOL     OW23498   1.961   1.879   4.801 -1.1619  0.1392 -0.2510
 7189SOL    HW123499   1.904   1.802   4.807  0.0601 -0.9529 -1.8844
 7189SOL    HW223500   1.957   1.905   4.709  3.1456 -1.8099 -1.2401
 7190SOL     OW23501   0.242   6.085   8.456  0.0643 -0.2612 -0.0834
 7190SOL    HW123502   0.208   6.015   8.511 -0.7611 -0.7151 -1.1363
 7190SOL    HW223503   0.337   6.080   8.466 -0.0621 -0.4442  1.1387
 7191SOL     OW23504   2.819   3.503   0.840 -0.2414  0.4058 -0.1661
 7191SOL    HW123505   2.878   3.548   0.900  1.0255 -0.2252 -0.8986
 7191SOL    HW223506   2.774   3.574   0.793 -0.6063  0.8932  0.8706
 7192SOL     OW23507   4.536   5.651   0.200  0.4437 -0.1940 -0.2760
 7192SOL    HW123508   4.501   5.619   0.117  0.3881 -0.1587 -0.2660
 7192SOL    HW223509   4.497   5.738   0.211  0.3809 -0.2345 -0.1695
 7193SOL     OW23510   5.505   4.260   4.879 -0.2671 -0.0810 -0.7305
 7193SOL    HW123511   5.438   4.216   4.827 -0.6732  0.5385 -0.7348
 7193SOL    HW223512   5.563   4.301   4.815  2.3976 -3.6749 -0.9881
 7194SOL     OW23513   8.057   0.694   1.812 -0.2606  0.4303 -0.1420
 7194SOL    HW123514   8.024   0.727   1.728 -1.5221  1.0977  0.5846
 7194SOL    HW223515   8.074   0.772   1.864 -0.9610  0.0000  0.7562
 7195SOL     OW23516   0.446   7.526   7.736  0.0910  0.3675 -0.0563
 7195SOL    HW123517   0.505   7.595   7.766  0.6213 -0.0636 -0.1040
 7195SOL    HW223518   0.488   7.445   7.763  0.2210 -0.0015 -1.3257
 7196SOL     OW23519   5.691   4.406   3.396  0.0046  0.4403 -0.0059
 7196SOL    HW123520   5.745   4.333   3.366 -0.3603 -0.0275  0.4421
 7196SOL    HW223521   5.708   4.412   3.490 -1.7007 -0.6056  0.4303
 7197SOL     OW23522   4.656   1.655   5.115  0.2514  0.1961  0.5623
 7197SOL    HW123523   4.614   1.611   5.189  0.1075  0.2947  0.5380
 7197SOL    HW223524   4.666   1.586   5.049  0.5074  0.0747  0.7260
 7198SOL     OW23525   0.725   6.297   6.266  0.7539 -0.4780  0.3884
 7198SOL    HW123526   0.721   6.363   6.335  1.5216  0.7026 -0.6487
 7198SOL    HW223527   0.807   6.250   6.282  2.0307  1.1929 -0.8783
 7199SOL     OW23528   3.776   4.321   6.046 -0.0380  0.1957 -0.4025
 7199SOL    HW123529   3.767   4.345   6.138  1.0512 -0.4833 -0.1007
 7199SOL    HW223530   3.727   4.239   6.038 -0.4828  0.4693 -0.5354
 7200SOL     OW23531   6.027   2.198   8.348 -0.3049  0.2597 -0.1290
 7200SOL    HW123532   6.006   2.248   8.427  1.6955 -0.0916  0.6800
 7200SOL    HW223533   6.107   2.239   8.315 -0.1994 -0.6576 -1.0455
 7201SOL     OW23534   0.541   3.796   4.052  0.4042 -0.2252  0.0153
 7201SOL    HW123535   0.498   3.734   3.993 -0.1833 -1.3244  1.5205
 7201SOL    HW223536   0.475   3.863   4.068  0.5608  0.0671 -0.5644
 7202SOL     OW23537   1.117   7.931   7.519 -0.2644  0.7814  0.3560
 7202SOL    HW123538   1.081   7.844   7.501 -1.4786  1.7587 -2.4544
 7202SOL    HW223539   1.059   7.967   7.586 -0.6348  0.0056  0.4691
 7203SOL     OW23540   5.246   4.487   8.233 -0.3170 -0.1415 -0.2020
 7203SOL    HW123541   5.247   4.509   8.326 -2.5818  1.2885 -0.4230
 7203SOL    HW223542   5.210   4.399   8.230 -0.0528 -0.2700  0.2820
 7204SOL     OW23543   2.586   0.169   5.644 -0.0893 -0.1257 -0.1080
 7204SOL    HW123544   2.677   0.188   5.670 -0.9443  2.2393  1.5679
 7204SOL    HW223545   2.557   0.104   5.707  0.4509 -1.0168 -0.7514
 7205SOL     OW23546   8.004   4.307   5.449  0.2583 -0.6003  0.2954
 7205SOL    HW123547   8.056   4.361   5.508  0.0859 -0.0837 -0.0124
 7205SOL    HW223548   7.913   4.324   5.475  0.1706 -0.2236 -0.2300
 7206SOL     OW23549   1.597   1.596   2.613  0.2178  0.1536 -0.1526
 7206SOL    HW123550   1.527   1.536   2.590  0.1525 -0.7339  2.0710
 7206SOL    HW223551   1.553   1.674   2.645  0.2574  0.0993  0.0358
 7207SOL     OW23552   3.289   4.391   3.695  0.2920 -0.5836 -0.1428
 7207SOL    HW123553   3.365   4.431   3.737 -1.0579 -0.1598  2.0754
 7207SOL    HW223554   3.234   4.466   3.671 -0.5337 -0.9426  0.5717
 7208SOL     OW23555   7.996   6.292   3.164  0.0598 -0.5163 -0.1379
 7208SOL    HW123556   7.966   6.281   3.074  1.6711 -1.1234 -0.6275
 7208SOL    HW223557   7.916   6.290   3.217 -0.8254 -1.0442 -1.4661
 7209SOL     OW23558   2.374   0.402   6.712 -0.1767  0.3260 -0.2847
 7209SOL    HW123559   2.330   0.380   6.794  1.0760 -2.1398 -0.1917
 7209SOL    HW223560   2.330   0.349   6.645  0.9290 -0.2452 -0.6016
 7210SOL     OW23561   2.894   8.253   4.502  0.1961 -0.7634 -0.2423
 7210SOL    HW123562   2.801   8.277   4.499  0.2464 -0.5915 -0.5039
 7210SOL    HW223563   2.895   8.161   4.528 -0.0175 -0.5501  0.5376
 7211SOL     OW23564   5.448   0.938   1.028 -0.3113 -0.1519  0.1897
 7211SOL    HW123565   5.388   0.864   1.018  0.7884 -0.8582 -1.8680
 7211SOL    HW223566   5.394   1.008   1.063 -1.1329 -2.2123  3.4971
 7212SOL     OW23567   1.293   0.283   0.729  0.4052  0.5486  0.5863
 7212SOL    HW123568   1.207   0.285   0.772  0.1903 -1.1778  0.3221
 7212SOL    HW223569   1.355   0.305   0.798 -0.2149  1.6952  0.8122
 7213SOL     OW23570   1.898   2.717   4.119 -0.0532 -0.5990 -0.3223
 7213SOL    HW123571   1.826   2.766   4.158 -0.6722 -1.6592 -0.1168
 7213SOL    HW223572   1.971   2.780   4.117 -0.7321  0.2254  0.2303
 7214SOL     OW23573   5.069   1.518   4.585  0.1579  0.5670  0.2153
 7214SOL    HW123574   5.067   1.481   4.497 -0.4720  2.0290 -0.4298
 7214SOL    HW223575   5.111   1.604   4.575  0.1481  0.7288  1.3517
 7215SOL     OW23576   1.166   2.294   2.436  0.0585 -0.0893 -0.1816
 7215SOL    HW123577   1.158   2.200   2.417 -0.8254 -0.5428  2.1558
 7215SOL    HW223578   1.260   2.311   2.432  0.1701 -0.8453 -1.5182
 7216SOL     OW23579   1.409   1.142   6.942  0.1667  0.0671  0.5725
 7216SOL    HW123580   1.482   1.115   6.886 -0.3754 -0.8517  0.2898
 7216SOL    HW223581   1.359   1.204   6.889  0.5633  0.4777  0.6629
 7217SOL     OW23582   4.812   0.791   4.326 -0.4065  0.3781  0.1864
 7217SOL    HW123583   4.793   0.774   4.418 -0.8394 -0.2168 -0.0089
 7217SOL    HW223584   4.869   0.719   4.300  0.7702  1.2278  0.3139
 7218SOL     OW23585   5.473   1.477   0.354 -0.0616  0.0441  0.0850
 7218SOL    HW123586   5.439   1.481   0.265  0.8224  0.0547 -0.2671
 7218SOL    HW223587   5.405   1.518   0.408 -0.5065  0.2422 -0.6107
 7219SOL     OW23588   3.762   5.803   8.361  0.1411  0.1245  0.8015
 7219SOL    HW123589   3.793   5.847   8.281 -0.4773 -1.0165 -0.0914
 7219SOL    HW223590   3.821   5.834   8.429 -0.1548  2.1839  0.1805
 7220SOL     OW23591   4.779   3.882   8.151  0.3550 -0.0712  0.2347
 7220SOL    HW123592   4.762   3.794   8.116 -0.7715  0.4878 -0.7100
 7220SOL    HW223593   4.755   3.875   8.244 -2.6847 -0.0563 -0.4450
 7221SOL     OW23594   1.780   1.432   2.518 -0.6417 -0.1439  0.8654
 7221SOL    HW123595   1.840   1.400   2.585  1.1350 -1.6852 -1.3349
 7221SOL    HW223596   1.724   1.495   2.565  0.2206 -1.3993  3.8415
 7222SOL     OW23597   7.071   3.864   8.825  0.3654 -0.3151  0.0460
 7222SOL    HW123598   7.041   3.778   8.856  1.4838 -0.5393  0.5788
 7222SOL    HW223599   7.021   3.880   8.745 -1.1334 -0.6523  0.8842
 7223SOL     OW23600   2.937   8.423   2.943  0.1178  0.1360 -0.5886
 7223SOL    HW123601   2.850   8.397   2.912  0.6776 -2.7085 -0.0979
 7223SOL    HW223602   2.990   8.429   2.864 -0.0637 -0.2295 -0.7415
 7224SOL     OW23603   1.084   4.520   4.239  0.4095 -0.2500 -0.0189
 7224SOL    HW123604   1.012   4.583   4.250  1.9913  1.8830 -1.0268
 7224SOL    HW223605   1.143   4.538   4.311  0.8789 -0.5885 -0.3129
 7225SOL     OW23606   2.303   4.958   1.815 -0.4842 -0.5868  0.1182
 7225SOL    HW123607   2.299   5.027   1.749 -2.8928 -1.3674 -0.6675
 7225SOL    HW223608   2.254   4.992   1.889 -0.0243 -0.7240  0.4891
 7226SOL     OW23609   7.253   1.956   6.874 -0.1368 -0.8875  0.3571
 7226SOL    HW123610   7.171   1.959   6.922  0.6104 -1.4266  1.7146
 7226SOL    HW223611   7.321   1.963   6.941  0.9668 -2.5303 -0.5224
 7227SOL     OW23612   4.535   3.362   4.495 -0.5183  0.0527  0.0090
 7227SOL    HW123613   4.512   3.428   4.561  0.3610 -0.1011  0.4817
 7227SOL    HW223614   4.489   3.391   4.416  0.5418  1.7558 -0.0490
 7228SOL     OW23615   4.015   3.598   7.946 -0.0983  0.1320  0.1950
 7228SOL    HW123616   4.063   3.664   7.997 -0.3197  0.8934 -0.5609
 7228SOL    HW223617   4.075   3.524   7.939 -0.3422 -0.3235  2.2193
 7229SOL     OW23618   2.832   1.852   7.500  0.7450 -0.0875  0.5500
 7229SOL    HW123619   2.788   1.923   7.546  1.5907  0.5561  0.3795
 7229SOL    HW223620   2.855   1.889   7.415  2.4418 -0.0866  0.9676
 7230SOL     OW23621   3.244   0.166   1.780 -0.1367  0.1893 -0.6812
 7230SOL    HW123622   3.303   0.237   1.805 -0.1627  0.5109 -1.4948
 7230SOL    HW223623   3.165   0.211   1.751  0.7479  0.0230 -3.6988
 7231SOL     OW23624   7.708   6.233   1.413  0.7584 -0.2876 -0.2163
 7231SOL    HW123625   7.746   6.295   1.475  0.6018 -1.8695  1.5336
 7231SOL    HW223626   7.764   6.156   1.417  0.0826 -0.8606 -1.1776
 7232SOL     OW23627   8.781   3.739   3.841 -0.1297  0.6298  0.1214
 7232SOL    HW123628   8.867   3.757   3.804  0.5131 -1.2883  0.5599
 7232SOL    HW223629   8.722   3.739   3.766  1.1120 -3.0105 -1.0874
 7233SOL     OW23630   1.712   5.110   8.635 -0.5611 -0.8360 -0.0513
 7233SOL    HW123631   1.677   5.071   8.555 -1.8382  1.0201 -0.4642
 7233SOL    HW223632   1.722   5.202   8.615 -4.3156  0.5033  2.8338
 7234SOL     OW23633   2.816   4.846   4.198  0.4975 -0.4382 -0.0645
 7234SOL    HW123634   2.887   4.911   4.198 -0.3242  0.5233 -1.2586
 7234SOL    HW223635   2.838   4.786   4.127  0.8223 -0.9713  0.4827
 7235SOL     OW23636   1.563   6.318   2.447 -0.4547  0.4635 -0.4174
 7235SOL    HW123637   1.640   6.367   2.419  0.4573 -1.0862 -0.7218
 7235SOL    HW223638   1.582   6.293   2.537 -1.1905  1.1743 -0.0529
 7236SOL     OW23639   5.696   1.258   4.421  0.1615 -0.1538  0.3708
 7236SOL    HW123640   5.726   1.260   4.511  2.4300  2.1265 -0.3239
 7236SOL    HW223641   5.747   1.188   4.380 -1.9908 -2.2947  1.0624
 7237SOL     OW23642   6.583   5.339   0.430  0.7157 -0.5930 -0.4237
 7237SOL    HW123643   6.649   5.408   0.434  0.2280 -0.0483 -1.5948
 7237SOL    HW223644   6.552   5.340   0.340 -1.1832 -0.5747  0.1906
 7238SOL     OW23645   1.505   0.804   0.363 -0.5925  0.2651 -0.3611
 7238SOL    HW123646   1.495   0.756   0.445  1.7613 -0.5792 -0.4906
 7238SOL    HW223647   1.547   0.886   0.388 -1.1664  0.6269 -0.5696
 7239SOL     OW23648   1.515   3.368   2.758 -0.0403  0.2595 -0.5503
 7239SOL    HW123649   1.465   3.297   2.797  0.1548  1.1017  1.3304
 7239SOL    HW223650   1.456   3.444   2.763 -0.6958  0.0778 -3.5637
 7240SOL     OW23651   5.865   1.624   6.518 -0.2072 -0.1549  0.1500
 7240SOL    HW123652   5.782   1.650   6.557 -1.4803  1.6096 -3.3577
 7240SOL    HW223653   5.854   1.532   6.497 -1.2791  0.0474 -0.2328
 7241SOL     OW23654   4.359   4.689   6.569 -0.1185  0.2861 -0.0232
 7241SOL    HW123655   4.372   4.684   6.664 -1.3943  2.6278  0.3417
 7241SOL    HW223656   4.430   4.746   6.538 -0.2930  0.3315 -0.3383
 7242SOL     OW23657   7.538   3.838   0.428 -0.5457  0.2460 -0.2648
 7242SOL    HW123658   7.622   3.879   0.408 -1.1334  2.2199  1.0630
 7242SOL    HW223659   7.558   3.773   0.495  0.2636 -1.1332 -1.7788
 7243SOL     OW23660   4.644   6.547   6.024 -0.1098 -0.0253 -0.2761
 7243SOL    HW123661   4.731   6.548   5.984  0.5934 -0.0312  1.1894
 7243SOL    HW223662   4.601   6.626   5.990  1.0414  0.8250  0.1640
 7244SOL     OW23663   0.503   3.612   8.661 -0.1534  0.2287 -0.3275
 7244SOL    HW123664   0.597   3.616   8.650 -0.0104  1.1302  1.0044
 7244SOL    HW223665   0.473   3.703   8.658 -0.8858  0.0118 -0.0281
 7245SOL     OW23666   1.372   0.986   5.461  0.3333 -0.0563 -0.1009
 7245SOL    HW123667   1.387   1.080   5.469 -0.1606 -0.0454  0.8519
 7245SOL    HW223668   1.385   0.952   5.549 -0.6041 -0.7153 -0.1993
 7246SOL     OW23669   4.100   6.567   4.279  0.0539 -0.8263 -0.2361
 7246SOL    HW123670   4.140   6.645   4.240  0.5947 -0.9397  0.0772
 7246SOL    HW223671   4.145   6.556   4.362 -1.4894 -0.2543  0.7148
 7247SOL     OW23672   1.043   6.041   4.283 -0.1360 -0.0063 -0.4336
 7247SOL    HW123673   1.068   6.097   4.357  1.8188  1.8485 -2.3569
 7247SOL    HW223674   0.953   6.067   4.263 -0.0567  0.7754  0.1514
 7248SOL     OW23675   8.750   7.200   3.490 -0.5019  0.3972  0.4273
 7248SOL    HW123676   8.784   7.240   3.410 -0.1480 -1.2033 -0.2642
 7248SOL    HW223677   8.655   7.204   3.481 -0.4820 -0.8528 -0.6919
 7249SOL     OW23678   2.351   5.672   3.087  0.4264 -0.3391  0.1844
 7249SOL    HW123679   2.283   5.694   3.023 -0.1692 -0.6321  0.7026
 7249SOL    HW223680   2.401   5.601   3.047  0.2881 -0.2665 -0.1135
 7250SOL     OW23681   7.404   8.106   8.587  0.1785 -0.2722  0.7188
 7250SOL    HW123682   7.476   8.096   8.650 -0.0439  1.7743  1.3471
 7250SOL    HW223683   7.376   8.197   8.597 -0.9805 -0.3898 -1.1723
 7251SOL     OW23684   1.256   2.845   1.665 -0.6273 -0.2337 -0.2633
 7251SOL    HW123685   1.208   2.787   1.724 -1.1823 -2.1303 -2.4346
 7251SOL    HW223686   1.340   2.859   1.709 -1.1279 -1.3180  1.1126
 7252SOL     OW23687   0.474   2.808   2.777 -0.5133 -0.5129 -0.5161
 7252SOL    HW123688   0.514   2.847   2.700 -1.2571  1.3245 -0.0251
 7252SOL    HW223689   0.540   2.747   2.810  1.4902  1.6115 -0.3446
 7253SOL     OW23690   2.000   0.319   7.665  0.1506 -0.4372  0.0452
 7253SOL    HW123691   2.011   0.405   7.706  1.2548 -0.6282  0.1915
 7253SOL    HW223692   1.970   0.262   7.736  0.5501 -0.4239  0.2277
 7254SOL     OW23693   2.801   1.033   6.953  0.2043  0.4294 -0.3061
 7254SOL    HW123694   2.885   1.065   6.919 -0.4550  1.2591 -1.1961
 7254SOL    HW223695   2.774   0.966   6.891 -0.8001  1.6568 -1.2505
 7255SOL     OW23696   4.302   8.842   3.255 -0.6787  0.3279 -0.0175
 7255SOL    HW123697   4.324   8.768   3.312 -0.2067  1.1010  0.8187
 7255SOL    HW223698   4.289   8.802   3.169  1.4193 -0.5268 -0.0015
 7256SOL     OW23699   3.285   4.399   6.482  0.0283  0.5842 -0.6872
 7256SOL    HW123700   3.315   4.472   6.537  0.4508  1.1747 -1.6712
 7256SOL    HW223701   3.197   4.379   6.515  0.3249  0.8213  0.2911
 7257SOL     OW23702   3.655   0.663   7.726  0.3114  0.1747 -0.0036
 7257SOL    HW123703   3.724   0.654   7.660  0.8030  0.4589  0.4696
 7257SOL    HW223704   3.577   0.628   7.683  0.2958  1.6513 -1.2830
 7258SOL     OW23705   0.590   8.755   1.232  0.3619  0.4922 -0.1129
 7258SOL    HW123706   0.650   8.716   1.295  1.5234  0.3987 -1.2259
 7258SOL    HW223707   0.510   8.772   1.282  0.4276 -1.6404  0.8409
 7259SOL     OW23708   6.378   4.577   3.297  0.0591  0.3590 -0.2177
 7259SOL    HW123709   6.443   4.584   3.366  0.3358  1.5487 -0.5807
 7259SOL    HW223710   6.388   4.657   3.246 -0.6036 -0.1786 -1.2314
 7260SOL     OW23711   3.725   1.102   0.503 -0.2785 -1.3036 -0.4149
 7260SOL    HW123712   3.802   1.056   0.537  0.5427 -0.1238 -0.6153
 7260SOL    HW223713   3.667   1.110   0.579  0.1687 -1.4382 -0.0520
 7261SOL     OW23714   5.274   8.255   5.605  0.3355 -0.9371 -0.0627
 7261SOL    HW123715   5.212   8.256   5.678  0.7865  1.9675  0.4060
 7261SOL    HW223716   5.219   8.237   5.528 -0.3960 -2.4473  0.7708
 7262SOL     OW23717   6.363   5.045   4.009  0.0842  0.3688 -0.0819
 7262SOL    HW123718   6.352   5.077   4.099  0.4233  0.9594 -0.2413
 7262SOL    HW223719   6.284   5.074   3.964 -0.7994 -1.2256  0.3659
 7263SOL     OW23720   3.186   8.396   4.053  0.2818 -0.6034  0.5207
 7263SOL    HW123721   3.162   8.371   4.143 -0.2594 -0.0546  0.5369
 7263SOL    HW223722   3.277   8.370   4.045  0.0413 -1.6244  0.8801
 7264SOL     OW23723   5.389   8.869   0.191  0.0156 -0.4133  0.4317
 7264SOL    HW123724   5.438   8.805   0.241 -2.1017 -0.2722  2.8692
 7264SOL    HW223725   5.436   8.952   0.205  0.2940 -0.6526  0.9203
 7265SOL     OW23726   6.352   7.185   5.613 -0.1287  0.2834 -0.2570
 7265SOL    HW123727   6.400   7.168   5.532  0.1837 -1.5479  0.2838
 7265SOL    HW223728   6.417   7.223   5.672 -0.3646  1.6524 -0.8281
 7266SOL     OW23729   0.284   6.110   1.343  0.5557  0.3129 -0.3469
 7266SOL    HW123730   0.301   6.204   1.350 -0.5200  0.6591 -1.7353
 7266SOL    HW223731   0.289   6.077   1.433 -0.7679  2.0262  0.4133
 7267SOL     OW23732   3.470   2.803   5.122 -0.1681 -0.7749  0.1789
 7267SOL    HW123733   3.408   2.875   5.111 -0.3214 -1.0940 -1.1347
 7267SOL    HW223734   3.534   2.836   5.185  0.1651  0.7815 -0.9290
 7268SOL     OW23735   6.522   6.813   3.936 -0.9010 -0.4356  0.1790
 7268SOL    HW123736   6.557   6.871   4.004  1.5675 -1.7286  0.1288
 7268SOL    HW223737   6.572   6.835   3.858 -1.9877 -0.6713 -0.6064
 7269SOL     OW23738   2.269   0.566   3.935 -0.0470  0.3047  0.3533
 7269SOL    HW123739   2.297   0.475   3.933 -0.4948  0.1808 -1.0328
 7269SOL    HW223740   2.194   0.567   3.995 -1.9316 -0.8420 -1.8416
 7270SOL     OW23741   1.771   1.063   2.084 -0.5227  0.3360 -0.2600
 7270SOL    HW123742   1.855   1.042   2.043 -1.3749 -0.9768 -1.4477
 7270SOL    HW223743   1.727   1.120   2.021 -1.7163 -1.4425 -1.1047
 7271SOL     OW23744   0.595   1.886   8.194  0.2549 -0.1660  0.3126
 7271SOL    HW123745   0.598   1.864   8.287  0.6029 -0.4877  0.2254
 7271SOL    HW223746   0.503   1.906   8.177  0.0559 -0.8763  0.5474
 7272SOL     OW23747   8.287   4.331   8.739  0.5985  0.0741  0.1093
 7272SOL    HW123748   8.336   4.260   8.780  1.0545  1.1085  1.4076
 7272SOL    HW223749   8.315   4.410   8.785  0.4202  1.1787 -1.5675
 7273SOL     OW23750   6.342   1.058   5.181 -0.0477  0.2562  0.1181
 7273SOL    HW123751   6.410   1.117   5.212  0.2480  0.0191 -0.0795
 7273SOL    HW223752   6.368   1.036   5.091 -0.2941  0.0298  0.1003
 7274SOL     OW23753   8.625   4.085   3.425 -0.1140  0.4525  0.3419
 7274SOL    HW123754   8.584   4.146   3.364 -0.5999  0.0883  0.3010
 7274SOL    HW223755   8.587   4.106   3.510  0.5730  0.9684  0.5298
 7275SOL     OW23756   4.193   6.638   5.187  0.1432  0.0378 -0.1294
 7275SOL    HW123757   4.103   6.610   5.199  0.0743  0.9060  1.6798
 7275SOL    HW223758   4.244   6.581   5.244  0.4245  1.1439  0.7506
 7276SOL     OW23759   7.425   0.120   4.287  0.3650 -0.4178 -0.4204
 7276SOL    HW123760   7.456   0.087   4.203 -2.0888  2.8155 -2.8558
 7276SOL    HW223761   7.352   0.063   4.310  0.3150 -0.6382 -1.1087
 7277SOL     OW23762   5.037   4.971   7.906  0.2230  0.0178  0.3934
 7277SOL    HW123763   5.070   5.022   7.832 -1.4333  1.3072  0.4833
 7277SOL    HW223764   5.091   4.892   7.906  1.8905  1.0813 -0.6703
 7278SOL     OW23765   8.205   7.846   7.169  0.5860 -0.4387  0.2699
 7278SOL    HW123766   8.250   7.842   7.254  2.0654 -0.2323 -0.4799
 7278SOL    HW223767   8.120   7.805   7.185  0.2237  0.9295  2.2288
 7279SOL     OW23768   0.096   1.887   4.438  0.5754 -0.4913 -0.3759
 7279SOL    HW123769   0.128   1.961   4.490  0.1071 -0.8747  0.4658
 7279SOL    HW223770   0.171   1.863   4.383  1.1839 -0.2837  0.3401
 7280SOL     OW23771   3.600   6.220   7.075 -0.6618 -0.3307 -0.0109
 7280SOL    HW123772   3.681   6.271   7.084  0.6841 -2.4977  0.6969
 7280SOL    HW223773   3.573   6.201   7.164 -1.8231  0.1222 -0.2476
 7281SOL     OW23774   0.664   0.892   0.952 -0.0996 -0.6175  0.0174
 7281SOL    HW123775   0.726   0.904   1.024 -1.2092 -1.7789  1.2007
 7281SOL    HW223776   0.638   0.800   0.957 -2.8165  0.0861  0.3021
 7282SOL     OW23777   3.380   8.831   6.339  0.1563  0.3164 -0.2008
 7282SOL    HW123778   3.334   8.907   6.374  2.3275  1.5951  0.0162
 7282SOL    HW223779   3.409   8.783   6.417 -0.4823 -0.3128 -0.3363
 7283SOL     OW23780   8.658   0.896   3.531 -0.0829  0.0125 -0.0290
 7283SOL    HW123781   8.668   0.817   3.479 -0.3732 -0.3364  0.4356
 7283SOL    HW223782   8.731   0.893   3.593 -0.0250  0.1749 -0.0879
 7284SOL     OW23783   5.664   4.615   8.435  0.3590 -0.6837 -0.3491
 7284SOL    HW123784   5.687   4.703   8.405  0.2691 -0.6563 -0.3388
 7284SOL    HW223785   5.701   4.557   8.369 -0.9488 -0.5696 -1.2326
 7285SOL     OW23786   8.157   5.999   2.187  0.5624  0.2885  0.1362
 7285SOL    HW123787   8.211   6.023   2.112 -0.6420  0.2650 -0.7676
 7285SOL    HW223788   8.206   6.030   2.263  1.6877  0.5384 -0.6633
 7286SOL     OW23789   8.292   6.905   8.454  0.0639 -0.3336 -0.1019
 7286SOL    HW123790   8.233   6.935   8.384 -2.2195 -1.7787  1.1020
 7286SOL    HW223791   8.337   6.829   8.417  0.5144  0.2199 -0.7145
 7287SOL     OW23792   0.036   7.895   4.263  0.0565  0.1096 -0.1906
 7287SOL    HW123793   0.009   7.987   4.262 -2.3303 -0.4555 -2.8056
 7287SOL    HW223794   0.123   7.894   4.224 -0.6868  1.1680 -1.9880
 7288SOL     OW23795   0.298   7.434   5.639 -0.2739  0.6179  0.3082
 7288SOL    HW123796   0.339   7.412   5.555  0.0874  0.1723  0.5955
 7288SOL    HW223797   0.290   7.529   5.637  1.8617  0.8692  0.7184
 7289SOL     OW23798   7.626   4.477   0.909 -0.0168 -0.7529 -0.3923
 7289SOL    HW123799   7.555   4.455   0.969  1.7156 -1.4196  1.5223
 7289SOL    HW223800   7.656   4.563   0.938  0.9200 -1.1385 -0.1766
 7290SOL     OW23801   0.222   7.471   7.895  0.5224  0.5070 -0.2945
 7290SOL    HW123802   0.131   7.497   7.890  0.1395 -0.9822 -2.2519
 7290SOL    HW223803   0.259   7.494   7.810  1.6102 -0.0961 -0.0121
 7291SOL     OW23804   6.984   6.012   8.510 -0.4760 -0.1955  0.2231
 7291SOL    HW123805   7.015   6.092   8.553 -0.4383 -0.2190  0.2400
 7291SOL    HW223806   7.060   5.981   8.461 -0.0583 -0.9778  1.3214
 7292SOL     OW23807   0.997   1.416   5.017  0.0546  0.2632  0.3614
 7292SOL    HW123808   0.973   1.420   5.109 -2.9462 -0.0078 -0.2969
 7292SOL    HW223809   1.015   1.324   5.001  2.1258  0.5172  0.9417
 7293SOL     OW23810   1.583   1.818   4.975 -0.2141  0.4066 -0.7198
 7293SOL    HW123811   1.594   1.760   5.050 -2.1286  1.1913  0.2260
 7293SOL    HW223812   1.641   1.781   4.907 -0.3244 -1.7524  0.2876
 7294SOL     OW23813   6.081   4.950   1.421  0.4320 -0.2008  0.2188
 7294SOL    HW123814   6.021   4.995   1.481  0.0672  0.5153 -0.6520
 7294SOL    HW223815   6.151   4.917   1.477 -1.4373 -2.2802  1.4773
 7295SOL     OW23816   2.239   4.883   4.280 -0.1469 -0.0849 -0.4429
 7295SOL    HW123817   2.318   4.837   4.309 -0.7926 -1.1383 -0.3229
 7295SOL    HW223818   2.239   4.873   4.184 -0.4818 -0.6854 -0.3877
 7296SOL     OW23819   8.319   8.330   1.407  0.0716  1.0636 -0.2969
 7296SOL    HW123820   8.397   8.276   1.406 -0.4212  0.3503 -0.6476
 7296SOL    HW223821   8.280   8.318   1.320 -1.9677 -0.8818  0.7927
 7297SOL     OW23822   1.439   0.168   3.795  0.3029  0.1788 -0.1852
 7297SOL    HW123823   1.437   0.262   3.778  0.2503  0.7194  2.4031
 7297SOL    HW223824   1.531   0.147   3.808  0.3204 -0.1574 -0.8127
 7298SOL     OW23825   1.573   0.632   4.952 -0.5350  0.0134  0.8376
 7298SOL    HW123826   1.525   0.574   4.893  0.6318 -0.1191 -0.0159
 7298SOL    HW223827   1.580   0.582   5.033  1.3126 -1.5377 -0.1788
 7299SOL     OW23828   2.244   4.236   1.123 -0.0422 -0.3029  0.0606
 7299SOL    HW123829   2.209   4.149   1.143 -0.3856 -0.4183 -0.9908
 7299SOL    HW223830   2.333   4.220   1.092 -0.3538 -0.3502 -0.8211
 7300SOL     OW23831   2.985   6.916   2.069  0.2161 -0.2649 -0.1998
 7300SOL    HW123832   3.012   7.000   2.106  0.2047  0.2161 -1.2458
 7300SOL    HW223833   3.049   6.854   2.102  0.6016  0.2660  0.0775
 7301SOL     OW23834   2.466   3.359   5.798  0.5289  0.2225  0.3444
 7301SOL    HW123835   2.415   3.426   5.844 -2.9318 -2.2009  0.4571
 7301SOL    HW223836   2.522   3.321   5.866 -0.2851  0.5219  1.2032
 7302SOL     OW23837   5.644   6.711   8.085 -0.7198 -0.1864  0.4050
 7302SOL    HW123838   5.600   6.787   8.046  0.5137 -1.3492 -3.8095
 7302SOL    HW223839   5.590   6.689   8.160 -1.8611  3.9936  1.0857
 7303SOL     OW23840   2.485   2.924   8.054 -0.5522 -0.1972  0.4260
 7303SOL    HW123841   2.542   2.998   8.073 -2.6898  1.3425  1.3868
 7303SOL    HW223842   2.419   2.960   7.994  0.4272 -2.3948 -2.1549
 7304SOL     OW23843   5.244   7.255   0.716 -0.0711  0.5802 -0.7071
 7304SOL    HW123844   5.236   7.161   0.697 -0.8730 -0.0250  2.0474
 7304SOL    HW223845   5.171   7.295   0.668  0.0325 -0.2586 -1.5963
 7305SOL     OW23846   4.766   7.524   1.068 -0.0167  0.2868  0.7670
 7305SOL    HW123847   4.753   7.575   1.147 -1.1876 -0.5542  1.1382
 7305SOL    HW223848   4.852   7.484   1.080 -0.0291  0.4556  1.4434
 7306SOL     OW23849   7.766   8.729   3.151  0.3288 -0.2085  0.6541
 7306SOL    HW123850   7.820   8.663   3.107  0.5942  0.2813  0.2405
 7306SOL    HW223851   7.829   8.787   3.193  0.3877  2.4758 -2.7378
 7307SOL     OW23852   8.078   5.632   8.770 -0.0275  0.6152  0.0048
 7307SOL    HW123853   8.115   5.552   8.734 -0.7188 -0.1563  0.9715
 7307SOL    HW223854   8.151   5.672   8.818 -0.3414 -0.8526  1.8292
 7308SOL     OW23855   4.335   7.696   7.820 -0.7701  0.4292 -0.2842
 7308SOL    HW123856   4.378   7.702   7.905 -0.8398  1.5883 -0.3093
 7308SOL    HW223857   4.318   7.603   7.808  0.6572  0.0734  0.2513
 7309SOL     OW23858   2.031   8.584   5.424  0.1097 -0.2153 -0.1957
 7309SOL    HW123859   2.042   8.642   5.349  1.6872  1.5382  1.3062
 7309SOL    HW223860   1.953   8.617   5.469  0.7705  0.5331  0.4317
 7310SOL     OW23861   7.899   5.419   4.960 -0.0961  0.5744  0.4381
 7310SOL    HW123862   7.809   5.440   4.936 -0.6840 -1.3377  0.8050
 7310SOL    HW223863   7.937   5.381   4.880  0.3424  1.1959  0.3417
 7311SOL     OW23864   1.814   0.087   0.847 -0.4068 -0.0569  0.2805
 7311SOL    HW123865   1.902   0.096   0.812 -0.6053 -0.9688 -0.5022
 7311SOL    HW223866   1.756   0.115   0.776 -0.8293 -2.3545 -0.3775
 7312SOL     OW23867   6.865   3.520   2.485  0.1516  0.0306 -0.1192
 7312SOL    HW123868   6.861   3.558   2.573  0.3616 -0.4037  0.0763
 7312SOL    HW223869   6.786   3.553   2.441 -1.0273 -1.3582  0.8719
 7313SOL     OW23870   2.529   1.271   5.650 -0.9087  0.0795  0.2699
 7313SOL    HW123871   2.561   1.182   5.637  0.3739  0.1047  2.7582
 7313SOL    HW223872   2.565   1.320   5.576 -0.5531 -1.2041 -0.4363
 7314SOL     OW23873   5.347   5.602   8.185  0.0528 -0.5658 -0.0266
 7314SOL    HW123874   5.344   5.551   8.104  1.8691  0.9238 -1.1305
 7314SOL    HW223875   5.347   5.693   8.155  1.2639  0.0127  1.6097
 7315SOL     OW23876   7.781   4.759   1.635 -0.2775 -0.0841  0.0521
 7315SOL    HW123877   7.869   4.789   1.657 -0.6868  1.3319 -0.1434
 7315SOL    HW223878   7.774   4.774   1.541 -0.5367 -0.7400 -0.0400
 7316SOL     OW23879   1.126   5.793   3.707 -0.1410  0.0215  0.0426
 7316SOL    HW123880   1.088   5.848   3.775  0.1817 -1.2832  1.3203
 7316SOL    HW223881   1.075   5.813   3.628 -1.0780  0.9406  0.8633
 7317SOL     OW23882   6.440   5.307   1.951 -0.0980  0.3845 -0.1586
 7317SOL    HW123883   6.357   5.280   1.913  0.6739 -0.8806 -1.0267
 7317SOL    HW223884   6.432   5.401   1.964 -2.1658  0.1054  1.0663
 7318SOL     OW23885   2.803   7.144   8.779  0.2052 -1.0505 -0.1524
 7318SOL    HW123886   2.766   7.060   8.750  0.1536 -1.2322  0.4315
 7318SOL    HW223887   2.774   7.153   8.870  0.0427 -0.3042 -0.2695
 7319SOL     OW23888   3.419   1.798   6.759  1.2308  0.7514  0.3293
 7319SOL    HW123889   3.434   1.860   6.831  2.3275  1.1279 -0.2077
 7319SOL    HW223890   3.338   1.829   6.718 -1.3366 -1.3494  3.3146
 7320SOL     OW23891   4.384   8.452   3.065  0.1642 -0.6068 -0.0340
 7320SOL    HW123892   4.456   8.391   3.081  1.4595  0.6955 -0.6750
 7320SOL    HW223893   4.417   8.536   3.096 -1.4224 -0.1292  0.4450
 7321SOL     OW23894   7.455   5.457   4.538  0.8815  0.3781 -0.0401
 7321SOL    HW123895   7.496   5.478   4.623  0.2547 -0.3012  0.4407
 7321SOL    HW223896   7.526   5.418   4.487  0.6382 -1.8792  1.1916
 7322SOL     OW23897   7.747   2.316   4.781 -0.7004  0.0132  0.4254
 7322SOL    HW123898   7.754   2.339   4.688 -0.6287  1.2821  0.7236
 7322SOL    HW223899   7.657   2.336   4.804 -0.7452 -0.3923  0.6062
 7323SOL     OW23900   1.337   2.299   2.808 -0.1059  0.1319  0.6836
 7323SOL    HW123901   1.415   2.333   2.852 -0.0821  0.5481  0.3301
 7323SOL    HW223902   1.301   2.374   2.761  0.0977 -0.3678 -0.3219
 7324SOL     OW23903   5.439   0.706   6.230 -0.0646 -0.3268  0.2518
 7324SOL    HW123904   5.370   0.641   6.217 -0.9154  0.8085 -1.1529
 7324SOL    HW223905   5.490   0.704   6.148  1.7012 -1.2428  1.3048
 7325SOL     OW23906   7.980   1.965   0.974  0.2895  0.8706 -0.4062
 7325SOL    HW123907   7.928   1.996   0.900 -2.4452 -2.1306  0.0420
 7325SOL    HW223908   7.932   1.994   1.051 -0.6079 -1.5779  0.0274
 7326SOL     OW23909   3.865   7.629   8.294  0.4229 -0.2918  0.1783
 7326SOL    HW123910   3.794   7.588   8.343  1.3483 -3.3548 -0.8487
 7326SOL    HW223911   3.932   7.646   8.360  0.2925 -1.1162  0.5343
 7327SOL     OW23912   6.947   4.059   0.220 -0.0526 -0.2266  0.8085
 7327SOL    HW123913   7.002   3.983   0.241  0.5381  0.0027  0.1466
 7327SOL    HW223914   7.005   4.134   0.235 -0.1987  0.0204  0.1460
 7328SOL     OW23915   5.673   3.898   2.161 -0.3997  0.7372 -0.0589
 7328SOL    HW123916   5.709   3.912   2.249 -0.3683  1.5589 -0.1951
 7328SOL    HW223917   5.599   3.840   2.174  0.6201 -0.5344  0.3008
 7329SOL     OW23918   5.163   4.799   4.391 -0.1279 -0.1419  0.1417
 7329SOL    HW123919   5.141   4.892   4.392  0.9739  0.1556 -1.0726
 7329SOL    HW223920   5.083   4.755   4.363  0.5292  0.8822 -3.9605
 7330SOL     OW23921   5.990   5.123   0.087 -0.2250 -0.1082 -0.4403
 7330SOL    HW123922   5.908   5.130   0.037 -1.3449  1.4580  1.4499
 7330SOL    HW223923   5.964   5.143   0.177  2.3804  1.3363  0.0766
 7331SOL     OW23924   4.496   7.174   0.220 -0.3978  0.2286  0.6997
 7331SOL    HW123925   4.410   7.214   0.205 -0.3262  0.3420  0.5855
 7331SOL    HW223926   4.502   7.105   0.155  0.6015  1.7910 -0.9714
 7332SOL     OW23927   3.157   5.892   8.781 -0.4481 -0.1668  0.3253
 7332SOL    HW123928   3.061   5.900   8.783 -0.3137  1.6567  0.7499
 7332SOL    HW223929   3.184   5.946   8.707  0.2018 -1.7213 -0.6169
 7333SOL     OW23930   3.966   1.751   3.138  0.4928  0.5548 -0.0026
 7333SOL    HW123931   3.931   1.676   3.090  1.1803  0.9309 -1.1409
 7333SOL    HW223932   3.896   1.775   3.199 -0.5815  0.2769 -1.0726
 7334SOL     OW23933   6.771   5.841   8.484  0.9290 -0.2558 -0.6742
 7334SOL    HW123934   6.847   5.900   8.484  0.8177 -0.1060 -0.3708
 7334SOL    HW223935   6.717   5.871   8.412  0.5040  0.5044 -0.0532
 7335SOL     OW23936   2.120   0.042   8.421  0.1433 -0.5622  0.5971
 7335SOL    HW123937   2.177   0.017   8.349  1.5350 -0.2449  1.5558
 7335SOL    HW223938   2.179   0.070   8.491 -1.1164 -1.3723  2.0729
 7336SOL     OW23939   2.743   2.247   3.833  0.0140  0.3129  0.1268
 7336SOL    HW123940   2.763   2.224   3.924  1.7317 -1.5262 -0.6403
 7336SOL    HW223941   2.774   2.337   3.823 -0.9373  0.8280  1.5362
 7337SOL     OW23942   6.714   0.011   3.596 -0.6283 -0.3504 -0.4523
 7337SOL    HW123943   6.726  -0.001   3.502 -0.7086 -1.1217 -0.3704
 7337SOL    HW223944   6.649  -0.054   3.621 -0.1703 -0.5616  0.2405
 7338SOL     OW23945   1.242   0.083   0.512 -0.2306  0.6483  0.0022
 7338SOL    HW123946   1.294   0.147   0.561  1.0546 -1.0549  0.9845
 7338SOL    HW223947   1.177   0.051   0.575 -0.0182  0.0668 -0.0642
 7339SOL     OW23948   7.480   7.485   0.088 -0.3750 -1.1539  0.1030
 7339SOL    HW123949   7.416   7.419   0.114 -0.9411 -0.8776 -0.5822
 7339SOL    HW223950   7.538   7.439   0.027 -0.3947 -1.1794  0.1038
 7340SOL     OW23951   1.280   1.819   5.742 -0.5936  0.4449 -0.1247
 7340SOL    HW123952   1.365   1.784   5.768 -1.3441 -0.6750  0.8956
 7340SOL    HW223953   1.297   1.858   5.656  0.8741 -0.0379 -0.0956
 7341SOL     OW23954   2.213   4.466   6.056 -0.4727 -0.7534  0.0483
 7341SOL    HW123955   2.153   4.446   6.128 -2.6006 -1.1227 -1.7162
 7341SOL    HW223956   2.161   4.453   5.977  2.2086 -1.9044 -1.6626
 7342SOL     OW23957   2.427   4.435   0.023  0.0102  0.1043 -0.1674
 7342SOL    HW123958   2.462   4.522   0.004 -2.2361  1.4544  1.4453
 7342SOL    HW223959   2.476   4.405   0.100  0.3150  0.2344 -0.3102
 7343SOL     OW23960   2.723   6.720   5.875  0.4721  0.2673  0.4066
 7343SOL    HW123961   2.691   6.737   5.786 -0.2258  0.4743  0.6968
 7343SOL    HW223962   2.743   6.806   5.910 -2.1905  0.5000  1.5434
 7344SOL     OW23963   2.989   0.930   8.163 -0.0601 -0.0507 -0.4530
 7344SOL    HW123964   3.068   0.892   8.202 -0.1581 -0.5212 -0.7023
 7344SOL    HW223965   2.935   0.956   8.237  0.8819  1.4621 -0.2687
 7345SOL     OW23966   5.089   2.233   3.072  0.2914 -0.2481  0.2258
 7345SOL    HW123967   5.129   2.152   3.102  1.8166  1.2079  2.4879
 7345SOL    HW223968   5.163   2.288   3.045 -0.6944  0.3941 -1.2696
 7346SOL     OW23969   3.287   4.965   2.373  0.0583  0.4457 -0.0946
 7346SOL    HW123970   3.381   4.950   2.366 -0.1598 -1.5296  0.4476
 7346SOL    HW223971   3.264   5.018   2.297  1.5811  0.8773 -0.2735
 7347SOL     OW23972   5.074   4.692   7.282 -0.3295  0.0515 -0.3933
 7347SOL    HW123973   5.142   4.741   7.236  0.3010  0.1048  0.5678
 7347SOL    HW223974   5.003   4.756   7.293  0.8516  1.1014  1.6865
 7348SOL     OW23975   3.965   4.784   4.638  0.2285  0.0661 -0.3075
 7348SOL    HW123976   3.993   4.747   4.555  0.7330  0.7334 -0.4402
 7348SOL    HW223977   3.948   4.707   4.694 -0.0928 -0.3818 -1.0058
 7349SOL     OW23978   1.989   7.186   3.551  0.2471 -0.1834  0.4550
 7349SOL    HW123979   1.979   7.276   3.583  0.1869 -0.0320  0.0279
 7349SOL    HW223980   2.008   7.134   3.629  0.4585  0.2302  0.6818
 7350SOL     OW23981   4.871   4.428   8.200  0.2251 -0.2807  0.1342
 7350SOL    HW123982   4.881   4.334   8.183 -0.2791 -0.1113 -1.2729
 7350SOL    HW223983   4.941   4.468   8.148  1.8144  0.0413  2.3984
 7351SOL     OW23984   6.258   6.050   7.651  0.0157 -0.5524 -0.8050
 7351SOL    HW123985   6.335   6.014   7.606  0.9073 -1.8028  1.5423
 7351SOL    HW223986   6.294   6.109   7.717 -1.2981  1.9736 -2.2188
 7352SOL     OW23987   2.760   3.874   5.888 -0.3591 -0.4621 -0.2543
 7352SOL    HW123988   2.826   3.867   5.819 -0.4083  0.5006 -0.4151
 7352SOL    HW223989   2.690   3.816   5.860 -1.7201  2.0918 -2.6001
 7353SOL     OW23990   1.513   2.204   2.626  0.7007  0.9238 -0.3354
 7353SOL    HW123991   1.480   2.220   2.538 -0.3332 -1.4556 -0.4736
 7353SOL    HW223992   1.436   2.218   2.682  0.7018  0.0563 -0.1076
 7354SOL     OW23993   6.224   7.588   5.751 -0.4251  0.4981 -0.0500
 7354SOL    HW123994   6.285   7.662   5.752 -1.8380  1.7124 -0.2881
 7354SOL    HW223995   6.149   7.619   5.801 -0.6368 -1.1741  0.7244
 7355SOL     OW23996   2.252   8.580   2.637  0.1679 -0.5070  0.2282
 7355SOL    HW123997   2.202   8.524   2.696 -0.7913  0.4681  0.3725
 7355SOL    HW223998   2.294   8.645   2.693 -2.7907  2.0182 -0.2252
 7356SOL     OW23999   7.014   4.890   6.284  0.6488  0.4662 -0.2185
 7356SOL    HW124000   6.978   4.825   6.223  0.6408 -0.5123  0.7941
 7356SOL    HW224001   7.101   4.857   6.306  0.6327  0.7865  0.3346
 7357SOL     OW24002   2.242   2.042   7.838 -0.3934  0.0742 -0.0307
 7357SOL    HW124003   2.333   2.063   7.860  0.2580  0.2021 -2.5798
 7357SOL    HW224004   2.226   1.957   7.880  0.5053  0.5471  1.3418
 7358SOL     OW24005   3.958   7.023   4.311 -0.0739  0.1799 -0.1632
 7358SOL    HW124006   4.039   6.978   4.286 -0.2851  0.0001 -0.5383
 7358SOL    HW224007   3.987   7.101   4.359  0.3441  0.5474 -0.9966
 7359SOL     OW24008   8.182   5.341   4.074  0.2826 -0.3258 -0.2495
 7359SOL    HW124009   8.274   5.366   4.066 -0.0671  1.2145  0.2016
 7359SOL    HW224010   8.139   5.419   4.109 -0.8822 -1.6028  1.3613
 7360SOL     OW24011   4.280   5.507   2.915  0.1809  0.3875  0.3610
 7360SOL    HW124012   4.360   5.536   2.959  1.5205 -0.3937 -1.4528
 7360SOL    HW224013   4.309   5.441   2.853 -1.9059  0.0214 -0.2950
 7361SOL     OW24014   3.839   6.197   6.458 -0.1937 -0.2813 -0.1399
 7361SOL    HW124015   3.877   6.261   6.398  3.9697 -1.7464  0.6320
 7361SOL    HW224016   3.770   6.154   6.406  1.5229  0.2272 -3.0569
 7362SOL     OW24017   7.124   8.229   7.013  0.5898 -0.2741 -0.2183
 7362SOL    HW124018   7.054   8.292   7.034  0.7659 -0.1846  0.1197
 7362SOL    HW224019   7.123   8.222   6.918  0.5047  0.1751 -0.2532
 7363SOL     OW24020   2.091   2.902   0.727 -0.1184 -0.5671 -0.4978
 7363SOL    HW124021   2.067   2.993   0.747  0.9760 -0.3749 -0.0043
 7363SOL    HW224022   2.044   2.883   0.646  0.0319  0.6124 -0.8845
 7364SOL     OW24023   8.623   1.209   7.705 -0.0838  0.5795  0.2997
 7364SOL    HW124024   8.622   1.178   7.614 -1.9139  0.7431  0.2208
 7364SOL    HW224025   8.542   1.174   7.743 -0.3746  2.1754  1.2658
 7365SOL     OW24026   4.788   5.115   0.557 -0.0617 -0.2788  0.0566
 7365SOL    HW124027   4.834   5.199   0.557 -0.3386 -0.1178  1.0648
 7365SOL    HW224028   4.845   5.056   0.507  1.4972 -0.2181  1.6760
 7366SOL     OW24029   1.445   1.685   5.505 -0.1133 -0.2047  0.0192
 7366SOL    HW124030   1.378   1.649   5.446  1.3343 -0.5958 -1.4454
 7366SOL    HW224031   1.444   1.779   5.487 -1.0335 -0.0411  0.8398
 7367SOL     OW24032   4.135   1.187   6.294 -0.2338 -0.1456 -0.1419
 7367SOL    HW124033   4.092   1.156   6.214 -0.9105 -0.8121  0.4665
 7367SOL    HW224034   4.067   1.236   6.340 -0.8548 -2.4174  1.5246
 7368SOL     OW24035   8.053   1.614   2.890 -0.4153 -0.0189 -0.6011
 7368SOL    HW124036   7.997   1.537   2.877 -1.0206 -0.4129  3.1725
 7368SOL    HW224037   8.139   1.587   2.858 -1.0021 -1.6361 -0.9262
 7369SOL     OW24038   1.727   3.294   7.003  0.0029  0.2410  0.2267
 7369SOL    HW124039   1.697   3.205   7.021  2.3615 -0.6713  0.0434
 7369SOL    HW224040   1.752   3.292   6.910 -0.2990  1.2259  0.1135
 7370SOL     OW24041   1.750   7.377   4.617  0.5104  0.3559  0.2409
 7370SOL    HW124042   1.679   7.419   4.666  0.2844 -0.9091  1.0375
 7370SOL    HW224043   1.819   7.443   4.613 -0.3996  1.3277  0.1459
 7371SOL     OW24044   3.123   2.446   4.435  0.5416  0.2688 -0.1384
 7371SOL    HW124045   3.161   2.486   4.356  0.5033 -0.0277 -0.3107
 7371SOL    HW224046   3.146   2.506   4.506  3.6649 -1.1692  0.2414
 7372SOL     OW24047   1.663   1.274   0.888  0.0531  0.2222  0.1682
 7372SOL    HW124048   1.657   1.243   0.798 -0.6313 -1.2789  0.6878
 7372SOL    HW224049   1.587   1.331   0.900 -0.7917 -0.8927  0.2533
 7373SOL     OW24050   8.458   6.953   4.258 -0.0735 -0.1139  0.0328
 7373SOL    HW124051   8.429   6.951   4.167 -0.5541  0.5799  0.1663
 7373SOL    HW224052   8.377   6.958   4.309  0.2135  0.0420  0.4781
 7374SOL     OW24053   2.434   6.055   4.038  0.2225 -0.6044  0.2738
 7374SOL    HW124054   2.418   5.997   3.964  1.1251  0.6092 -0.9014
 7374SOL    HW224055   2.348   6.089   4.061  0.1818  0.8130 -1.7495
 7375SOL     OW24056   2.708   4.202   3.744 -0.3351 -0.3090 -0.1718
 7375SOL    HW124057   2.669   4.223   3.659 -0.3272 -3.0262 -0.9326
 7375SOL    HW224058   2.641   4.150   3.789  0.4154 -0.5644  0.6917
 7376SOL     OW24059   6.801   6.919   4.023 -0.4384  0.4448 -0.0041
 7376SOL    HW124060   6.770   6.998   3.980 -0.7360  0.3207 -0.0158
 7376SOL    HW224061   6.893   6.911   3.996 -0.9191 -0.2461 -1.5093
 7377SOL     OW24062   4.779   2.797   3.440 -0.1194 -0.3949  0.5995
 7377SOL    HW124063   4.703   2.855   3.446  0.3968  0.1767  2.0771
 7377SOL    HW224064   4.854   2.856   3.445  0.4177 -1.0519  0.4367
 7378SOL     OW24065   6.208   4.631   0.110  0.5438 -0.0739  0.4185
 7378SOL    HW124066   6.162   4.712   0.087 -0.3080 -0.7493 -0.2880
 7378SOL    HW224067   6.194   4.573   0.035  3.0457 -0.1120 -0.0984
 7379SOL     OW24068   4.475   8.363   2.020  0.9342  0.2647  0.0808
 7379SOL    HW124069   4.472   8.457   2.037  0.1697  0.1919  0.3839
 7379SOL    HW224070   4.384   8.334   2.030  0.9814 -0.3351 -1.0046
 7380SOL     OW24071   5.479   5.467   7.621 -0.2729  0.0188 -0.6943
 7380SOL    HW124072   5.558   5.436   7.577  0.5321  0.9850  0.0272
 7380SOL    HW224073   5.411   5.463   7.554  1.2334  2.9643 -2.6467
 7381SOL     OW24074   2.375   1.474   0.939  0.6991  0.3191 -0.2508
 7381SOL    HW124075   2.370   1.549   0.998 -0.8475  0.4728 -0.5500
 7381SOL    HW224076   2.458   1.486   0.893  0.7277  1.5536  0.0814
 7382SOL     OW24077   0.922   4.651   6.496 -0.1755  0.4350 -0.5061
 7382SOL    HW124078   0.919   4.733   6.545 -0.3314  0.9062 -1.2936
 7382SOL    HW224079   0.969   4.590   6.553  0.1873  1.1484 -0.0415
 7383SOL     OW24080   1.666   5.730   0.545 -0.2059 -0.4344  0.1507
 7383SOL    HW124081   1.760   5.740   0.533 -0.4895 -0.0085 -2.1809
 7383SOL    HW224082   1.655   5.639   0.574  0.8520 -0.8488 -0.7048
 7384SOL     OW24083   0.947   5.124   0.929  0.2506 -0.1035 -0.5945
 7384SOL    HW124084   0.888   5.183   0.976 -0.3897  0.5848 -2.1738
 7384SOL    HW224085   1.020   5.180   0.901  2.1727 -1.1136  2.0642
 7385SOL     OW24086   3.651   5.634   5.128  0.5899 -0.5208 -0.2101
 7385SOL    HW124087   3.746   5.642   5.120  0.7332 -1.6803  0.0402
 7385SOL    HW224088   3.625   5.704   5.187  1.2728 -0.1230 -0.3732
 7386SOL     OW24089   5.246   6.102   4.633 -0.3377 -0.0261 -0.0114
 7386SOL    HW124090   5.230   6.008   4.631  1.1372 -0.5097  3.4448
 7386SOL    HW224091   5.177   6.138   4.689 -1.7841  1.3048 -2.4654
 7387SOL     OW24092   6.256   0.904   7.894 -0.4235  0.6287  0.1198
 7387SOL    HW124093   6.179   0.933   7.944 -0.7915 -0.9497  0.5313
 7387SOL    HW224094   6.259   0.963   7.819 -1.7912  0.9979  0.3221
 7388SOL     OW24095   4.956   4.650   0.914 -0.5276 -0.1642  0.7673
 7388SOL    HW124096   4.887   4.685   0.857 -1.3302 -0.3301  1.6143
 7388SOL    HW224097   5.022   4.616   0.854 -0.0643  2.0843 -0.1079
 7389SOL     OW24098   1.485   8.428   1.353  0.5112  0.0249 -0.2150
 7389SOL    HW124099   1.463   8.433   1.260 -0.5575 -1.0387 -0.0354
 7389SOL    HW224100   1.401   8.429   1.398  0.9782 -0.3992  0.6918
 7390SOL     OW24101   4.918   3.220   5.093 -0.0325  0.1200  0.1649
 7390SOL    HW124102   4.967   3.248   5.170  0.3144 -2.0376  0.7991
 7390SOL    HW224103   4.980   3.225   5.021  0.3090 -0.0087  0.4503
 7391SOL     OW24104   0.064   0.253   3.635  0.1964 -0.6468  0.5592
 7391SOL    HW124105   0.154   0.220   3.639  1.3404  1.7027 -1.9572
 7391SOL    HW224106   0.074   0.349   3.633 -2.3800 -0.3102  0.4203
 7392SOL     OW24107   5.282   1.508   5.609  0.4463  0.0615  0.0817
 7392SOL    HW124108   5.371   1.545   5.613  0.7802 -0.6131 -0.7611
 7392SOL    HW224109   5.226   1.583   5.587  1.0672  0.1353 -1.3101
 7393SOL     OW24110   1.303   8.843   4.612  0.0865 -0.1671  0.0541
 7393SOL    HW124111   1.273   8.839   4.521  3.0322 -1.3361 -0.9886
 7393SOL    HW224112   1.343   8.930   4.620  2.7628 -1.1665 -0.9561
 7394SOL     OW24113   8.781   0.500   6.129  0.0760 -0.2986  0.0353
 7394SOL    HW124114   8.766   0.475   6.038 -0.5892 -1.1042  0.3586
 7394SOL    HW224115   8.697   0.485   6.173 -0.3337  2.2752  0.3159
 7395SOL     OW24116   2.012   4.024   2.256  0.4396  0.3670 -0.0907
 7395SOL    HW124117   1.971   3.981   2.331 -0.0051  0.0146 -0.5249
 7395SOL    HW224118   2.091   3.974   2.239  0.3500  0.2226 -0.0814
 7396SOL     OW24119   6.820   1.114   8.032  0.2906  0.2533  0.1723
 7396SOL    HW124120   6.906   1.129   7.993  0.5400  0.4116  0.7818
 7396SOL    HW224121   6.834   1.118   8.126  0.0140 -1.7678  0.3521
 7397SOL     OW24122   7.667   8.663   0.371  0.4295  0.0328 -0.2515
 7397SOL    HW124123   7.741   8.722   0.354 -0.4567  0.5152 -2.7718
 7397SOL    HW224124   7.698   8.577   0.342 -0.4066  0.4955 -2.7152
 7398SOL     OW24125   1.371   8.586   1.640 -0.1194  0.4223  0.1102
 7398SOL    HW124126   1.404   8.497   1.646  1.0309  0.7902 -0.4887
 7398SOL    HW224127   1.326   8.601   1.724 -2.1021 -1.3681 -0.5453
 7399SOL     OW24128   4.016   8.169   0.853  0.0478  0.1474  0.3893
 7399SOL    HW124129   3.920   8.164   0.857 -0.4499  2.2248 -3.4464
 7399SOL    HW224130   4.038   8.252   0.896  0.0237  0.0866  0.5195
 7400SOL     OW24131   0.818   6.349   8.219  0.1983  0.3591  0.0545
 7400SOL    HW124132   0.769   6.271   8.195 -1.1483  0.6523  1.6588
 7400SOL    HW224133   0.751   6.413   8.246  1.3116  1.7511 -0.3454
 7401SOL     OW24134   5.146   5.448   4.524  0.4288 -0.0708 -0.1015
 7401SOL    HW124135   5.225   5.500   4.542  0.7898 -0.8567  0.7053
 7401SOL    HW224136   5.084   5.510   4.488  0.8761  0.9149  0.7663
 7402SOL     OW24137   5.905   1.637   1.084 -0.1569  0.0091 -0.9515
 7402SOL    HW124138   5.873   1.678   1.004  0.1198 -2.4410 -2.3958
 7402SOL    HW224139   5.977   1.694   1.113  0.8204  0.0855 -3.3615
 7403SOL     OW24140   8.805   0.137   8.785 -0.6992  0.7696  0.2709
 7403SOL    HW124141   8.866   0.069   8.814  0.5769  1.7059 -0.1073
 7403SOL    HW224142   8.828   0.152   8.693 -0.5218  2.1253  0.5098
 7404SOL     OW24143   3.608   0.729   0.037  0.0409 -0.0546  0.3201
 7404SOL    HW124144   3.580   0.643   0.067  0.0847 -0.3332 -0.4016
 7404SOL    HW224145   3.546   0.751  -0.033  0.3062  0.2917  0.1912
 7405SOL     OW24146   6.713   0.575   1.887 -0.5234 -0.0396 -0.6580
 7405SOL    HW124147   6.648   0.594   1.820 -0.2600  0.1822 -0.8558
 7405SOL    HW224148   6.787   0.631   1.865 -1.5351  2.4066  1.5719
 7406SOL     OW24149   0.737   2.302   6.047  0.3846 -0.0834  0.2223
 7406SOL    HW124150   0.782   2.217   6.046  0.7849  0.0773  1.5261
 7406SOL    HW224151   0.771   2.345   6.126 -1.3107  0.4728  0.6774
 7407SOL     OW24152   0.279   6.954   8.577  0.0645 -0.6521  0.6696
 7407SOL    HW124153   0.350   6.890   8.572 -0.8576 -1.9030  2.2851
 7407SOL    HW224154   0.318   7.029   8.623  0.3742 -1.3144  1.5249
 7408SOL     OW24155   2.980   3.159   2.648  0.1124  0.3506 -0.1827
 7408SOL    HW124156   3.012   3.212   2.575 -0.5259 -1.6433 -2.0210
 7408SOL    HW224157   2.911   3.105   2.610 -0.4060 -0.6069  1.9728
 7409SOL     OW24158   2.842   8.059   7.309  0.4058  0.3261 -0.0267
 7409SOL    HW124159   2.875   8.140   7.268  1.9199 -0.4079 -0.3475
 7409SOL    HW224160   2.874   8.063   7.399  1.8001 -0.5726 -0.4445
 7410SOL     OW24161   1.945   6.590   2.138  0.2730  0.9513  0.1618
 7410SOL    HW124162   1.919   6.567   2.049  0.4335  1.5610 -0.0421
 7410SOL    HW224163   2.012   6.526   2.161 -1.6210 -0.9442  0.8506
 7411SOL     OW24164   7.389   0.376   2.425 -0.5622  0.3290  0.2721
 7411SOL    HW124165   7.419   0.286   2.429  1.3671  0.7832 -1.7992
 7411SOL    HW224166   7.307   0.372   2.374 -1.6490 -0.4273  2.0043
 7412SOL     OW24167   1.970   1.627   8.299  0.0006 -0.2552  0.2360
 7412SOL    HW124168   2.056   1.656   8.269 -0.2842 -0.4951 -0.8778
 7412SOL    HW224169   1.935   1.701   8.347  0.9435 -0.2611  0.9574
 7413SOL     OW24170   7.762   7.281   4.316 -0.1910  0.0853  0.4134
 7413SOL    HW124171   7.771   7.226   4.394  1.5018  1.2086  1.0558
 7413SOL    HW224172   7.840   7.262   4.264  0.7129  2.2022  0.8936
 7414SOL     OW24173   8.549   6.499   1.042  0.1409  0.1139  0.6144
 7414SOL    HW124174   8.626   6.532   0.994 -0.5042  2.7619  1.2101
 7414SOL    HW224175   8.550   6.405   1.026  1.5373  0.4753 -2.2785
 7415SOL     OW24176   8.841   2.783   2.058 -0.0862 -0.4855 -0.4553
 7415SOL    HW124177   8.878   2.791   2.146  1.2075 -1.1860 -0.9071
 7415SOL    HW224178   8.891   2.846   2.005  0.9613 -1.9177 -1.2171
 7416SOL     OW24179   8.525   6.327   6.738 -0.3327 -0.0971  0.3797
 7416SOL    HW124180   8.620   6.334   6.724 -0.1853 -0.7566  0.9985
 7416SOL    HW224181   8.500   6.244   6.698 -1.2478  1.4880 -2.6668
 7417SOL     OW24182   6.545   2.170   8.233 -0.0316 -0.1899  0.0572
 7417SOL    HW124183   6.595   2.212   8.304  0.5192  0.7309 -0.8473
 7417SOL    HW224184   6.467   2.225   8.223  1.0688  1.1561 -1.6588
 7418SOL     OW24185   0.978   5.709   3.165  0.4303 -0.1567  0.2895
 7418SOL    HW124186   0.955   5.651   3.237 -1.1513  0.5172  0.3653
 7418SOL    HW224187   1.009   5.650   3.096 -1.9424 -1.2280  0.0484
 7419SOL     OW24188   3.784   4.662   7.216  0.2658  0.5532 -0.2221
 7419SOL    HW124189   3.739   4.617   7.287  2.0732 -0.6774  0.2300
 7419SOL    HW224190   3.780   4.600   7.142  0.2518  0.8986 -0.5130
 7420SOL     OW24191   5.780   0.182   5.055 -0.0750  0.1661  0.1079
 7420SOL    HW124192   5.785   0.123   5.129 -1.2550  0.8916  0.7959
 7420SOL    HW224193   5.871   0.203   5.034  0.3246 -1.2995  0.3039
 7421SOL     OW24194   1.947   5.451   6.140 -0.3331 -0.4667  0.3444
 7421SOL    HW124195   1.899   5.511   6.198 -0.7795 -0.6616  0.1802
 7421SOL    HW224196   1.923   5.364   6.171  0.3847 -0.5610  0.6380
 7422SOL     OW24197   0.161   4.375   3.000  0.0789 -0.4224  0.8631
 7422SOL    HW124198   0.219   4.299   3.004  0.6977 -0.0332 -0.2501
 7422SOL    HW224199   0.079   4.342   2.963  0.7554 -0.3475 -0.8005
 7423SOL     OW24200   0.435   6.530   4.448 -0.0545 -0.0778 -0.4875
 7423SOL    HW124201   0.362   6.576   4.491  0.1164 -1.4341  1.3900
 7423SOL    HW224202   0.484   6.599   4.404 -1.3610  1.1439 -0.0976
 7424SOL     OW24203   4.480   5.426   4.970  0.3774 -0.1719  0.3061
 7424SOL    HW124204   4.509   5.463   4.886  1.2618 -0.4224  0.4934
 7424SOL    HW224205   4.394   5.389   4.951 -0.4859  1.8025  0.0533
 7425SOL     OW24206   4.059   3.982   1.984  0.4411  0.0531 -0.0295
 7425SOL    HW124207   4.060   3.892   2.017  0.5399 -0.0885 -0.4056
 7425SOL    HW224208   4.150   4.011   1.992 -0.0435  1.1382  2.7500
 7426SOL     OW24209   4.171   0.745   6.021  0.1488 -0.4535 -0.0596
 7426SOL    HW124210   4.100   0.790   5.976 -0.8724 -1.2982  0.6585
 7426SOL    HW224211   4.169   0.779   6.111  0.4788 -0.6886  0.0405
 7427SOL     OW24212   2.675   7.604   5.218  0.1587  0.0464 -0.1041
 7427SOL    HW124213   2.770   7.598   5.225  0.2528 -0.1468 -1.2596
 7427SOL    HW224214   2.657   7.698   5.215  0.1946  0.1167  1.2284
 7428SOL     OW24215   2.334   0.108   4.445 -0.4765 -0.1815  0.5565
 7428SOL    HW124216   2.409   0.150   4.487  0.8192 -0.9282 -0.9146
 7428SOL    HW224217   2.322   0.155   4.363 -2.6598  0.9273  1.4102
 7429SOL     OW24218   4.450   5.018   7.522  0.3031 -0.2299  0.4169
 7429SOL    HW124219   4.515   4.953   7.548 -1.5466 -2.4114 -0.1174
 7429SOL    HW224220   4.452   5.083   7.592  3.2408 -0.0120  0.2479
 7430SOL     OW24221   0.304   1.978   5.765 -0.1817 -0.2624  0.0436
 7430SOL    HW124222   0.244   1.921   5.813  0.2937 -1.5432 -0.7983
 7430SOL    HW224223   0.335   1.923   5.693 -1.0158  1.6347 -1.8493
 7431SOL     OW24224   6.615   3.444   5.334  0.2624  0.0166 -0.2675
 7431SOL    HW124225   6.562   3.370   5.305  1.6946 -0.5807 -1.4717
 7431SOL    HW224226   6.626   3.430   5.428 -1.5196  0.0701 -0.0161
 7432SOL     OW24227   5.718   3.960   8.053 -0.3587  0.4006  0.0754
 7432SOL    HW124228   5.787   4.002   8.001 -0.6160 -0.3351 -0.8811
 7432SOL    HW224229   5.745   3.975   8.144  0.3257  1.3339 -0.2677
 7433SOL     OW24230   4.176   3.975   4.722  0.1483  0.1634  0.2804
 7433SOL    HW124231   4.084   3.950   4.722  0.1852 -0.0002  0.9100
 7433SOL    HW224232   4.211   3.942   4.639 -0.6800  1.4641 -0.6066
 7434SOL     OW24233   1.605   5.909   2.900  0.1370  0.3853  0.4767
 7434SOL    HW124234   1.571   5.920   2.812  0.7796 -0.4370  0.1119
 7434SOL    HW224235   1.640   5.995   2.923  2.3439  0.0122 -1.1229
 7435SOL     OW24236   7.688   4.812   4.389 -0.1841  0.4125 -0.2601
 7435SOL    HW124237   7.709   4.890   4.337  0.6800  1.3598  1.3897
 7435SOL    HW224238   7.773   4.781   4.420 -0.6482 -0.1510  0.4880
 7436SOL     OW24239   4.450   2.253   0.995  0.4736  0.4287  0.0667
 7436SOL    HW124240   4.442   2.296   0.910 -0.0034  2.5538  1.1309
 7436SOL    HW224241   4.365   2.211   1.008  1.2140 -1.7201 -1.3429
 7437SOL     OW24242   2.159   6.810   0.697  0.1489  0.1140 -0.0325
 7437SOL    HW124243   2.070   6.835   0.722 -0.5954 -0.1070 -2.2821
 7437SOL    HW224244   2.149   6.727   0.650  1.5612  0.0738 -0.3190
 7438SOL     OW24245   7.012   8.106   5.561 -0.2804 -0.0976  0.3561
 7438SOL    HW124246   7.070   8.031   5.550 -1.0329 -0.6835  0.3008
 7438SOL    HW224247   7.063   8.180   5.529 -0.7837 -1.0979 -3.2435
 7439SOL     OW24248   3.499   2.934   1.461 -0.2473 -0.1252  0.3604
 7439SOL    HW124249   3.420   2.954   1.411  0.1565 -1.2716 -0.7959
 7439SOL    HW224250   3.535   3.019   1.485 -2.1766  0.4193  1.5231
 7440SOL     OW24251   7.553   2.449   4.980  0.3639 -0.4719  0.2805
 7440SOL    HW124252   7.541   2.506   4.904 -0.8635 -1.7895 -0.5772
 7440SOL    HW224253   7.583   2.507   5.050  1.6130  0.7668 -1.2195
 7441SOL     OW24254   7.496   1.783   3.874 -0.1639  0.2520 -0.2339
 7441SOL    HW124255   7.450   1.726   3.935  0.7823 -0.4535 -0.1454
 7441SOL    HW224256   7.585   1.788   3.909  0.2492  0.2810 -1.2486
 7442SOL     OW24257   3.765   7.773   1.534 -0.2162 -0.5950 -0.1455
 7442SOL    HW124258   3.713   7.848   1.505 -1.4820 -0.8907  1.2369
 7442SOL    HW224259   3.747   7.705   1.469 -3.0973 -1.2881  1.2316
 7443SOL     OW24260   2.999   7.823   5.567  0.0844 -0.3680  0.8107
 7443SOL    HW124261   3.070   7.835   5.503  0.3019  1.4723  1.3434
 7443SOL    HW224262   3.022   7.880   5.640 -1.8106  0.0943  1.1131
 7444SOL     OW24263   3.543   6.869   2.497  0.2359  0.4736 -0.2490
 7444SOL    HW124264   3.612   6.934   2.487  0.3443  0.2438 -1.0578
 7444SOL    HW224265   3.497   6.870   2.413  0.8493 -1.1996 -0.6348
 7445SOL     OW24266   0.117   2.672   4.254  0.1726  0.1424 -0.1010
 7445SOL    HW124267   0.102   2.605   4.321  0.9573 -0.7637 -0.8238
 7445SOL    HW224268   0.189   2.639   4.201  0.8045  1.7070 -0.2875
 7446SOL     OW24269   4.253   2.880   8.149  0.5914 -0.0614 -0.2271
 7446SOL    HW124270   4.310   2.937   8.201  1.0964 -0.4063 -0.3916
 7446SOL    HW224271   4.313   2.820   8.105  0.1773  0.2763 -1.2752
 7447SOL     OW24272   5.414   5.669   8.439  0.3360  0.0392 -0.5350
 7447SOL    HW124273   5.348   5.718   8.489  1.0693  1.3997 -0.8560
 7447SOL    HW224274   5.369   5.645   8.358  0.0114  0.3049 -0.4362
 7448SOL     OW24275   1.672   5.723   7.503  0.3719  0.0917 -0.4416
 7448SOL    HW124276   1.610   5.742   7.574  1.0238  0.5839  0.0055
 7448SOL    HW224277   1.632   5.650   7.456  0.3352 -0.8099  0.9292
 7449SOL     OW24278   3.492   7.831   3.435  0.1538 -0.0991  0.3462
 7449SOL    HW124279   3.578   7.800   3.463  1.0327  0.6284 -1.3766
 7449SOL    HW224280   3.444   7.751   3.414  0.1800 -0.5421  1.8726
 7450SOL     OW24281   6.410   2.259   0.262  0.8040  0.3000 -0.2342
 7450SOL    HW124282   6.373   2.295   0.182  1.1775  0.6292 -0.2648
 7450SOL    HW224283   6.493   2.306   0.274  0.0742  1.3287  1.1332
 7451SOL     OW24284   1.531   5.665   8.506  0.2126  0.0613 -0.4001
 7451SOL    HW124285   1.520   5.706   8.591 -2.6658 -1.4060  0.0893
 7451SOL    HW224286   1.501   5.575   8.519  0.9721 -0.6002 -2.6704
 7452SOL     OW24287   5.053   8.199   7.957  0.2551  0.2795  0.2323
 7452SOL    HW124288   5.072   8.291   7.975 -1.5761  0.5260  1.1437
 7452SOL    HW224289   4.968   8.201   7.911  1.1500 -0.8515 -1.5741
 7453SOL     OW24290   2.554   2.708   7.540  0.0101 -0.2006  0.1793
 7453SOL    HW124291   2.479   2.753   7.579  0.2241  1.4383 -1.1660
 7453SOL    HW224292   2.630   2.757   7.571  0.1784  1.2446 -2.2580
 7454SOL     OW24293   4.288   2.432   3.128 -0.6076  0.1175 -0.5598
 7454SOL    HW124294   4.219   2.495   3.107  0.8445  1.8217 -0.4666
 7454SOL    HW224295   4.348   2.436   3.053 -0.7051 -1.5592 -0.7805
 7455SOL     OW24296   3.918   1.988   7.149 -0.1116 -0.2034  0.5042
 7455SOL    HW124297   3.994   2.030   7.109 -0.7651  0.7758  0.2566
 7455SOL    HW224298   3.846   2.049   7.132 -0.7671 -0.6774  1.5373
 7456SOL     OW24299   3.847   0.442   5.872  0.3718 -0.0003  0.3028
 7456SOL    HW124300   3.800   0.360   5.856 -0.3800  0.4944 -0.1067
 7456SOL    HW224301   3.908   0.421   5.943 -0.4130 -0.6861  0.8011
 7457SOL     OW24302   0.523   5.145   7.503  0.0069  0.1825 -0.1427
 7457SOL    HW124303   0.523   5.064   7.553 -2.3317  0.4849  0.4836
 7457SOL    HW224304   0.473   5.124   7.424 -0.4183  0.9196 -0.0858
 7458SOL     OW24305   2.545   7.700   8.207  0.1807 -0.1288  0.4061
 7458SOL    HW124306   2.551   7.736   8.118 -2.0236  3.3224  1.4568
 7458SOL    HW224307   2.478   7.632   8.201 -0.6640  0.7529 -0.4254
 7459SOL     OW24308   6.609   8.127   4.999  0.2386  0.1695 -0.0744
 7459SOL    HW124309   6.580   8.163   5.083 -0.9249  0.5172 -0.6074
 7459SOL    HW224310   6.547   8.162   4.935 -0.0287 -1.6087 -0.8276
 7460SOL     OW24311   7.602   6.550   8.691  0.4017  0.2412 -0.3124
 7460SOL    HW124312   7.665   6.560   8.763 -0.5806 -0.5929  0.6996
 7460SOL    HW224313   7.640   6.483   8.634  0.4731 -0.2068  0.2565
 7461SOL     OW24314   6.358   2.327   4.134 -0.3138  0.6363 -0.5102
 7461SOL    HW124315   6.363   2.395   4.201  0.2030  0.1550 -0.0547
 7461SOL    HW224316   6.295   2.264   4.169 -0.0311  0.3759 -0.4642
 7462SOL     OW24317   8.604   0.241   7.764 -0.8028  0.1393 -0.6035
 7462SOL    HW124318   8.675   0.305   7.776 -1.1986  0.3132  1.0389
 7462SOL    HW224319   8.601   0.193   7.847 -1.4675 -1.0521 -1.2931
 7463SOL     OW24320   3.154   1.121   0.647 -0.2990  0.1319 -0.1341
 7463SOL    HW124321   3.102   1.113   0.567  1.6966 -2.0669 -1.3709
 7463SOL    HW224322   3.097   1.089   0.717 -0.9574 -1.3613 -1.2957
 7464SOL     OW24323   8.561   8.205   1.459  0.1120  0.0106 -0.0680
 7464SOL    HW124324   8.539   8.182   1.550  0.0652 -1.0676 -0.3301
 7464SOL    HW224325   8.626   8.275   1.467 -0.2868  0.3055  0.7850
 7465SOL     OW24326   5.419   2.024   4.613  0.2722 -0.1554 -0.0603
 7465SOL    HW124327   5.415   1.965   4.688 -1.3828 -2.3138 -1.7020
 7465SOL    HW224328   5.433   1.966   4.538  0.8409  1.8114 -1.5613
 7466SOL     OW24329   3.843   7.254   4.099  0.7098 -0.0388  0.3359
 7466SOL    HW124330   3.904   7.196   4.145  0.0183 -0.0565  1.2659
 7466SOL    HW224331   3.785   7.287   4.168  0.1794  0.6160 -0.4050
 7467SOL     OW24332   7.602   5.479   5.380 -0.0343 -0.5143  0.0622
 7467SOL    HW124333   7.681   5.452   5.426 -0.0585  0.3219  0.6294
 7467SOL    HW224334   7.625   5.473   5.287  1.4368  1.6636  0.2036
 7468SOL     OW24335   6.016   4.628   8.417 -0.6319  0.4496 -0.1809
 7468SOL    HW124336   6.008   4.719   8.445 -4.0501  0.2487 -0.1910
 7468SOL    HW224337   6.092   4.628   8.359 -0.4901  3.2668 -0.1326
 7469SOL     OW24338   0.046   0.465   0.014 -0.6050  0.0788  0.0932
 7469SOL    HW124339   0.087   0.436   0.095 -0.3332  0.2036  0.0010
 7469SOL    HW224340   0.038   0.560   0.022 -0.4685  0.1057 -0.0750
 7470SOL     OW24341   7.876   2.717   6.994  0.1061 -0.3327  0.4824
 7470SOL    HW124342   7.898   2.669   7.074  3.0173 -1.4735 -0.8493
 7470SOL    HW224343   7.924   2.799   7.001 -0.1562 -0.1543  0.1858
 7471SOL     OW24344   8.465   3.448   6.350 -0.2740 -0.3140 -0.0713
 7471SOL    HW124345   8.554   3.475   6.371 -0.7991  0.4263  1.4027
 7471SOL    HW224346   8.413   3.528   6.357 -1.2278 -0.9293  0.2481
 7472SOL     OW24347   6.012   3.066   0.028 -0.5260 -0.2256 -0.1850
 7472SOL    HW124348   5.931   3.025  -0.004 -0.4322 -1.3995  1.0135
 7472SOL    HW224349   5.997   3.081   0.121  0.9224 -1.1910  0.2311
 7473SOL     OW24350   5.544   2.580   2.859  0.0328 -0.3289  0.5253
 7473SOL    HW124351   5.524   2.606   2.949  0.2941  0.2612  0.4164
 7473SOL    HW224352   5.507   2.650   2.805  0.6033 -0.2620  0.2148
 7474SOL     OW24353   3.957   3.001   8.646  0.2310  0.2014  0.4451
 7474SOL    HW124354   4.016   2.926   8.637  0.5726  0.5929 -0.8586
 7474SOL    HW224355   3.967   3.049   8.564 -1.0971  0.8696  0.6394
 7475SOL     OW24356   6.029   7.269   0.668 -0.0983  0.1907  0.1751
 7475SOL    HW124357   6.069   7.344   0.711 -2.5162  2.5284 -1.3438
 7475SOL    HW224358   6.032   7.199   0.733  1.4513  1.8414  1.9808
 7476SOL     OW24359   2.618   3.583   1.382  0.4019 -0.2036  0.2288
 7476SOL    HW124360   2.586   3.495   1.402  0.0837  0.0551  0.8652
 7476SOL    HW224361   2.591   3.636   1.456  1.6816  0.1826  0.4387
 7477SOL     OW24362   3.954   0.249   2.278 -0.0395 -0.1295 -0.3074
 7477SOL    HW124363   4.013   0.308   2.231 -0.7321  2.3438  1.6896
 7477SOL    HW224364   3.873   0.251   2.227 -0.1074  0.8265 -0.1881
 7478SOL     OW24365   8.374   0.261   7.229  0.4743  0.5969 -0.0705
 7478SOL    HW124366   8.359   0.283   7.321 -0.0015 -0.8728  0.2328
 7478SOL    HW224367   8.448   0.315   7.203  0.8712  0.7520  1.2961
 7479SOL     OW24368   2.589   3.529   5.061 -0.2708 -0.3137  0.2621
 7479SOL    HW124369   2.647   3.537   5.137  0.1518 -0.2237 -0.0673
 7479SOL    HW224370   2.613   3.446   5.021  2.1337  1.2722 -1.9012
 7480SOL     OW24371   6.303   0.460   1.856  0.4054  0.0450  0.2489
 7480SOL    HW124372   6.324   0.509   1.776 -0.5206  0.4445  0.2369
 7480SOL    HW224373   6.347   0.376   1.845  1.2336  0.5238 -0.1628
 7481SOL     OW24374   8.064   6.655   2.742 -0.4715 -0.3873 -0.1807
 7481SOL    HW124375   7.980   6.615   2.763 -0.0504 -2.3842 -1.9700
 7481SOL    HW224376   8.106   6.593   2.683  2.8854 -0.1246  1.7017
 7482SOL     OW24377   5.526   2.094   7.860  0.2137 -0.6271 -0.5623
 7482SOL    HW124378   5.616   2.102   7.826 -0.3770 -0.5807 -2.2286
 7482SOL    HW224379   5.510   2.176   7.906  0.9786 -0.5862 -0.3590
 7483SOL     OW24380   1.236   4.879   3.082 -0.0114  0.3740 -0.0891
 7483SOL    HW124381   1.243   4.835   3.167 -1.0699  0.4996  0.0820
 7483SOL    HW224382   1.294   4.955   3.090  0.0878  0.2486  0.4446
 7484SOL     OW24383   1.144   2.265   8.869 -0.8362  0.6561  0.1694
 7484SOL    HW124384   1.061   2.248   8.824  0.0491 -0.3279 -1.1523
 7484SOL    HW224385   1.150   2.197   8.937 -0.0166 -0.8192 -1.3186
 7485SOL     OW24386   7.018   2.857   3.013  0.4092  0.2309  0.0096
 7485SOL    HW124387   6.972   2.794   2.959  0.3596  1.1401 -1.0463
 7485SOL    HW224388   6.980   2.847   3.100  0.6176 -1.3864 -0.0646
 7486SOL     OW24389   7.898   8.662   0.671 -0.1589  0.0312 -0.4284
 7486SOL    HW124390   7.855   8.579   0.689 -0.5878 -0.3144 -2.7876
 7486SOL    HW224391   7.992   8.641   0.670 -0.1380 -0.0140  0.7910
 7487SOL     OW24392   4.812   4.170   3.019 -0.0344  0.5375  1.3012
 7487SOL    HW124393   4.772   4.087   3.044  0.3580  0.3302  1.2393
 7487SOL    HW224394   4.903   4.163   3.048  0.1807  0.6726  0.6728
 7488SOL     OW24395   3.899   8.817   3.609  0.5525  0.1679 -0.3390
 7488SOL    HW124396   3.919   8.821   3.516 -0.3457 -0.0989 -0.5600
 7488SOL    HW224397   3.847   8.736   3.619 -0.6458  0.9612  0.1197
 7489SOL     OW24398   1.646   2.280   5.481 -0.0464 -0.5086 -0.3966
 7489SOL    HW124399   1.583   2.269   5.552  0.6352 -1.0299  0.1453
 7489SOL    HW224400   1.599   2.252   5.403 -0.8948  0.3228 -0.2025
 7490SOL     OW24401   1.845   5.587   1.537 -0.1249 -0.5198  0.2253
 7490SOL    HW124402   1.877   5.498   1.519 -0.6338 -0.4858 -0.8905
 7490SOL    HW224403   1.803   5.614   1.456  0.1632  0.8091  0.5041
 7491SOL     OW24404   7.100   7.286   4.218 -0.0572 -0.6184  0.5341
 7491SOL    HW124405   7.006   7.301   4.209  0.1769 -0.2187 -1.7823
 7491SOL    HW224406   7.134   7.367   4.255 -0.0532  1.2045 -3.1371
 7492SOL     OW24407   5.019   5.856   7.261 -0.5815 -0.6250 -0.3184
 7492SOL    HW124408   5.007   5.830   7.353 -1.0827  0.5033 -0.0485
 7492SOL    HW224409   5.082   5.793   7.227 -0.9749 -1.5474  0.5863
 7493SOL     OW24410   3.380   5.962   4.011 -0.5612 -0.0752 -0.3840
 7493SOL    HW124411   3.424   5.916   3.940  0.6148 -0.6816  0.6977
 7493SOL    HW224412   3.310   5.903   4.039 -0.1394 -0.4597 -0.1277
 7494SOL     OW24413   2.202   4.611   0.673 -0.0006 -0.1615  0.1429
 7494SOL    HW124414   2.111   4.602   0.702  0.0448  0.8839  0.6680
 7494SOL    HW224415   2.201   4.579   0.582 -1.1529  0.9057 -0.2601
 7495SOL     OW24416   4.110   5.974   6.789 -0.1858  0.1323  0.1089
 7495SOL    HW124417   4.046   5.968   6.718  0.0126 -0.0803 -0.0531
 7495SOL    HW224418   4.072   6.038   6.850  1.3167  3.2163 -1.9320
 7496SOL     OW24419   5.393   0.137   5.314 -0.0084  0.1681  0.2053
 7496SOL    HW124420   5.459   0.147   5.382 -0.4709  1.4919  0.4833
 7496SOL    HW224421   5.314   0.178   5.351 -0.4296  0.3793 -0.8921
 7497SOL     OW24422   7.651   6.289   5.176 -0.5372  0.8163 -0.0518
 7497SOL    HW124423   7.614   6.374   5.200 -1.6630  0.3609 -0.1174
 7497SOL    HW224424   7.590   6.253   5.112  0.1768  0.1524 -0.3823
 7498SOL     OW24425   8.383   2.704   7.140 -0.1451  0.3075  0.1057
 7498SOL    HW124426   8.433   2.624   7.128  0.3243  0.5898  0.1665
 7498SOL    HW224427   8.406   2.734   7.229  0.9159  1.3508 -0.4848
 7499SOL     OW24428   4.776   3.047   5.275  0.3930  0.5325  0.1941
 7499SOL    HW124429   4.818   3.091   5.202 -0.3210 -0.8174 -1.0956
 7499SOL    HW224430   4.687   3.082   5.276  0.3530  0.4296  0.3081
 7500SOL     OW24431   0.440   7.472   8.054  0.7111  0.2878 -0.0524
 7500SOL    HW124432   0.508   7.426   8.005  0.3314  0.3222 -0.6261
 7500SOL    HW224433   0.363   7.469   7.996 -0.0370 -0.5057  0.9456
 7501SOL     OW24434   2.934   2.178   5.790 -0.1143 -0.2896  0.0162
 7501SOL    HW124435   2.876   2.141   5.857 -0.1171  0.0845  0.2204
 7501SOL    HW224436   2.973   2.255   5.832  0.0002 -0.1409 -0.3615
 7502SOL     OW24437   1.804   4.246   1.009 -0.3399  0.2091 -0.6417
 7502SOL    HW124438   1.715   4.248   1.045  0.0498  1.9192  0.3151
 7502SOL    HW224439   1.855   4.196   1.073  0.1020  2.2480  0.6694
 7503SOL     OW24440   6.629   5.583   7.539 -0.0471 -0.0414 -0.3853
 7503SOL    HW124441   6.717   5.564   7.572  0.0208  1.1147  0.1450
 7503SOL    HW224442   6.572   5.529   7.594  0.1982  0.6854  0.6331
 7504SOL     OW24443   2.706   2.091   5.132  0.0205  0.4603 -0.3934
 7504SOL    HW124444   2.744   2.044   5.207  1.3904  0.4692 -1.0543
 7504SOL    HW224445   2.695   2.180   5.163  1.4392  0.6844 -0.4522
 7505SOL     OW24446   0.068   8.156   7.140 -0.4390 -0.4438  0.2037
 7505SOL    HW124447   0.077   8.211   7.062  0.8130 -0.1983  0.4969
 7505SOL    HW224448  -0.001   8.197   7.191  0.3364  0.7539  0.3158
 7506SOL     OW24449   0.598   5.365   4.085  0.0395  0.2597 -0.0902
 7506SOL    HW124450   0.518   5.381   4.136  1.0856  3.7007  0.8030
 7506SOL    HW224451   0.640   5.292   4.129 -1.5927 -0.2325  0.7469
 7507SOL     OW24452   2.989   0.391   0.736 -0.8443  0.4510  0.0894
 7507SOL    HW124453   2.976   0.342   0.817 -2.1638  0.6173  0.0012
 7507SOL    HW224454   2.940   0.341   0.670 -1.2026  1.2392 -0.2510
 7508SOL     OW24455   5.694   6.444   0.032 -0.3927 -0.3411  0.0373
 7508SOL    HW124456   5.741   6.528   0.033  1.5619 -1.3088 -1.8489
 7508SOL    HW224457   5.641   6.446   0.111 -0.3415  2.6230  0.1352
 7509SOL     OW24458   7.659   5.061   4.276 -0.5045  0.3065 -0.3270
 7509SOL    HW124459   7.594   5.049   4.206 -0.8335  1.3206 -0.2094
 7509SOL    HW224460   7.735   5.100   4.232  0.0654 -0.9189 -0.4722
 7510SOL     OW24461   2.078   8.730   7.861 -0.1673  0.5020 -0.4156
 7510SOL    HW124462   2.113   8.780   7.935 -1.6153  0.7368  0.1328
 7510SOL    HW224463   2.014   8.788   7.820 -1.4079 -0.6324 -0.1583
 7511SOL     OW24464   4.827   0.411   7.383 -0.2397  0.3796  0.3000
 7511SOL    HW124465   4.796   0.493   7.345  0.6649 -0.6086 -2.9081
 7511SOL    HW224466   4.915   0.431   7.416 -0.8715  1.1710  1.5542
 7512SOL     OW24467   0.091   3.670   0.217 -0.3559 -0.1272 -0.5589
 7512SOL    HW124468   0.066   3.698   0.129 -2.3405  1.6322  0.4679
 7512SOL    HW224469   0.015   3.623   0.250  0.1074 -0.2075  0.4342
 7513SOL     OW24470   5.853   5.983   8.473  0.1707  0.1358 -0.4200
 7513SOL    HW124471   5.795   6.005   8.400  0.4845  1.7480 -0.2128
 7513SOL    HW224472   5.913   6.057   8.479  1.8883 -1.2135 -0.2438
 7514SOL     OW24473   1.892   4.191   3.798 -0.1402  0.6680 -0.2934
 7514SOL    HW124474   1.858   4.109   3.762 -0.8239  0.8775 -0.1359
 7514SOL    HW224475   1.834   4.259   3.762  1.4463  1.2888 -1.8317
 7515SOL     OW24476   4.492   4.583   4.620 -0.5280 -0.3801 -0.2456
 7515SOL    HW124477   4.542   4.608   4.698 -0.8486 -0.3920 -0.0383
 7515SOL    HW224478   4.510   4.653   4.556 -1.7083  0.5915  0.4463
 7516SOL     OW24479   3.368   1.609   4.481 -0.7901 -0.1960  0.0109
 7516SOL    HW124480   3.338   1.628   4.392  0.1708 -0.4864 -0.3818
 7516SOL    HW224481   3.298   1.642   4.537 -0.2694  2.3784 -0.7349
 7517SOL     OW24482   7.100   8.625   4.775  0.1765 -0.2951 -0.2114
 7517SOL    HW124483   7.183   8.663   4.805 -0.8167  1.4728  0.4244
 7517SOL    HW224484   7.052   8.699   4.738 -0.7832 -1.4596 -1.4004
 7518SOL     OW24485   8.174   2.733   2.842 -0.4037  0.2801  0.1401
 7518SOL    HW124486   8.195   2.815   2.886  0.9862  0.0553 -0.0664
 7518SOL    HW224487   8.102   2.755   2.783  1.9599  2.1499 -2.2664
 7519SOL     OW24488   8.374   7.902   2.800  0.1547  0.1690  0.1876
 7519SOL    HW124489   8.438   7.848   2.846 -0.2608  0.1786  0.7954
 7519SOL    HW224490   8.295   7.895   2.853 -0.4700 -0.1655 -0.7678
 7520SOL     OW24491   0.458   8.075   7.866  0.2801  0.1572  0.0643
 7520SOL    HW124492   0.372   8.102   7.832  0.2599  0.2511  0.1889
 7520SOL    HW224493   0.441   7.994   7.914  0.5273 -0.7345 -1.2901
 7521SOL     OW24494   5.062   1.199   0.540  0.4135  0.0407 -0.0845
 7521SOL    HW124495   5.064   1.260   0.613  0.6276 -1.3822  1.1574
 7521SOL    HW224496   5.084   1.252   0.463 -1.4421  1.9243  0.5943
 7522SOL     OW24497   3.928   4.295   2.075  0.2727 -0.0678  0.3585
 7522SOL    HW124498   3.905   4.340   1.993 -0.6567 -0.6932  0.2695
 7522SOL    HW224499   3.970   4.214   2.047  1.8049  0.6349  0.5213
 7523SOL     OW24500   6.723   4.786   1.286  0.4024 -0.2560  0.0903
 7523SOL    HW124501   6.726   4.875   1.321 -2.1617 -0.2658  0.4870
 7523SOL    HW224502   6.801   4.744   1.322  0.8803  1.3949  1.0882
 7524SOL     OW24503   5.622   0.939   3.851 -0.1923 -0.5274 -0.3140
 7524SOL    HW124504   5.691   0.931   3.785 -2.2253  2.3165 -3.0504
 7524SOL    HW224505   5.658   1.001   3.915  0.0384  0.6765 -1.5404
 7525SOL     OW24506   6.089   1.747   4.560 -0.0751 -0.5308 -0.0750
 7525SOL    HW124507   6.110   1.764   4.652 -3.2454  0.8777  0.5173
 7525SOL    HW224508   6.003   1.705   4.563 -0.3172 -0.3236 -2.4020
 7526SOL     OW24509   1.743   5.140   6.582  0.1553 -0.4412  0.1025
 7526SOL    HW124510   1.793   5.085   6.522  0.8030 -1.4886  1.5404
 7526SOL    HW224511   1.799   5.215   6.598 -0.1544 -0.0003 -0.8248
 7527SOL     OW24512   2.503   8.401   4.231  0.1025  0.4589  0.0352
 7527SOL    HW124513   2.527   8.493   4.243  0.2284  0.4879 -0.3953
 7527SOL    HW224514   2.433   8.402   4.165 -0.5009  0.3076  0.6658
 7528SOL     OW24515   1.449   4.375   7.972 -0.4475  0.2968 -0.1427
 7528SOL    HW124516   1.357   4.362   7.950 -0.2344  0.6475 -1.2979
 7528SOL    HW224517   1.496   4.360   7.890  0.4748  0.6254  0.3100
 7529SOL     OW24518   1.013   0.448   3.859 -0.2671  0.3235 -0.0603
 7529SOL    HW124519   1.082   0.393   3.896  0.8909  1.2631 -0.7182
 7529SOL    HW224520   1.007   0.421   3.767 -0.5200  0.4822 -0.0914
 7530SOL     OW24521   7.026   6.108   7.775  0.2383  0.2667  0.0736
 7530SOL    HW124522   7.116   6.123   7.745  0.4410 -0.6152  0.2093
 7530SOL    HW224523   6.974   6.101   7.695  0.6501 -1.3100 -0.0903
 7531SOL     OW24524   5.383   6.122   4.386  0.5403 -0.3461 -0.4216
 7531SOL    HW124525   5.338   6.127   4.302  0.8931  3.0042 -0.5680
 7531SOL    HW224526   5.317   6.150   4.450  0.5717 -1.8746  0.3102
 7532SOL     OW24527   4.388   8.608   2.806  0.5957  0.3514 -0.0103
 7532SOL    HW124528   4.342   8.524   2.801  1.8333 -0.3243 -0.3071
 7532SOL    HW224529   4.351   8.660   2.735  0.2035 -0.1271 -0.1628
 7533SOL     OW24530   8.109   8.476   5.105 -0.3329  0.3828 -0.0583
 7533SOL    HW124531   8.084   8.524   5.184 -1.6835  0.6650 -0.6309
 7533SOL    HW224532   8.098   8.384   5.129  2.6338  0.2397  1.1654
 7534SOL     OW24533   2.677   2.479   1.776 -0.3113 -0.1077  0.5377
 7534SOL    HW124534   2.767   2.511   1.784 -0.7701  1.4643 -0.0451
 7534SOL    HW224535   2.653   2.451   1.864  1.7388 -3.6196  0.1821
 7535SOL     OW24536   6.913   6.365   4.058 -0.1276 -0.4469  0.2196
 7535SOL    HW124537   6.900   6.424   4.132 -2.2082 -1.7054  0.9404
 7535SOL    HW224538   6.827   6.361   4.015 -0.3101 -3.4249  0.6223
 7536SOL     OW24539   0.262   4.330   8.136  0.1734 -0.2395  0.3255
 7536SOL    HW124540   0.188   4.272   8.120  0.4932 -0.8222  0.9233
 7536SOL    HW224541   0.227   4.396   8.197 -0.0052 -0.1920  0.1721
 7537SOL     OW24542   2.718   8.009   2.991  0.1146  0.0066  0.3929
 7537SOL    HW124543   2.720   8.070   2.916 -1.4885 -0.7269 -0.2799
 7537SOL    HW224544   2.773   7.936   2.963 -1.6901 -0.9677 -0.7375
 7538SOL     OW24545   6.381   0.402   6.055 -0.4120 -0.1629 -0.0987
 7538SOL    HW124546   6.423   0.385   6.139 -2.1802  0.2070  0.9139
 7538SOL    HW224547   6.411   0.489   6.030  0.7442 -0.5983 -0.2682
 7539SOL     OW24548   1.553   4.506   5.438  0.0900 -0.1947  0.2790
 7539SOL    HW124549   1.629   4.565   5.433  0.4798 -0.7813 -1.6329
 7539SOL    HW224550   1.573   4.436   5.376 -2.9132  0.6979 -1.9313
 7540SOL     OW24551   2.322   0.696   0.529 -0.2094 -0.4186  0.1055
 7540SOL    HW124552   2.275   0.673   0.610  0.1540 -1.4919  0.0381
 7540SOL    HW224553   2.404   0.734   0.560 -0.6392  0.4437  0.2248
 7541SOL     OW24554   0.608   1.055   5.815 -0.0593 -0.3783  0.0395
 7541SOL    HW124555   0.691   1.036   5.773  0.6160  2.0555  0.1150
 7541SOL    HW224556   0.556   1.099   5.748 -0.4757  0.0257  0.6152
 7542SOL     OW24557   3.953   5.524   2.388  0.5337  0.2896  0.1531
 7542SOL    HW124558   3.957   5.618   2.373  3.4356  0.4257  1.1527
 7542SOL    HW224559   3.979   5.513   2.480  3.1570 -1.5920 -0.7006
 7543SOL     OW24560   4.683   2.189   1.558  0.0832 -0.0646 -0.5963
 7543SOL    HW124561   4.687   2.227   1.470  0.7077 -1.6230 -1.2720
 7543SOL    HW224562   4.711   2.098   1.547  0.7473 -0.1512  1.3162
 7544SOL     OW24563   6.252   1.232   2.758 -0.5508  0.0366  0.7631
 7544SOL    HW124564   6.278   1.227   2.850  1.8145 -0.2485  0.1582
 7544SOL    HW224565   6.241   1.325   2.741  0.5439  0.2190  0.9807
 7545SOL     OW24566   4.627   3.796   6.616  0.4436 -0.3045 -0.3372
 7545SOL    HW124567   4.551   3.749   6.581 -0.5878  1.0106  0.0293
 7545SOL    HW224568   4.594   3.884   6.634  2.2643  0.5226 -0.8643
 7546SOL     OW24569   0.215   4.317   0.970  0.1514 -0.3847 -0.6180
 7546SOL    HW124570   0.218   4.227   0.937  0.2498 -0.2547 -0.9761
 7546SOL    HW224571   0.187   4.309   1.061 -2.2897 -0.6216 -1.3259
 7547SOL     OW24572   4.331   4.691   2.912  0.1783 -0.0421  0.6664
 7547SOL    HW124573   4.402   4.630   2.894  0.3446  0.4325 -0.3002
 7547SOL    HW224574   4.349   4.723   3.000 -0.1252 -1.6731  1.3637
 7548SOL     OW24575   1.973   6.786   1.692  0.1087  0.0268 -0.1293
 7548SOL    HW124576   1.912   6.757   1.625  0.6442 -0.5195 -0.3947
 7548SOL    HW224577   1.975   6.881   1.683 -0.2183 -0.0034 -0.5481
 7549SOL     OW24578   5.903   5.570   8.098  0.3821  0.4570 -0.0974
 7549SOL    HW124579   5.925   5.636   8.033  1.8377 -0.8523 -1.0296
 7549SOL    HW224580   5.865   5.498   8.047  0.3855 -0.0994  0.6627
 7550SOL     OW24581   0.867   3.559   0.068  0.4069  0.5380 -0.0977
 7550SOL    HW124582   0.830   3.491   0.124  1.3519 -0.1266 -0.2462
 7550SOL    HW224583   0.961   3.557   0.087  0.5509  1.2492 -0.6932
 7551SOL     OW24584   7.551   6.546   5.125  0.0875 -0.0704  0.0771
 7551SOL    HW124585   7.559   6.641   5.129  0.1958 -0.0720 -0.0718
 7551SOL    HW224586   7.459   6.529   5.105  0.3939  0.0549 -1.5745
 7552SOL     OW24587   2.164   1.401   2.028 -0.2989 -0.1234 -0.2543
 7552SOL    HW124588   2.097   1.366   1.969 -1.3634  0.2646  0.6904
 7552SOL    HW224589   2.134   1.379   2.116  1.3572 -0.8525  0.1749
 7553SOL     OW24590   8.248   7.451   3.405  0.0219 -0.4404  0.1507
 7553SOL    HW124591   8.225   7.359   3.389  1.4973 -0.4370 -2.4683
 7553SOL    HW224592   8.167   7.500   3.389 -0.1786 -1.0754 -0.8109
 7554SOL     OW24593   0.174   0.104   8.605  0.3563 -0.2550 -0.3401
 7554SOL    HW124594   0.166   0.031   8.544  1.2852 -0.3376 -0.3836
 7554SOL    HW224595   0.191   0.063   8.690 -1.4470 -0.1634  0.1067
 7555SOL     OW24596   3.162   1.779   4.623  0.1914 -0.5715  0.1912
 7555SOL    HW124597   3.128   1.863   4.654  0.1655 -0.8349  0.9028
 7555SOL    HW224598   3.093   1.744   4.567 -0.8497 -1.1876  1.7626
 7556SOL     OW24599   5.873   2.590   6.370  0.1284 -0.6413  0.4820
 7556SOL    HW124600   5.912   2.507   6.400  0.4389 -0.3989  0.7529
 7556SOL    HW224601   5.909   2.602   6.282  2.5271  0.7198  1.5416
 7557SOL     OW24602   3.909   6.224   5.501  0.5951  0.1867  0.2853
 7557SOL    HW124603   4.003   6.209   5.501  0.4744 -0.6453  0.8542
 7557SOL    HW224604   3.886   6.231   5.594  0.1710  0.8747  0.1316
 7558SOL     OW24605   1.361   4.197   0.974  0.3260 -0.2385 -0.3578
 7558SOL    HW124606   1.316   4.211   1.057  0.1249 -2.3087 -0.0609
 7558SOL    HW224607   1.449   4.230   0.988  0.3531 -0.7602  0.7539
 7559SOL     OW24608   4.976   4.106   0.371  0.4935  0.1237  0.3072
 7559SOL    HW124609   4.922   4.038   0.413  0.8824  0.5792  1.6118
 7559SOL    HW224610   5.065   4.074   0.380  0.6511  0.6379  0.6326
 7560SOL     OW24611   7.628   8.842   2.614 -0.2963  0.0508 -0.3131
 7560SOL    HW124612   7.663   8.814   2.698  0.7096  0.8728 -0.4300
 7560SOL    HW224613   7.672   8.925   2.596 -2.9318  1.6227 -0.0869
 7561SOL     OW24614   0.790   5.169   7.288 -0.0031  0.0400 -0.8421
 7561SOL    HW124615   0.834   5.213   7.215  1.9532 -1.5811 -0.7275
 7561SOL    HW224616   0.764   5.241   7.347 -1.4242  1.3673 -2.9428
 7562SOL     OW24617   5.615   6.510   3.050 -0.1580 -0.1607  0.1816
 7562SOL    HW124618   5.612   6.605   3.042 -2.1768 -0.2486 -0.7557
 7562SOL    HW224619   5.525   6.484   3.069  0.0858 -1.9591 -0.8538
 7563SOL     OW24620   5.980   3.856   5.758 -0.0571 -0.3174 -0.0457
 7563SOL    HW124621   6.075   3.863   5.765  0.0954  0.8983 -2.4611
 7563SOL    HW224622   5.949   3.947   5.753 -1.4687 -0.6542  1.4682
 7564SOL     OW24623   4.657   8.642   3.080  0.1469  0.1713  0.5444
 7564SOL    HW124624   4.709   8.564   3.060  2.3885  1.1750  2.0724
 7564SOL    HW224625   4.657   8.646   3.176  0.5832  2.3386  0.4992
 7565SOL     OW24626   6.121   6.055   3.775  0.8234 -0.0312  0.1752
 7565SOL    HW124627   6.204   6.103   3.769  0.5107  0.4720 -0.2055
 7565SOL    HW224628   6.059   6.107   3.722  0.2073 -0.2688  0.6501
 7566SOL     OW24629   1.445   6.193   7.279  0.0830 -0.0519 -0.5468
 7566SOL    HW124630   1.451   6.153   7.192  2.1980  1.7518 -1.3034
 7566SOL    HW224631   1.534   6.191   7.313  0.0279  2.6349 -0.0337
 7567SOL     OW24632   0.552   3.268   3.492 -0.3753 -0.0001  0.0951
 7567SOL    HW124633   0.602   3.306   3.420  0.0370 -0.6793  0.0049
 7567SOL    HW224634   0.463   3.259   3.458 -0.2169 -0.1723 -0.2809
 7568SOL     OW24635   4.418   3.878   3.371 -0.2462 -0.0360 -0.2155
 7568SOL    HW124636   4.404   3.894   3.464 -1.8669 -0.1270 -0.4142
 7568SOL    HW224637   4.510   3.897   3.356  0.1773 -0.5895  1.5247
 7569SOL     OW24638   5.156   0.818   6.569 -0.0011  0.4308  0.1204
 7569SOL    HW124639   5.168   0.910   6.592 -2.2403  0.5195  1.2304
 7569SOL    HW224640   5.084   0.818   6.505  1.1925 -0.4389 -1.2722
 7570SOL     OW24641   5.902   1.629   2.533  0.0074 -0.3923 -0.2045
 7570SOL    HW124642   5.946   1.691   2.590  1.2368 -1.2496 -0.1936
 7570SOL    HW224643   5.956   1.624   2.455  0.4865 -2.1664  0.1941
 7571SOL     OW24644   4.250   3.865   4.195  0.0106 -0.0918  0.0700
 7571SOL    HW124645   4.319   3.811   4.155  0.5394  1.0642 -0.6255
 7571SOL    HW224646   4.178   3.804   4.211  0.8653 -1.1480 -0.0058
 7572SOL     OW24647   4.047   5.271   5.976  0.0124 -0.6189 -0.4775
 7572SOL    HW124648   3.983   5.332   5.939  0.8095  1.1093  0.8695
 7572SOL    HW224649   4.126   5.284   5.923  0.3125 -0.1766  0.0800
 7573SOL     OW24650   7.298   8.450   8.846  0.9241  0.0614  0.7621
 7573SOL    HW124651   7.285   8.452   8.941  1.1269  0.3555  0.7835
 7573SOL    HW224652   7.295   8.542   8.819 -0.6698 -0.0987  0.2688
 7574SOL     OW24653   3.550   6.330   8.333  0.4193 -0.0642 -0.3139
 7574SOL    HW124654   3.465   6.369   8.352  1.1649  1.9245 -0.7454
 7574SOL    HW224655   3.561   6.341   8.239  1.5991  0.7439 -0.1085
 7575SOL     OW24656   0.126   1.787   5.840  0.3055 -0.0253 -0.1032
 7575SOL    HW124657   0.173   1.708   5.867  2.2428  1.3279  0.6031
 7575SOL    HW224658   0.047   1.753   5.797  1.0005 -2.3394  0.3041
 7576SOL     OW24659   2.093   7.076   7.873  0.2769 -0.2095  0.2771
 7576SOL    HW124660   2.025   7.079   7.805 -0.4656  1.2227  1.0416
 7576SOL    HW224661   2.171   7.044   7.827 -0.8506 -1.7638 -0.6527
 7577SOL     OW24662   2.392   0.374   3.217 -0.1145  0.2043 -0.2831
 7577SOL    HW124663   2.364   0.451   3.169  1.4092 -0.3705 -2.2674
 7577SOL    HW224664   2.363   0.300   3.163 -2.3810 -0.7554  2.0221
 7578SOL     OW24665   7.855   6.677   4.610  0.1924 -0.5612  0.0384
 7578SOL    HW124666   7.793   6.636   4.550  1.0885 -2.2461  0.2003
 7578SOL    HW224667   7.827   6.648   4.697  0.8594 -0.8658  0.1557
 7579SOL     OW24668   8.174   4.044   0.574 -1.0497  0.2681 -0.0486
 7579SOL    HW124669   8.109   4.041   0.644 -0.6532  2.8555  0.5310
 7579SOL    HW224670   8.175   4.135   0.546  1.6743  0.1428 -0.6581
 7580SOL     OW24671   1.671   0.245   8.690  0.2957  0.0166  0.1681
 7580SOL    HW124672   1.734   0.205   8.631  1.4229  0.3229  1.1337
 7580SOL    HW224673   1.723   0.275   8.764 -1.3403 -2.3224  2.4012
 7581SOL     OW24674   0.340   3.951   4.789  0.2573  0.6748  0.6173
 7581SOL    HW124675   0.256   3.952   4.744  0.6624  1.4740 -0.1672
 7581SOL    HW224676   0.384   3.873   4.756 -0.3577 -0.0090  1.3934
 7582SOL     OW24677   3.160   2.622   0.980  0.0937  0.1784  0.6727
 7582SOL    HW124678   3.235   2.657   0.932  0.8941 -1.0194  0.9966
 7582SOL    HW224679   3.188   2.534   1.007 -1.1156  0.0310  1.5237
 7583SOL     OW24680   0.651   8.009   4.801 -0.0378  0.1288 -0.1366
 7583SOL    HW124681   0.683   7.980   4.886  1.5008 -0.9591 -1.0396
 7583SOL    HW224682   0.569   8.055   4.821  0.5538  0.3720  1.9580
 7584SOL     OW24683   7.161   2.359   1.179  0.2803 -0.6949  0.0045
 7584SOL    HW124684   7.205   2.361   1.264 -0.1579 -1.0990  0.2473
 7584SOL    HW224685   7.141   2.450   1.160 -1.4266 -0.7445  1.3081
 7585SOL     OW24686   4.303   3.549   4.259  0.1741  0.1672 -0.4192
 7585SOL    HW124687   4.299   3.522   4.167 -3.1043  0.9681 -0.6511
 7585SOL    HW224688   4.292   3.468   4.309  0.5839 -0.1011 -0.7545
 7586SOL     OW24689   1.463   3.164   2.383 -0.1945  0.2488  0.4679
 7586SOL    HW124690   1.488   3.103   2.314  0.3073  1.0663 -0.0968
 7586SOL    HW224691   1.546   3.196   2.418 -0.3935  2.0296 -0.5540
 7587SOL     OW24692   2.831   4.856   7.368  0.6456  0.2353 -0.3292
 7587SOL    HW124693   2.861   4.804   7.443  1.3198  0.9938 -0.0561
 7587SOL    HW224694   2.779   4.795   7.316  0.6662 -0.4654  0.4502
 7588SOL     OW24695   4.391   3.719   8.461  0.0544  0.4991  0.2014
 7588SOL    HW124696   4.315   3.735   8.518  0.2800  0.8881  0.3913
 7588SOL    HW224697   4.403   3.624   8.465 -0.6265  0.3919 -0.0898
 7589SOL     OW24698   3.166   2.964   1.862 -0.1068 -0.0744 -0.6808
 7589SOL    HW124699   3.227   3.029   1.828  1.2798  0.0770  1.8392
 7589SOL    HW224700   3.104   3.015   1.915 -0.2627 -0.5693 -0.3742
 7590SOL     OW24701   1.623   3.928   2.529 -0.4337 -0.1668 -0.0908
 7590SOL    HW124702   1.594   3.930   2.438 -1.2316 -0.2668  0.1542
 7590SOL    HW224703   1.562   3.869   2.573 -1.5634  1.7109  1.0019
 7591SOL     OW24704   5.691   4.592   0.141  0.3784  1.0241 -0.4526
 7591SOL    HW124705   5.722   4.652   0.074 -0.5697  2.1576  0.0759
 7591SOL    HW224706   5.712   4.636   0.224 -1.8163  1.4992 -0.0624
 7592SOL     OW24707   3.889   6.586   1.792 -0.0987  0.2418 -1.2153
 7592SOL    HW124708   3.890   6.648   1.865 -0.5199 -0.7806 -0.3182
 7592SOL    HW224709   3.958   6.523   1.812 -0.2234 -0.0568 -1.6942
 7593SOL     OW24710   3.233   7.578   6.283 -0.1595 -0.6043  0.0143
 7593SOL    HW124711   3.285   7.567   6.204  0.7370  0.0071  0.5029
 7593SOL    HW224712   3.235   7.492   6.325 -3.1017 -1.8610 -2.0120
 7594SOL     OW24713   7.974   8.049   7.656 -0.6333 -0.2453  0.7091
 7594SOL    HW124714   7.938   8.135   7.633 -1.1990 -0.1757  1.8071
 7594SOL    HW224715   8.069   8.065   7.663 -0.7712  0.3914  1.2929
 7595SOL     OW24716   7.297   2.798   5.243  0.4846  0.1174 -0.4602
 7595SOL    HW124717   7.310   2.870   5.181 -0.5155  0.2051 -0.5821
 7595SOL    HW224718   7.301   2.719   5.189 -2.0865  0.2577 -0.9865
 7596SOL     OW24719   0.009   3.064   2.662 -0.4723 -0.8349  0.2842
 7596SOL    HW124720  -0.031   3.149   2.681  1.7049  0.0400  1.3518
 7596SOL    HW224721  -0.027   3.005   2.729  0.0533 -0.0389  1.3073
 7597SOL     OW24722   8.667   2.390   1.463 -0.0407 -0.7864  0.7574
 7597SOL    HW124723   8.716   2.430   1.391  1.1580 -0.6324  1.6237
 7597SOL    HW224724   8.600   2.455   1.484  0.6615 -0.0730  0.8652
 7598SOL     OW24725   8.254   0.922   4.870 -0.1068 -0.5538  0.4232
 7598SOL    HW124726   8.181   0.971   4.909 -0.0972  0.4744 -0.7713
 7598SOL    HW224727   8.227   0.909   4.779  0.8562 -0.8702  0.1759
 7599SOL     OW24728   1.035   6.908   1.854  0.0275 -0.1990 -0.0610
 7599SOL    HW124729   0.990   6.898   1.770 -1.8892 -0.9710  0.9935
 7599SOL    HW224730   0.977   6.965   1.905  0.5389 -0.7544  1.1618
 7600SOL     OW24731   0.106   7.161   2.842 -0.6426 -0.4521 -0.1982
 7600SOL    HW124732   0.192   7.139   2.878  0.2381  0.1287 -1.8165
 7600SOL    HW224733   0.112   7.255   2.822 -1.1503 -0.6853 -1.5573
 7601SOL     OW24734   3.870   5.362   4.381 -0.2926  0.2806  0.0805
 7601SOL    HW124735   3.826   5.438   4.343  0.9297  1.5214  1.0420
 7601SOL    HW224736   3.904   5.313   4.306 -1.3712  0.4891 -0.5588
 7602SOL     OW24737   7.172   0.341   7.320 -0.0655 -0.1082  0.0836
 7602SOL    HW124738   7.156   0.381   7.405 -0.1224  2.1749 -0.9088
 7602SOL    HW224739   7.110   0.268   7.315 -0.6002  0.1989  1.6743
 7603SOL     OW24740   0.086   8.207   3.078  0.4385  0.1616 -0.2062
 7603SOL    HW124741   0.165   8.232   3.126 -0.3954  0.3571  1.1048
 7603SOL    HW224742   0.101   8.241   2.990  0.9908  1.9649  0.5274
 7604SOL     OW24743   3.987   6.358   8.046 -0.0336 -0.0443  0.4324
 7604SOL    HW124744   4.046   6.313   7.986  0.3262  0.9412  0.0415
 7604SOL    HW224745   3.902   6.358   8.002  0.5919  2.2167 -0.9294
 7605SOL     OW24746   1.207   0.221   2.162 -0.0509  0.7083 -0.6800
 7605SOL    HW124747   1.205   0.145   2.103  0.6626 -0.5562  0.8539
 7605SOL    HW224748   1.156   0.288   2.116 -1.1172 -0.8425 -1.8858
 7606SOL     OW24749   6.715   0.454   7.789 -0.4125 -0.2540 -0.4721
 7606SOL    HW124750   6.677   0.367   7.774 -0.5834 -0.3972  0.7100
 7606SOL    HW224751   6.761   0.446   7.872 -0.4655  0.8062 -0.3324
 7607SOL     OW24752   4.328   1.750   8.107 -0.4054 -0.6901  0.0796
 7607SOL    HW124753   4.366   1.815   8.166  0.8229 -1.2789 -0.0145
 7607SOL    HW224754   4.246   1.788   8.078 -0.1764  0.3847  0.7866
 7608SOL     OW24755   2.695   1.272   7.813 -0.2621  0.4080  0.7396
 7608SOL    HW124756   2.621   1.214   7.832  1.1427 -0.9346  2.4872
 7608SOL    HW224757   2.770   1.229   7.854  1.9321  0.7129 -2.5608
 7609SOL     OW24758   1.430   1.091   8.246  0.3496 -0.3079 -0.3732
 7609SOL    HW124759   1.491   1.142   8.300 -0.8256  0.2439  0.5015
 7609SOL    HW224760   1.361   1.153   8.224 -0.4456 -1.1822 -0.4088
 7610SOL     OW24761   6.923   0.778   6.551 -0.6378  0.2723 -0.2710
 7610SOL    HW124762   6.982   0.839   6.595  0.2813 -1.5949  1.2583
 7610SOL    HW224763   6.967   0.755   6.470  0.4906 -0.6171  0.5636
 7611SOL     OW24764   0.153   4.312   1.838 -0.1337 -0.0656 -0.2262
 7611SOL    HW124765   0.204   4.352   1.908  2.0686 -2.6436 -0.2007
 7611SOL    HW224766   0.070   4.360   1.837  0.3302  0.9972  3.1621
 7612SOL     OW24767   1.394   7.472   5.879 -0.5400 -0.0635 -0.0601
 7612SOL    HW124768   1.397   7.561   5.844 -1.1557 -0.3427 -0.8591
 7612SOL    HW224769   1.309   7.465   5.921 -1.0222 -0.6618 -1.1028
 7613SOL     OW24770   3.950   0.155   7.796 -0.1596  1.2578 -0.2890
 7613SOL    HW124771   3.991   0.221   7.854  1.9527  0.4533 -0.7562
 7613SOL    HW224772   3.956   0.073   7.845  0.6969  0.7618 -1.1767
 7614SOL     OW24773   0.073   5.530   3.429  0.2274 -0.2275  0.2776
 7614SOL    HW124774   0.007   5.533   3.499 -1.0571 -0.5760 -0.8652
 7614SOL    HW224775   0.138   5.467   3.461  0.1301  0.2676  1.5270
 7615SOL     OW24776   6.391   0.732   8.445 -0.2739 -0.4417  0.6958
 7615SOL    HW124777   6.327   0.781   8.496  0.5098 -0.8124  2.1038
 7615SOL    HW224778   6.415   0.658   8.501  0.1362 -1.2439 -0.5005
 7616SOL     OW24779   7.246   0.240   1.951 -0.0534 -0.0930  0.2214
 7616SOL    HW124780   7.203   0.157   1.971  0.3167 -0.8787 -1.9748
 7616SOL    HW224781   7.188   0.307   1.988 -1.9737 -1.2178 -0.6618
 7617SOL     OW24782   2.031   0.570   2.163 -0.1727 -0.1100 -0.3592
 7617SOL    HW124783   2.076   0.600   2.085 -0.6776  0.2547 -0.5156
 7617SOL    HW224784   2.037   0.474   2.159  0.3474 -0.0696 -0.5131
 7618SOL     OW24785   6.603   6.874   1.844  0.6246  0.6288  0.1489
 7618SOL    HW124786   6.631   6.826   1.922 -0.2209  1.2415  0.8422
 7618SOL    HW224787   6.585   6.963   1.875 -0.1997  0.7538 -0.6377
 7619SOL     OW24788   2.848   0.293   4.170 -0.2038  0.0753 -0.1675
 7619SOL    HW124789   2.831   0.333   4.255  2.4052 -2.5322  1.8107
 7619SOL    HW224790   2.932   0.329   4.143 -0.4074 -0.0866 -1.0493
 7620SOL     OW24791   3.691   2.874   1.890  0.5020  0.3733 -0.3831
 7620SOL    HW124792   3.664   2.798   1.838  1.1656 -0.3243  0.2795
 7620SOL    HW224793   3.694   2.946   1.827 -0.4411 -0.0699 -0.9581
 7621SOL     OW24794   4.635   5.363   3.781  0.1033  0.4153 -0.1530
 7621SOL    HW124795   4.718   5.394   3.816  0.4799 -0.0115 -0.6589
 7621SOL    HW224796   4.569   5.416   3.825  0.6479  0.8063  0.1961
 7622SOL     OW24797   7.804   1.960   3.569 -0.6352  0.6098  0.3666
 7622SOL    HW124798   7.772   1.979   3.480 -2.0395 -0.5842  0.5803
 7622SOL    HW224799   7.762   1.877   3.592  1.2967 -0.1219  1.3939
 7623SOL     OW24800   2.048   4.377   6.539 -0.2061 -0.2163 -0.3940
 7623SOL    HW124801   1.956   4.355   6.526 -0.5888  0.9167  0.2588
 7623SOL    HW224802   2.048   4.432   6.618  1.0424 -0.3002 -0.3205
 7624SOL     OW24803   5.097   5.078   8.405 -0.2824 -0.0073  0.2592
 7624SOL    HW124804   5.105   5.123   8.321 -1.3456  0.1075  0.2008
 7624SOL    HW224805   5.151   5.128   8.465 -0.1955  0.4129 -0.1674
 7625SOL     OW24806   7.976   3.861   4.739 -0.8140 -0.1212  0.0969
 7625SOL    HW124807   7.999   3.785   4.685 -2.5063  0.1399 -1.0909
 7625SOL    HW224808   8.032   3.931   4.707 -0.8164 -0.3302 -0.3795
 7626SOL     OW24809   4.678   2.386   0.685  0.5460 -0.3719  0.0955
 7626SOL    HW124810   4.696   2.425   0.771 -0.7753 -0.1281  0.2808
 7626SOL    HW224811   4.661   2.461   0.628  1.9209 -0.5006 -0.5373
 7627SOL     OW24812   2.125   3.120   8.226 -0.1062 -0.3338  0.3726
 7627SOL    HW124813   2.218   3.140   8.216  0.2087 -1.5871  0.5116
 7627SOL    HW224814   2.111   3.044   8.169 -1.2451  0.3416 -0.2831
 7628SOL     OW24815   1.495   1.678   3.825  0.0411 -0.2617 -0.4546
 7628SOL    HW124816   1.445   1.718   3.753 -1.6941 -0.8810  0.3432
 7628SOL    HW224817   1.502   1.748   3.891  0.0017 -0.2555 -0.4571
 7629SOL     OW24818   2.569   2.931   4.798  0.1520 -0.0932  0.3342
 7629SOL    HW124819   2.509   2.969   4.863 -0.9864 -1.7661  0.3460
 7629SOL    HW224820   2.541   2.968   4.715  1.2043  1.5742  0.6870
 7630SOL     OW24821   6.857   8.377   7.708  0.0729  0.2915 -0.1334
 7630SOL    HW124822   6.900   8.444   7.656 -0.0927  0.5305  0.0383
 7630SOL    HW224823   6.764   8.390   7.692 -0.1731  2.0371  2.2094
 7631SOL     OW24824   5.327   4.588   2.992  0.4947 -0.4543 -0.1160
 7631SOL    HW124825   5.257   4.639   2.951  0.6492  0.8153  1.1248
 7631SOL    HW224826   5.299   4.497   2.982 -1.2338  0.0109  0.1478
 7632SOL     OW24827   5.989   6.279   7.044 -0.1203  0.2713  0.6560
 7632SOL    HW124828   5.936   6.219   6.991 -0.9289  1.1278  0.4504
 7632SOL    HW224829   6.041   6.223   7.101 -1.8523 -0.6063  1.4341
 7633SOL     OW24830   4.819   7.726   2.240  0.5999  0.2593  0.0774
 7633SOL    HW124831   4.757   7.676   2.188  0.9962  2.0358 -2.2845
 7633SOL    HW224832   4.765   7.780   2.297  0.1178 -0.8068  0.6562
 7634SOL     OW24833   1.820   4.759   3.007 -0.2398 -0.4710  0.3307
 7634SOL    HW124834   1.903   4.804   2.991 -0.9921  1.1406  0.7715
 7634SOL    HW224835   1.756   4.829   3.015 -1.6007 -1.6714  0.3485
 7635SOL     OW24836   3.055   1.146   3.641  0.0788 -0.2865  0.0011
 7635SOL    HW124837   3.064   1.222   3.699  0.7099  1.0844 -1.7805
 7635SOL    HW224838   2.976   1.102   3.671 -0.7322  1.5108  0.6626
 7636SOL     OW24839   3.417   0.827   1.352 -0.5720  0.6309  0.1307
 7636SOL    HW124840   3.365   0.905   1.370 -1.3693  0.4083 -1.0865
 7636SOL    HW224841   3.370   0.756   1.395 -0.2572  0.7015  0.5979
 7637SOL     OW24842   2.875   8.572   4.556 -0.2224  0.1096 -0.2007
 7637SOL    HW124843   2.880   8.502   4.621 -0.2687  0.0078 -0.3067
 7637SOL    HW224844   2.959   8.569   4.510 -0.4579 -0.2753 -0.6143
 7638SOL     OW24845   2.989   7.270   7.801  0.3787 -0.1601 -0.0156
 7638SOL    HW124846   2.931   7.318   7.861  0.6353  0.4772 -0.2627
 7638SOL    HW224847   3.028   7.201   7.854  0.0586 -0.0484  0.3703
 7639SOL     OW24848   3.420   2.887   5.655 -0.1113  0.2700  0.4486
 7639SOL    HW124849   3.350   2.861   5.595 -0.9399  0.0481  1.4896
 7639SOL    HW224850   3.499   2.886   5.601 -1.0276  1.4972 -1.0121
 7640SOL     OW24851   5.964   7.837   3.963 -0.1099  0.5549 -0.1547
 7640SOL    HW124852   5.988   7.786   4.040 -3.0256  1.1643  1.2781
 7640SOL    HW224853   5.910   7.779   3.911  1.9104  0.1168 -1.9151
 7641SOL     OW24854   1.363   8.517   3.550  0.0856 -0.0012 -0.1268
 7641SOL    HW124855   1.366   8.578   3.624  1.9488 -0.1513 -0.0281
 7641SOL    HW224856   1.270   8.508   3.530 -0.5601 -0.5785  2.6981
 7642SOL     OW24857   6.433   2.861   2.077 -0.2664 -0.0378  0.3231
 7642SOL    HW124858   6.489   2.814   2.139  1.2980  1.2331 -0.0608
 7642SOL    HW224859   6.457   2.826   1.991  0.0729  0.6012  0.1467
 7643SOL     OW24860   5.310   2.127   0.775 -0.8289  0.3459 -0.6778
 7643SOL    HW124861   5.295   2.216   0.807 -1.1916 -0.6205  2.1089
 7643SOL    HW224862   5.400   2.106   0.803 -0.4864  0.0446 -1.9342
 7644SOL     OW24863   2.989   0.298   1.493  0.5969  0.1524  0.4327
 7644SOL    HW124864   3.057   0.356   1.457  1.7437 -0.0754  2.1189
 7644SOL    HW224865   3.018   0.210   1.469 -0.8960  0.1631 -1.7073
 7645SOL     OW24866   5.732   4.771   4.516  0.1056  0.1529  0.4332
 7645SOL    HW124867   5.753   4.831   4.444  0.8754 -2.1237 -1.3360
 7645SOL    HW224868   5.812   4.766   4.567 -0.2658  1.3350  1.1745
 7646SOL     OW24869   6.256   3.394   1.582  0.0266 -0.1278 -0.4933
 7646SOL    HW124870   6.279   3.466   1.523 -0.0851 -0.7619 -1.3397
 7646SOL    HW224871   6.162   3.383   1.569 -0.0845  0.0385  0.1693
 7647SOL     OW24872   3.369   3.139   1.733  0.3997  0.0998 -0.0899
 7647SOL    HW124873   3.460   3.122   1.756  0.6133  1.5459  0.2402
 7647SOL    HW224874   3.372   3.172   1.643 -0.0220 -1.6761 -0.7921
 7648SOL     OW24875   0.511   1.425   6.493  0.0232 -0.0792 -0.4728
 7648SOL    HW124876   0.577   1.376   6.541 -0.4126 -0.3215 -0.1052
 7648SOL    HW224877   0.446   1.449   6.559 -0.1637  0.3134 -0.7913
 7649SOL     OW24878   2.937   4.666   7.144  0.1617 -0.4011  0.4008
 7649SOL    HW124879   3.021   4.709   7.132 -0.2292 -0.0862 -1.5751
 7649SOL    HW224880   2.957   4.585   7.192  1.4307  0.1439  0.8077
 7650SOL     OW24881   0.611   2.690   0.468 -0.4883 -0.0518  0.3161
 7650SOL    HW124882   0.682   2.702   0.405 -1.3723 -2.1103 -1.1834
 7650SOL    HW224883   0.585   2.779   0.492  1.2775  0.7603 -0.6002
 7651SOL     OW24884   3.567   5.329   8.091  0.1344  0.3338  0.1888
 7651SOL    HW124885   3.606   5.337   8.004  0.3986 -0.4166  0.2278
 7651SOL    HW224886   3.611   5.396   8.144 -1.9872  2.7527 -0.9004
 7652SOL     OW24887   1.963   1.898   2.667 -0.4716 -0.6131 -0.2505
 7652SOL    HW124888   2.008   1.834   2.722 -0.1454 -2.1473 -2.2077
 7652SOL    HW224889   1.967   1.862   2.578 -0.8764  1.7987 -1.3518
 7653SOL     OW24890   4.786   4.613   2.515  0.2718  0.7028  0.2594
 7653SOL    HW124891   4.876   4.646   2.513  0.5347  0.1414  1.4997
 7653SOL    HW224892   4.750   4.646   2.598 -0.4635  0.4251  0.0592
 7654SOL     OW24893   4.084   1.137   2.645 -0.1768 -0.6886  0.6937
 7654SOL    HW124894   4.007   1.162   2.697 -0.5231 -1.7789  0.7318
 7654SOL    HW224895   4.071   1.044   2.626  1.0661 -0.8545  0.5676
 7655SOL     OW24896   7.658   8.543   2.076  0.1960 -0.2199  0.3463
 7655SOL    HW124897   7.748   8.512   2.061  1.5053  2.8211  1.0970
 7655SOL    HW224898   7.652   8.552   2.171 -1.3159 -1.3060  0.3906
 7656SOL     OW24899   6.390   3.239   2.236 -0.4452  0.4431  0.1854
 7656SOL    HW124900   6.397   3.206   2.325  0.4685  1.4819  0.5236
 7656SOL    HW224901   6.330   3.178   2.192 -0.3551 -0.4801  1.3014
 7657SOL     OW24902   5.134   5.103   5.187  0.4006 -0.2318 -0.4596
 7657SOL    HW124903   5.116   5.059   5.270 -0.0116  2.4755  1.0157
 7657SOL    HW224904   5.228   5.122   5.190  0.6753 -1.3620 -1.3127
 7658SOL     OW24905   0.144   8.606   5.862 -0.2655 -0.2212 -0.1602
 7658SOL    HW124906   0.105   8.537   5.807  1.5167 -0.0758 -1.6882
 7658SOL    HW224907   0.088   8.683   5.846 -1.4738 -0.9158  0.5265
 7659SOL     OW24908   6.535   2.203   6.517  0.3390 -0.2008  0.2872
 7659SOL    HW124909   6.617   2.244   6.491  0.7713 -1.0860  0.2241
 7659SOL    HW224910   6.560   2.136   6.581 -0.4665  0.3575  1.2405
 7660SOL     OW24911   8.041   2.577   2.509  0.3084 -0.2261 -0.0279
 7660SOL    HW124912   7.956   2.622   2.506 -0.9202 -2.1041  2.4455
 7660SOL    HW224913   8.027   2.497   2.459  0.1770 -1.1168  1.3865
 7661SOL     OW24914   4.600   7.167   8.666 -0.3444 -0.7171 -0.0913
 7661SOL    HW124915   4.525   7.218   8.697  1.1395  1.4015  0.2555
 7661SOL    HW224916   4.587   7.080   8.703 -2.1518 -0.1558  0.7054
 7662SOL     OW24917   4.324   2.781   2.010  0.0113  0.3149  0.4669
 7662SOL    HW124918   4.265   2.842   1.967 -0.5355 -0.3889  0.1925
 7662SOL    HW224919   4.353   2.827   2.089 -1.3051  0.4925  0.8715
 7663SOL     OW24920   3.273   4.918   5.127  0.2374 -0.4400  0.8297
 7663SOL    HW124921   3.309   4.991   5.077 -1.6855  0.5691  0.8028
 7663SOL    HW224922   3.309   4.928   5.215  0.6002  0.0776  0.6232
 7664SOL     OW24923   4.923   4.600   4.650  0.5851  0.3892 -0.0028
 7664SOL    HW124924   4.920   4.514   4.610  0.0775  0.2143  0.4002
 7664SOL    HW224925   4.990   4.594   4.718  2.0759  0.9373 -1.3686
 7665SOL     OW24926   3.849   4.064   0.059  1.0090 -0.1806  0.2088
 7665SOL    HW124927   3.777   4.014   0.021  0.4341  1.1539 -0.5140
 7665SOL    HW224928   3.872   4.017   0.139 -0.4795 -0.7785  0.3049
 7666SOL     OW24929   3.953   7.198   8.786  0.0421 -0.1007  0.1209
 7666SOL    HW124930   3.907   7.161   8.862 -0.2209 -0.4177 -0.1897
 7666SOL    HW224931   4.042   7.166   8.795 -0.2540 -1.0829 -0.3107
 7667SOL     OW24932   0.256   8.114   8.739 -0.1663 -0.1470 -0.3764
 7667SOL    HW124933   0.289   8.034   8.778 -0.4263  0.1357  0.4663
 7667SOL    HW224934   0.167   8.123   8.774  0.5435  1.5327  1.1904
 7668SOL     OW24935   6.911   1.515   3.303 -0.0589 -0.4033  0.3136
 7668SOL    HW124936   6.874   1.593   3.343  0.6499 -1.2383  2.7734
 7668SOL    HW224937   6.994   1.543   3.266  0.5999 -0.1371  1.9558
 7669SOL     OW24938   6.489   7.901   8.611 -0.2671 -0.4050  0.1857
 7669SOL    HW124939   6.427   7.830   8.590 -2.1607  1.7510 -2.1956
 7669SOL    HW224940   6.448   7.980   8.575  2.8476  1.5699  0.6076
 7670SOL     OW24941   2.114   0.367   5.664 -0.0302 -0.2999 -0.0366
 7670SOL    HW124942   2.197   0.321   5.680  0.0415  0.0618  0.6710
 7670SOL    HW224943   2.049   0.297   5.665  0.1942 -0.5134  0.0364
 7671SOL     OW24944   1.732   0.571   1.331 -0.0140 -0.6313 -0.5689
 7671SOL    HW124945   1.665   0.634   1.305 -1.0276 -1.1930  0.5975
 7671SOL    HW224946   1.776   0.548   1.248 -1.0346  0.0008 -1.3127
 7672SOL     OW24947   6.832   3.965   2.916 -0.1247 -0.0741  0.7257
 7672SOL    HW124948   6.899   4.031   2.934 -0.9435  1.2631 -0.9286
 7672SOL    HW224949   6.765   3.979   2.983  0.1894  0.0605  1.0180
 7673SOL     OW24950   0.517   4.877   3.028  0.1312  0.0463 -0.1679
 7673SOL    HW124951   0.506   4.809   3.094  1.0774 -1.2113 -1.2553
 7673SOL    HW224952   0.445   4.863   2.967 -0.3735  0.8078  0.2325
 7674SOL     OW24953   8.594   4.255   2.051 -0.3119  0.1482 -0.0374
 7674SOL    HW124954   8.544   4.332   2.027 -0.4628 -0.0533 -0.3796
 7674SOL    HW224955   8.567   4.188   1.988 -0.4968 -0.3055  0.5178
 7675SOL     OW24956   0.182   6.666   4.455 -0.0794 -0.3037 -0.4599
 7675SOL    HW124957   0.225   6.684   4.538 -1.0760  0.3602 -0.0731
 7675SOL    HW224958   0.090   6.651   4.478  0.1465 -3.1596 -1.0824
 7676SOL     OW24959   5.913   2.883   4.049 -0.1471 -0.7882 -0.1489
 7676SOL    HW124960   5.968   2.959   4.033 -0.2583 -0.7100 -0.1628
 7676SOL    HW224961   5.877   2.860   3.963 -1.6216  0.3090  0.1349
 7677SOL     OW24962   3.233   0.375   6.131 -0.3912  0.4797  0.0798
 7677SOL    HW124963   3.308   0.424   6.098  0.4734 -0.7923  0.0860
 7677SOL    HW224964   3.172   0.371   6.057  1.0419 -1.3779 -1.0862
 7678SOL     OW24965   1.591   3.999   0.260  0.5533 -0.4786 -0.0860
 7678SOL    HW124966   1.670   4.048   0.236  0.9451  0.5417  2.9114
 7678SOL    HW224967   1.619   3.908   0.261  1.4854 -0.2049  0.1662
 7679SOL     OW24968   8.411   2.710   5.373 -0.1279 -0.5810 -0.2041
 7679SOL    HW124969   8.396   2.638   5.313  1.5837 -0.8611 -0.3295
 7679SOL    HW224970   8.503   2.734   5.361 -0.2778  0.6784  0.8595
 7680SOL     OW24971   8.511   8.103   0.587  0.4964  0.2070 -0.4651
 7680SOL    HW124972   8.530   8.138   0.673  0.9158 -2.9099  0.8547
 7680SOL    HW224973   8.595   8.071   0.554 -0.2522 -2.4939 -0.0346
 7681SOL     OW24974   4.888   6.978   4.811  0.1766 -0.0646  0.7573
 7681SOL    HW124975   4.882   6.947   4.720  0.0389 -0.7586  1.0052
 7681SOL    HW224976   4.799   6.966   4.846  0.1800  0.3872  0.9277
 7682SOL     OW24977   6.747   1.241   7.332 -0.9218 -0.4413  0.6415
 7682SOL    HW124978   6.679   1.194   7.283  0.5351 -1.1430 -0.8124
 7682SOL    HW224979   6.827   1.226   7.281  0.0558  1.5686  1.5030
 7683SOL     OW24980   6.093   4.073   4.911  0.4265  0.2253  1.0032
 7683SOL    HW124981   6.151   4.125   4.966  1.1785  1.1152 -0.5717
 7683SOL    HW224982   6.069   4.132   4.839 -1.4004 -0.5390  0.9148
 7684SOL     OW24983   8.222   4.682   3.343  0.5075 -0.3616 -0.5461
 7684SOL    HW124984   8.174   4.638   3.273  0.5466 -0.1999 -0.6742
 7684SOL    HW224985   8.265   4.755   3.300  3.3534 -2.1745 -1.0422
 7685SOL     OW24986   6.175   0.348   3.318 -0.1210  0.0634 -0.0637
 7685SOL    HW124987   6.269   0.355   3.301  0.3674 -3.3375  0.4349
 7685SOL    HW224988   6.168   0.346   3.413 -0.6181 -0.3524 -0.1023
 7686SOL     OW24989   0.655   4.749   7.479 -0.3156  0.0961 -0.3358
 7686SOL    HW124990   0.673   4.656   7.474  1.3688  0.3684 -0.0710
 7686SOL    HW224991   0.572   4.761   7.432  0.0600 -1.3594 -1.4316
 7687SOL     OW24992   8.026   0.645   8.457 -0.2768 -0.0049 -0.0146
 7687SOL    HW124993   7.934   0.632   8.480  0.4334 -1.3063  2.4850
 7687SOL    HW224994   8.035   0.740   8.448 -1.7737  0.1754  0.0532
 7688SOL     OW24995   0.818   2.641   3.438  0.1418 -0.4944  0.1299
 7688SOL    HW124996   0.862   2.662   3.521 -0.7688  0.4246  0.3994
 7688SOL    HW224997   0.882   2.587   3.390  0.0273 -2.6284  2.1670
 7689SOL     OW24998   5.134   3.772   5.115  0.1612  0.3934  0.7118
 7689SOL    HW124999   5.087   3.749   5.196 -0.2499  0.1273  0.3972
 7689SOL    HW225000   5.077   3.837   5.073  1.1989  1.8579  1.4847
 7690SOL     OW25001   6.703   0.379   2.980 -0.1367 -0.4265  0.2573
 7690SOL    HW125002   6.724   0.453   2.924  2.6044  0.1364  1.8882
 7690SOL    HW225003   6.700   0.304   2.920 -1.1757  0.6672 -1.1452
 7691SOL     OW25004   4.336   8.281   8.534  0.1565 -0.1896 -0.5373
 7691SOL    HW125005   4.315   8.325   8.452  0.4582  0.7033 -0.1518
 7691SOL    HW225006   4.431   8.290   8.543 -0.2166  2.9650  1.6499
 7692SOL     OW25007   2.197   1.603   1.456  0.1189  0.2169  0.7936
 7692SOL    HW125008   2.121   1.544   1.453  0.4127 -0.1428  0.2917
 7692SOL    HW225009   2.161   1.690   1.446 -0.0032 -0.1097 -2.5694
 7693SOL     OW25010   7.173   5.643   1.477  0.0031 -0.3004 -0.2842
 7693SOL    HW125011   7.185   5.725   1.429  0.2368 -0.6470 -0.8269
 7693SOL    HW225012   7.221   5.578   1.426  1.4098 -0.4307  1.1483
 7694SOL     OW25013   4.160   2.888   1.718 -0.0456 -0.1622 -0.1906
 7694SOL    HW125014   4.174   2.964   1.773  0.1357 -1.7797  2.1321
 7694SOL    HW225015   4.070   2.859   1.738  0.0891 -0.8962 -0.5862
 7695SOL     OW25016   0.975   4.496   1.459 -0.5150 -0.1184  0.2415
 7695SOL    HW125017   1.065   4.472   1.482 -1.1973 -1.3171  1.7256
 7695SOL    HW225018   0.979   4.513   1.364  1.4431  0.7261  0.4317
 7696SOL     OW25019   7.782   7.454   2.962  0.7118  0.4390  0.2175
 7696SOL    HW125020   7.718   7.386   2.940  1.4401  0.4186 -2.2230
 7696SOL    HW225021   7.735   7.536   2.951  0.2744  0.3758  1.5454
 7697SOL     OW25022   2.633   1.329   0.237  0.3971 -0.0030 -0.5056
 7697SOL    HW125023   2.548   1.287   0.231 -0.3797  1.7214 -2.7798
 7697SOL    HW225024   2.669   1.326   0.148  1.3838  1.8606 -0.2296
 7698SOL     OW25025   3.692   3.148   4.774  0.0189 -0.1579 -0.7498
 7698SOL    HW125026   3.693   3.052   4.784 -0.4932 -0.0530  0.5563
 7698SOL    HW225027   3.675   3.181   4.862 -0.9756  1.1016 -1.3792
 7699SOL     OW25028   1.445   5.607   2.631 -0.3012  0.2166 -0.1296
 7699SOL    HW125029   1.443   5.586   2.537 -1.2592 -4.9415  0.7312
 7699SOL    HW225030   1.535   5.590   2.657 -0.3980  0.1212  0.1400
 7700SOL     OW25031   0.016   1.517   3.818  0.3677  0.0640 -0.3148
 7700SOL    HW125032   0.055   1.436   3.851  0.8106  1.0919  1.8900
 7700SOL    HW225033  -0.056   1.535   3.879 -1.3125  0.0672 -2.2281
 7701SOL     OW25034   3.890   2.713   2.033 -0.2643  0.4050  0.2985
 7701SOL    HW125035   3.801   2.715   2.068 -0.6958 -0.0676 -0.7205
 7701SOL    HW225036   3.935   2.784   2.078 -0.7183 -0.3094  1.9407
 7702SOL     OW25037   7.440   4.720   0.255  0.2119 -0.0591 -0.3835
 7702SOL    HW125038   7.379   4.770   0.310 -1.1566 -1.2309 -0.7806
 7702SOL    HW225039   7.423   4.752   0.166  1.2230  0.6218 -0.3508
 7703SOL     OW25040   5.203   0.212   2.207  0.6073  0.1327 -0.2538
 7703SOL    HW125041   5.267   0.165   2.153  0.5518  0.5701 -0.7008
 7703SOL    HW225042   5.179   0.288   2.155  1.5805  1.3068  0.9485
 7704SOL     OW25043   4.177   6.966   1.314  0.1885 -0.4357 -0.0533
 7704SOL    HW125044   4.098   6.987   1.264  0.2142  0.7434  0.3632
 7704SOL    HW225045   4.241   7.033   1.288  1.6973 -2.4182 -1.7331
 7705SOL     OW25046   8.816   2.929   2.916  0.1711 -0.1005 -0.8190
 7705SOL    HW125047   8.722   2.925   2.933 -0.5345 -2.1740 -4.2922
 7705SOL    HW225048   8.855   2.872   2.983 -1.0585  0.2264  0.2280
 7706SOL     OW25049   3.665   7.642   1.894 -0.1045 -0.1396 -0.2341
 7706SOL    HW125050   3.589   7.599   1.933 -1.1023  0.5001 -1.4074
 7706SOL    HW225051   3.700   7.696   1.966 -0.5480 -0.7002  0.4227
 7707SOL     OW25052   2.034   0.202   1.862  0.0098  0.2188  0.5347
 7707SOL    HW125053   2.014   0.295   1.848 -2.1842 -0.3740 -0.8086
 7707SOL    HW225054   1.952   0.165   1.893  0.5918 -1.4600  0.1446
 7708SOL     OW25055   0.752   7.942   3.411  0.1843  0.0866 -0.1774
 7708SOL    HW125056   0.763   7.880   3.483 -1.7494 -0.0295  0.0757
 7708SOL    HW225057   0.841   7.967   3.387  0.8850  0.2421  2.3192
 7709SOL     OW25058   5.277   5.043   3.668 -0.9025  0.0130  0.4226
 7709SOL    HW125059   5.312   5.106   3.730  0.3950 -1.0930  0.8711
 7709SOL    HW225060   5.225   4.983   3.722 -0.0933 -0.7230  0.4041
 7710SOL     OW25061   2.722   0.439   4.360  0.7481 -0.0257  0.1096
 7710SOL    HW125062   2.697   0.453   4.451  0.5508 -1.2014  0.2568
 7710SOL    HW225063   2.642   0.455   4.310  0.6352 -0.2219  0.2273
 7711SOL     OW25064   8.557   5.532   0.172 -0.3007 -0.1107 -0.0476
 7711SOL    HW125065   8.644   5.542   0.134 -0.5133 -1.0678 -0.8466
 7711SOL    HW225066   8.566   5.456   0.230 -0.5237 -0.0073  0.1208
 7712SOL     OW25067   0.658   6.120   2.343  0.6377  0.5861 -0.1620
 7712SOL    HW125068   0.566   6.120   2.318  0.0163  2.6399  1.7556
 7712SOL    HW225069   0.692   6.036   2.312 -1.4615  0.4067 -2.2518
 7713SOL     OW25070   2.367   3.611   2.696 -0.2717  0.2013 -0.1548
 7713SOL    HW125071   2.360   3.655   2.612  2.1507 -0.5832 -0.8636
 7713SOL    HW225072   2.330   3.524   2.680  0.5252 -0.0762 -0.5499
 7714SOL     OW25073   3.528   4.183   3.937  0.5316 -0.3527  0.2225
 7714SOL    HW125074   3.549   4.194   4.029 -0.6357 -0.2333  0.4963
 7714SOL    HW225075   3.597   4.231   3.890 -0.4980  2.2084  1.1437
 7715SOL     OW25076   0.886   1.296   8.388  0.3744 -0.4857  0.1649
 7715SOL    HW125077   0.827   1.288   8.463  2.3082 -1.4543  1.6566
 7715SOL    HW225078   0.840   1.356   8.328 -1.6975 -0.5106  1.6183
 7716SOL     OW25079   0.883   7.025   7.076 -0.1046  0.4465  0.5559
 7716SOL    HW125080   0.841   6.942   7.095 -0.2899  0.0472 -1.3503
 7716SOL    HW225081   0.818   7.092   7.098 -1.3067 -0.1009 -1.1632
 7717SOL     OW25082   2.998   6.195   7.173 -0.0985 -0.1881  0.2081
 7717SOL    HW125083   3.013   6.128   7.239  1.0169  1.2864  1.5590
 7717SOL    HW225084   2.974   6.273   7.223  0.2733  0.8485 -1.1569
 7718SOL     OW25085   8.161   6.356   1.913 -0.4808 -0.0131  0.2896
 7718SOL    HW125086   8.100   6.422   1.946 -2.0092 -0.6348 -1.1673
 7718SOL    HW225087   8.201   6.396   1.836 -0.4168 -0.2912  0.1783
 7719SOL     OW25088   6.428   1.202   6.623  0.1172 -0.3577  0.2585
 7719SOL    HW125089   6.518   1.170   6.620  0.1744 -0.1341 -0.6110
 7719SOL    HW225090   6.377   1.129   6.658  0.6419 -0.4528  0.8426
 7720SOL     OW25091   1.688   8.174   7.188  0.1060 -0.1235  0.1033
 7720SOL    HW125092   1.592   8.169   7.193  0.1644 -0.2524  1.8537
 7720SOL    HW225093   1.712   8.104   7.127 -0.8001 -1.8188  1.5871
 7721SOL     OW25094   7.722   1.135   8.821 -0.2141 -0.0674  0.4842
 7721SOL    HW125095   7.786   1.063   8.820 -1.3588 -1.1393 -0.7246
 7721SOL    HW225096   7.714   1.159   8.913 -1.6126 -3.2450  1.3584
 7722SOL     OW25097   4.748   0.393   7.836  0.3056 -0.0054  0.3656
 7722SOL    HW125098   4.820   0.441   7.794 -0.2219  1.0637  0.6511
 7722SOL    HW225099   4.694   0.365   7.763  0.9558 -0.7377  0.1535
 7723SOL     OW25100   4.786   5.756   2.416 -0.6573 -0.1567 -0.1801
 7723SOL    HW125101   4.766   5.680   2.470  0.3586  0.7203  1.5179
 7723SOL    HW225102   4.847   5.724   2.350  1.1840 -0.4887  1.6156
 7724SOL     OW25103   3.232   3.183   0.826  0.1077 -0.2966  0.2164
 7724SOL    HW125104   3.138   3.165   0.830  0.2516 -1.2764 -0.5440
 7724SOL    HW225105   3.238   3.273   0.793 -0.5433 -1.1644 -2.4789
 7725SOL     OW25106   4.800   1.532   4.625  0.2401 -0.1694 -0.6358
 7725SOL    HW125107   4.896   1.539   4.621  0.3483  0.0750  1.5431
 7725SOL    HW225108   4.780   1.532   4.718 -1.9568  0.4110 -1.0709
 7726SOL     OW25109   4.114   2.344   3.344 -0.3463  0.3619  0.2228
 7726SOL    HW125110   4.172   2.352   3.269  0.0219  1.6182  0.6247
 7726SOL    HW225111   4.031   2.313   3.306 -0.0116  0.4605 -0.6140
 7727SOL     OW25112   3.493   1.365   3.184 -0.7311 -0.3659  0.2023
 7727SOL    HW125113   3.413   1.313   3.191 -1.1496  0.1886 -0.3743
 7727SOL    HW225114   3.466   1.445   3.141  0.1294 -0.1366  0.0687
 7728SOL     OW25115   5.738   0.685   5.600  0.1365 -0.0772 -0.3651
 7728SOL    HW125116   5.700   0.604   5.567 -1.8854  1.1570 -1.1871
 7728SOL    HW225117   5.738   0.745   5.526  0.4845  1.0745  0.5279
 7729SOL     OW25118   2.380   4.491   1.684 -0.3694 -0.0284  0.3692
 7729SOL    HW125119   2.301   4.469   1.735  0.0987  1.8243  2.0080
 7729SOL    HW225120   2.434   4.412   1.689 -0.3038  0.0867  2.9042
 7730SOL     OW25121   0.620   2.718   6.060 -0.0315 -0.0612  0.6940
 7730SOL    HW125122   0.560   2.694   5.989 -0.9984  2.2988  0.6084
 7730SOL    HW225123   0.708   2.704   6.024 -0.5242 -0.3682 -0.4157
 7731SOL     OW25124   0.693   8.452   1.631  0.1373 -0.7107 -0.5677
 7731SOL    HW125125   0.738   8.405   1.701 -1.0837 -1.2458 -0.1202
 7731SOL    HW225126   0.601   8.430   1.643 -0.1735 -0.1946 -1.8825
 7732SOL     OW25127   5.406   0.275   3.294 -0.2211  0.1184 -0.0441
 7732SOL    HW125128   5.475   0.301   3.234  0.2779  0.5052  0.6773
 7732SOL    HW225129   5.360   0.203   3.250 -0.3050  0.8499 -1.1714
 7733SOL     OW25130   7.172   5.437   3.262 -0.0313  0.7374 -0.4334
 7733SOL    HW125131   7.118   5.362   3.235 -0.4508  1.1515 -0.7598
 7733SOL    HW225132   7.247   5.397   3.306 -1.0311  0.1862  0.8410
 7734SOL     OW25133   1.402   8.219   6.303 -0.3524 -0.3752  0.4239
 7734SOL    HW125134   1.365   8.197   6.218 -0.5823 -0.5277  0.5643
 7734SOL    HW225135   1.387   8.313   6.313  0.5606 -0.1552 -0.1416
 7735SOL     OW25136   0.503   3.893   0.243  0.5362  0.2083  0.0628
 7735SOL    HW125137   0.580   3.912   0.189 -0.9200  1.9853 -1.5256
 7735SOL    HW225138   0.522   3.933   0.328  1.9553 -0.6907  0.1908
 7736SOL     OW25139   7.848   7.021   4.820 -0.4826  0.1472  0.2229
 7736SOL    HW125140   7.918   6.964   4.852  0.3778 -0.8753 -2.9918
 7736SOL    HW225141   7.769   6.968   4.828  0.1680 -1.3166 -1.8476
 7737SOL     OW25142   1.872   1.611   6.661 -0.1683  0.1851 -0.1292
 7737SOL    HW125143   1.874   1.660   6.744  0.8182 -1.1868  0.7025
 7737SOL    HW225144   1.780   1.590   6.648 -0.4475  1.1577  0.1532
 7738SOL     OW25145   3.370   8.323   0.673  0.3520 -0.3387  0.1440
 7738SOL    HW125146   3.446   8.379   0.687  0.3765 -0.0536 -1.0564
 7738SOL    HW225147   3.354   8.327   0.579 -0.2179 -1.6178  0.1718
 7739SOL     OW25148   3.934   8.237   3.191  0.2736 -0.2920 -0.1354
 7739SOL    HW125149   3.974   8.153   3.166  1.8406  0.5990 -0.7341
 7739SOL    HW225150   3.998   8.303   3.165 -1.0043  1.1217  0.1751
 7740SOL     OW25151   0.882   1.976   4.298 -0.2909 -0.4967 -0.4982
 7740SOL    HW125152   0.837   1.918   4.236  2.3796 -0.6512 -2.4700
 7740SOL    HW225153   0.849   2.063   4.278 -1.5282 -0.8635 -0.1445
 7741SOL     OW25154   2.933   4.342   8.291 -0.3581 -0.0702  0.5381
 7741SOL    HW125155   2.846   4.382   8.285 -0.0957  0.2882 -1.6292
 7741SOL    HW225156   2.994   4.417   8.293  0.0301 -0.2627 -1.5357
 7742SOL     OW25157   5.038   6.172   3.560  0.6853 -0.5204 -0.4753
 7742SOL    HW125158   5.119   6.189   3.607  0.1269  0.8543  0.0382
 7742SOL    HW225159   4.982   6.248   3.579 -1.6716 -2.4966  1.2086
 7743SOL     OW25160   3.902   0.213   6.082 -0.4799  0.2826  0.3451
 7743SOL    HW125161   3.913   0.289   6.139  3.0242  0.4473 -0.3119
 7743SOL    HW225162   3.900   0.139   6.141  0.7230  0.6205  0.8446
 7744SOL     OW25163   8.368   8.573   3.070  0.4222 -0.1079  0.0649
 7744SOL    HW125164   8.460   8.586   3.048  0.3258 -1.2143 -1.1017
 7744SOL    HW225165   8.365   8.582   3.166  1.5870  0.7254  0.0474
 7745SOL     OW25166   1.575   3.840   6.795 -0.0709 -0.0157  0.2737
 7745SOL    HW125167   1.520   3.918   6.793  1.3718  1.2765  3.4257
 7745SOL    HW225168   1.570   3.810   6.886  1.3412 -2.1644 -0.2923
 7746SOL     OW25169   4.353   7.987   8.433  0.3224 -0.5771 -0.2450
 7746SOL    HW125170   4.327   8.061   8.488  0.3927 -2.0303  1.8048
 7746SOL    HW225171   4.375   7.917   8.494  1.9047 -1.7893 -2.0875
 7747SOL     OW25172   4.728   1.594   5.445  0.1864  0.0557 -0.6595
 7747SOL    HW125173   4.728   1.684   5.413 -0.9954  0.3996  0.2619
 7747SOL    HW225174   4.727   1.602   5.540 -1.3195 -0.8959 -0.5594
 7748SOL     OW25175   8.436   6.534   1.811 -0.1605  0.2608 -0.1753
 7748SOL    HW125176   8.407   6.568   1.896  0.6499 -0.8263  0.5679
 7748SOL    HW225177   8.449   6.441   1.826  1.9137  0.3741 -0.9387
 7749SOL     OW25178   0.472   3.253   7.878 -0.1134  0.3454 -0.3607
 7749SOL    HW125179   0.532   3.320   7.845 -1.3083  1.3116 -0.6576
 7749SOL    HW225180   0.473   3.264   7.973  0.1257  0.3930 -0.3681
 7750SOL     OW25181   8.269   5.579   3.827 -0.0601  0.0380 -0.2533
 7750SOL    HW125182   8.198   5.514   3.835 -0.3866  0.6244  2.0843
 7750SOL    HW225183   8.245   5.630   3.749 -1.4385 -0.6761 -0.3324
 7751SOL     OW25184   5.811   4.610   2.502 -0.6083  0.0521 -0.0580
 7751SOL    HW125185   5.799   4.692   2.549  0.0357 -0.3410  0.8245
 7751SOL    HW225186   5.722   4.578   2.488 -0.8580 -0.8049  2.7450
 7752SOL     OW25187   7.525   5.478   1.445 -0.1774  0.2533 -0.2415
 7752SOL    HW125188   7.519   5.573   1.432  0.7177  0.4838  0.8687
 7752SOL    HW225189   7.593   5.467   1.511 -1.1797 -1.0916  0.6323
 7753SOL     OW25190   5.186   6.477   6.667 -0.1692  0.0556  0.2205
 7753SOL    HW125191   5.131   6.544   6.625  1.1001 -0.0103 -1.7031
 7753SOL    HW225192   5.245   6.526   6.724 -0.6240  0.3576  0.4360
 7754SOL     OW25193   8.486   1.836   0.706  0.1058  0.3999  0.0475
 7754SOL    HW125194   8.535   1.903   0.753  2.4148 -1.1419  0.0285
 7754SOL    HW225195   8.523   1.837   0.617 -1.9337  1.0868 -0.8420
 7755SOL     OW25196   0.955   7.043   8.529  0.3759 -0.3823  0.2262
 7755SOL    HW125197   0.989   7.114   8.584 -1.1743  1.6210 -1.2691
 7755SOL    HW225198   1.003   7.051   8.447 -1.0819  0.1542 -0.6046
 7756SOL     OW25199   2.274   0.082   6.165 -0.4024  0.8031  0.2675
 7756SOL    HW125200   2.281   0.154   6.102 -0.8457  0.2055 -0.4773
 7756SOL    HW225201   2.303   0.120   6.248  0.4934  1.5174 -0.3569
 7757SOL     OW25202   3.198   0.038   5.678 -0.1274  0.1681  0.4459
 7757SOL    HW125203   3.150   0.113   5.641  1.6078  0.0366 -2.3415
 7757SOL    HW225204   3.276   0.077   5.718  0.4758 -0.0875 -0.4706
 7758SOL     OW25205   5.687   1.125   4.052  0.1399  0.4336  0.5778
 7758SOL    HW125206   5.633   1.087   4.122  0.8971 -0.1004  0.8846
 7758SOL    HW225207   5.723   1.205   4.090 -1.4042  1.4601 -0.0469
 7759SOL     OW25208   4.880   7.198   0.384  0.4322 -0.4339 -0.0070
 7759SOL    HW125209   4.829   7.194   0.465  0.3558  0.3877 -0.0061
 7759SOL    HW225210   4.857   7.119   0.337  1.0587 -1.3296  1.1212
 7760SOL     OW25211   5.104   7.350   7.289 -0.2972  0.0348 -0.0879
 7760SOL    HW125212   5.100   7.334   7.195  0.7116  0.0629 -0.1419
 7760SOL    HW225213   5.045   7.285   7.327  0.6266 -1.1531 -0.6162
 7761SOL     OW25214   4.131   1.822   1.939  0.2579 -0.2007  0.0516
 7761SOL    HW125215   4.116   1.794   1.849  0.7493 -0.7599  0.1379
 7761SOL    HW225216   4.065   1.775   1.990 -0.6780  0.8780 -0.1235
 7762SOL     OW25217   7.055   4.534   8.820 -0.1368  0.6398 -0.2164
 7762SOL    HW125218   7.039   4.558   8.911  2.0163  0.4547  0.2608
 7762SOL    HW225219   7.069   4.439   8.823 -0.0158  0.6380 -0.7375
 7763SOL     OW25220   6.231   4.089   0.374 -0.5559 -0.3134  0.0890
 7763SOL    HW125221   6.225   4.004   0.330  1.6990 -0.7060  0.3884
 7763SOL    HW225222   6.245   4.067   0.466 -0.2632  0.3945  0.2204
 7764SOL     OW25223   4.518   2.599   6.164 -0.5914 -0.4318  0.1574
 7764SOL    HW125224   4.510   2.675   6.222 -1.7907 -1.3220  1.2287
 7764SOL    HW225225   4.439   2.548   6.181  0.4487 -2.2140 -0.1078
 7765SOL     OW25226   8.777   3.722   2.616 -0.2417 -0.5680  0.1099
 7765SOL    HW125227   8.707   3.711   2.552 -2.1280  1.2347  1.6827
 7765SOL    HW225228   8.740   3.784   2.680  2.5842 -0.0478  1.3703
 7766SOL     OW25229   5.969   7.238   7.110  0.3258  0.1808 -0.1836
 7766SOL    HW125230   5.929   7.306   7.165  0.6353  0.7528 -0.6605
 7766SOL    HW225231   5.976   7.162   7.168 -0.7712  0.2915  0.1290
 7767SOL     OW25232   2.654   3.230   5.660 -0.5170 -0.4065  0.2123
 7767SOL    HW125233   2.575   3.259   5.706 -1.1378 -0.2857 -0.9071
 7767SOL    HW225234   2.703   3.311   5.645  1.0258 -0.6919  2.9717
 7768SOL     OW25235   8.170   3.333   4.652  0.6606 -0.0013  0.4081
 7768SOL    HW125236   8.198   3.329   4.743  2.1408  0.2183 -0.0081
 7768SOL    HW225237   8.158   3.241   4.627  1.9462 -0.1768  0.3550
 7769SOL     OW25238   6.847   5.712   4.432  0.3391 -0.1707  0.0258
 7769SOL    HW125239   6.752   5.714   4.450 -0.0905  1.3329 -2.0698
 7769SOL    HW225240   6.887   5.730   4.517 -1.2601 -0.1950  0.8367
 7770SOL     OW25241   7.977   8.486   0.248  0.1337 -0.4917  0.0077
 7770SOL    HW125242   7.941   8.494   0.159 -1.9443  0.0067  0.8225
 7770SOL    HW225243   7.993   8.392   0.258  0.6397 -0.5254 -0.9757
 7771SOL     OW25244   2.624   1.450   6.691 -0.2188 -0.0604  0.5307
 7771SOL    HW125245   2.595   1.424   6.604  0.1317 -1.8101  0.9046
 7771SOL    HW225246   2.647   1.543   6.682 -0.3724 -0.1589 -1.1753
 7772SOL     OW25247   4.339   1.496   7.519 -0.1530 -0.3677  0.1954
 7772SOL    HW125248   4.310   1.486   7.610 -2.7983  2.2681 -0.2093
 7772SOL    HW225249   4.284   1.436   7.469  0.5557 -1.0234  0.1782
 7773SOL     OW25250   5.100   8.494   7.990  0.4198 -0.7692  0.1843
 7773SOL    HW125251   5.157   8.507   8.065  0.3455 -1.3803  0.3441
 7773SOL    HW225252   5.056   8.579   7.979  0.5122 -0.6467  0.7517
 7774SOL     OW25253   8.261   8.246   2.561  0.0321 -0.3155  0.0362
 7774SOL    HW125254   8.329   8.212   2.619 -0.3512 -0.1299  0.6021
 7774SOL    HW225255   8.180   8.236   2.611 -0.0106  2.2495  0.6014
 7775SOL     OW25256   3.697   2.200   3.599  0.3174  0.1118 -0.4839
 7775SOL    HW125257   3.667   2.284   3.634  2.3154  0.3054  0.9947
 7775SOL    HW225258   3.617   2.153   3.577 -0.9069  1.7904  0.1460
 7776SOL     OW25259   8.684   8.664   8.452  0.0293 -0.5474  0.1879
 7776SOL    HW125260   8.715   8.749   8.420 -1.3986  0.0383  0.2771
 7776SOL    HW225261   8.749   8.602   8.421  1.3106  0.6149  0.4365
 7777SOL     OW25262   1.856   5.726   8.561  0.2240  0.2865 -0.5571
 7777SOL    HW125263   1.787   5.785   8.591 -1.9475 -1.4006 -1.9301
 7777SOL    HW225264   1.888   5.683   8.640 -0.2091  1.1665  0.1109
 7778SOL     OW25265   1.866   4.410   2.004 -0.8328  0.4198 -0.1094
 7778SOL    HW125266   1.828   4.458   2.077 -1.4055 -0.2490  0.0376
 7778SOL    HW225267   1.796   4.404   1.939 -0.2823  1.1364 -0.7800
 7779SOL     OW25268   7.795   7.782   4.071  0.6685  0.0464  0.1215
 7779SOL    HW125269   7.783   7.688   4.059  1.7406 -0.0276 -0.5383
 7779SOL    HW225270   7.706   7.819   4.066  0.1862 -0.9691  0.9076
 7780SOL     OW25271   6.413   6.981   3.528 -0.3054 -0.0890 -0.5443
 7780SOL    HW125272   6.434   6.911   3.466  0.3065 -0.8250  0.4645
 7780SOL    HW225273   6.318   6.985   3.529 -0.3615 -1.1975 -0.3074
 7781SOL     OW25274   3.751   7.884   0.362  0.2285  0.2631  0.1567
 7781SOL    HW125275   3.803   7.944   0.416  1.5290 -2.0662  1.6815
 7781SOL    HW225276   3.793   7.887   0.276  0.8401  0.8784  0.4688
 7782SOL     OW25277   3.351   3.994   1.119 -0.5151  0.0687 -0.4340
 7782SOL    HW125278   3.307   4.072   1.153  0.4219  0.4661 -0.1059
 7782SOL    HW225279   3.433   4.026   1.084  1.1011 -1.0384  2.0481
 7783SOL     OW25280   6.637   6.934   5.514 -0.0800 -0.1509  0.1206
 7783SOL    HW125281   6.620   7.027   5.499 -0.7779 -0.3138 -0.1533
 7783SOL    HW225282   6.659   6.899   5.428 -1.2898 -0.5263 -0.0526
 7784SOL     OW25283   8.323   7.475   0.050 -0.2471  0.1120 -0.3484
 7784SOL    HW125284   8.400   7.446   0.099 -0.5375  0.4384  0.3119
 7784SOL    HW225285   8.334   7.435  -0.036 -0.2497 -1.3545  0.2889
 7785SOL     OW25286   8.795   8.167   4.288 -0.0200 -0.5170 -0.0509
 7785SOL    HW125287   8.705   8.173   4.257 -0.7065 -2.0168  1.4369
 7785SOL    HW225288   8.832   8.254   4.276 -1.5031 -0.0214 -1.1739
 7786SOL     OW25289   1.013   7.397   7.243 -0.3347  0.2510  0.2601
 7786SOL    HW125290   0.960   7.409   7.164 -1.2339  1.2759  0.9879
 7786SOL    HW225291   1.044   7.306   7.237 -2.2494 -0.4318 -0.1508
 7787SOL     OW25292   4.327   6.727   7.024  0.0324 -0.3885  0.7190
 7787SOL    HW125293   4.420   6.706   7.015 -0.3532 -1.5107 -1.0804
 7787SOL    HW225294   4.304   6.769   6.941 -1.2134 -0.7562  0.8664
 7788SOL     OW25295   3.408   3.765   5.684 -0.1591  0.0002  0.0416
 7788SOL    HW125296   3.481   3.751   5.744 -1.6657  1.8030  2.5044
 7788SOL    HW225297   3.352   3.688   5.697 -0.3481  0.2556  0.8180
 7789SOL     OW25298   3.690   5.036   6.111 -0.3156 -0.3872  0.1944
 7789SOL    HW125299   3.605   5.007   6.078  0.3305  0.3707 -2.4517
 7789SOL    HW225300   3.670   5.082   6.192 -2.2927 -1.1287  0.1826
 7790SOL     OW25301   8.012   2.439   4.225 -0.2637 -0.2440  0.6204
 7790SOL    HW125302   8.066   2.363   4.202  1.4589  1.7410 -2.7011
 7790SOL    HW225303   7.930   2.426   4.177  0.4352  0.3819 -0.8112
 7791SOL     OW25304   0.788   4.133   0.540 -0.0826  0.0747  0.4732
 7791SOL    HW125305   0.748   4.160   0.457  1.4070 -0.2188 -0.3747
 7791SOL    HW225306   0.841   4.208   0.567  0.0014 -0.0952  0.7872
 7792SOL     OW25307   3.849   1.180   3.289  0.1496  0.1149 -0.1552
 7792SOL    HW125308   3.889   1.173   3.376 -0.1025  0.4570 -0.0101
 7792SOL    HW225309   3.897   1.117   3.236  2.3141  1.9234 -0.5080
 7793SOL     OW25310   5.631   8.048   6.342  0.2094 -0.4651 -0.0314
 7793SOL    HW125311   5.655   8.134   6.378  1.0384  0.3537 -2.3650
 7793SOL    HW225312   5.706   8.023   6.289 -1.7974 -0.4104 -3.1531
 7794SOL     OW25313   6.128   4.463   3.826 -0.1382 -0.2495 -0.0193
 7794SOL    HW125314   6.194   4.429   3.886 -0.4552  0.3528  0.6869
 7794SOL    HW225315   6.058   4.398   3.827 -0.4235  0.0549  0.7689
 7795SOL     OW25316   0.176   6.987   5.799 -0.0377 -0.0826 -0.2128
 7795SOL    HW125317   0.136   6.913   5.753  0.5296 -1.5459  1.5204
 7795SOL    HW225318   0.269   6.980   5.780  0.3407 -1.2514  1.7344
 7796SOL     OW25319   4.446   4.416   1.023  0.0148 -0.1300  0.2429
 7796SOL    HW125320   4.479   4.384   0.939 -0.7491 -0.9059  0.2314
 7796SOL    HW225321   4.351   4.404   1.018  0.0151 -0.8229  1.4684
 7797SOL     OW25322   2.143   4.822   2.720 -0.6907  0.2806  0.3392
 7797SOL    HW125323   2.148   4.892   2.784  1.2187 -0.1371  0.7287
 7797SOL    HW225324   2.050   4.807   2.707 -1.1567  2.8754  0.2298
 7798SOL     OW25325   1.617   4.704   3.338 -0.0623  0.0089 -0.4646
 7798SOL    HW125326   1.592   4.662   3.256 -1.5522  0.4059 -0.2449
 7798SOL    HW225327   1.702   4.746   3.320  0.8013 -1.9205 -1.0688
 7799SOL     OW25328   1.184   1.183   1.697 -0.7196  0.3120  0.0608
 7799SOL    HW125329   1.171   1.273   1.666  2.3544  0.6962 -0.4407
 7799SOL    HW225330   1.212   1.193   1.788  1.2617  0.0699 -0.4737
 7800SOL     OW25331   7.053   1.462   1.198  0.1418 -0.3501  0.2532
 7800SOL    HW125332   6.969   1.416   1.188 -0.2830  0.5827 -0.7379
 7800SOL    HW225333   7.082   1.440   1.286 -0.0918 -2.4013 -0.1393
 7801SOL     OW25334   5.059   5.016   4.090  0.5612  0.6848 -0.1974
 7801SOL    HW125335   5.028   5.071   4.018  0.0065 -0.5151 -0.9010
 7801SOL    HW225336   5.115   5.074   4.142 -0.3773  2.0404 -0.6396
 7802SOL     OW25337   4.019   1.892   0.769 -0.0515 -0.4920 -0.4283
 7802SOL    HW125338   3.956   1.852   0.829 -0.1914 -0.0380 -0.2650
 7802SOL    HW225339   3.974   1.891   0.684 -0.0018 -0.7940 -0.4534
 7803SOL     OW25340   8.721   5.609   2.072 -0.7830  0.1671 -0.1690
 7803SOL    HW125341   8.815   5.629   2.080 -1.1109  1.3913  1.0084
 7803SOL    HW225342   8.707   5.597   1.978  0.9201 -2.0759 -0.2086
 7804SOL     OW25343   6.762   8.036   2.817  0.1588  0.3869 -0.2534
 7804SOL    HW125344   6.678   8.080   2.828 -0.0483 -0.0763  0.0770
 7804SOL    HW225345   6.814   8.096   2.765 -0.8668  0.0674 -1.7286
 7805SOL     OW25346   6.194   6.549   2.590  0.2290  0.0091 -0.2519
 7805SOL    HW125347   6.127   6.617   2.595 -0.5423 -0.5826 -2.0295
 7805SOL    HW225348   6.272   6.591   2.626 -0.7519  1.1155  0.6861
 7806SOL     OW25349   8.271   2.431   6.468 -0.0526  0.0751  0.0326
 7806SOL    HW125350   8.322   2.438   6.549  0.8309 -2.4721 -0.2144
 7806SOL    HW225351   8.337   2.433   6.398 -0.6460  0.3894 -0.5286
 7807SOL     OW25352   0.455   1.478   4.819 -0.2045 -0.1447  0.0648
 7807SOL    HW125353   0.531   1.470   4.761 -0.6519 -2.5666 -0.3223
 7807SOL    HW225354   0.492   1.494   4.906  0.8215 -1.5704 -0.0737
 7808SOL     OW25355   5.003   0.359   4.792  0.5836  0.0174 -0.2145
 7808SOL    HW125356   5.046   0.422   4.734 -0.0511  0.3753 -0.2925
 7808SOL    HW225357   4.930   0.325   4.742  1.7263 -1.8679 -0.7294
 7809SOL     OW25358   1.168   5.593   7.481 -0.5741  0.6527 -0.2297
 7809SOL    HW125359   1.222   5.574   7.558  1.5155 -0.0084 -1.7605
 7809SOL    HW225360   1.184   5.686   7.463 -1.0326  0.7974  0.0814
 7810SOL     OW25361   2.423   6.180   8.271  0.0316 -0.0550  0.4046
 7810SOL    HW125362   2.444   6.087   8.262  0.0081  0.1363 -2.3867
 7810SOL    HW225363   2.347   6.181   8.329 -0.8207 -1.9206 -0.5780
 7811SOL     OW25364   6.804   2.174   4.485  0.0874 -0.1105 -0.7546
 7811SOL    HW125365   6.847   2.216   4.559  0.1334 -2.8098  0.8566
 7811SOL    HW225366   6.732   2.124   4.524  0.6462 -2.3313 -2.3793
 7812SOL     OW25367   8.620   7.839   2.927 -0.1381  0.3238 -0.1111
 7812SOL    HW125368   8.651   7.869   3.012 -0.0729  2.7252 -0.9199
 7812SOL    HW225369   8.699   7.829   2.874 -0.3005  0.4154 -0.3732
 7813SOL     OW25370   5.094   1.915   7.357  0.4126  0.0491 -0.5401
 7813SOL    HW125371   5.079   1.821   7.355 -1.7295  0.3439 -1.0338
 7813SOL    HW225372   5.092   1.942   7.265  0.7360  0.6218 -0.3866
 7814SOL     OW25373   5.561   6.330   7.369  0.1242  0.3958  0.0155
 7814SOL    HW125374   5.654   6.355   7.363  0.1531  0.4960  0.7968
 7814SOL    HW225375   5.556   6.248   7.319  0.4298  0.8927 -0.8626
 7815SOL     OW25376   4.074   6.578   0.917  0.6841 -0.1225 -0.3777
 7815SOL    HW125377   4.007   6.588   0.985  1.5553 -0.2497  0.5153
 7815SOL    HW225378   4.039   6.509   0.859 -2.1228  2.8351 -2.6262
 7816SOL     OW25379   6.490   0.080   7.380  0.0876  0.2471  0.3973
 7816SOL    HW125380   6.497   0.150   7.315 -1.7333  0.7508  0.6716
 7816SOL    HW225381   6.456   0.124   7.458  2.5158 -0.2833  1.8441
 7817SOL     OW25382   3.318   8.385   7.873  0.0679 -0.2764 -0.2741
 7817SOL    HW125383   3.384   8.388   7.941  0.8210  1.2170 -1.0320
 7817SOL    HW225384   3.366   8.362   7.793 -0.4579  0.0239 -0.6861
 7818SOL     OW25385   4.326   5.358   7.347  0.3092  0.0791  0.4220
 7818SOL    HW125386   4.338   5.363   7.252 -0.8353 -0.6060  0.2215
 7818SOL    HW225387   4.406   5.318   7.380  0.4251 -0.3149 -0.3339
 7819SOL     OW25388   1.712   5.856   6.799  0.7046 -0.1304  0.5101
 7819SOL    HW125389   1.693   5.890   6.712 -0.9330 -0.2142  0.7966
 7819SOL    HW225390   1.648   5.900   6.856 -0.4821 -2.4773  1.1276
 7820SOL     OW25391   3.683   0.254   1.482 -0.0439 -0.7310  0.9846
 7820SOL    HW125392   3.751   0.317   1.458 -1.1374  1.1615  2.4982
 7820SOL    HW225393   3.715   0.170   1.450  2.3767  0.2864  0.5295
 7821SOL     OW25394   2.518   7.404   6.419  0.3826  0.1659  0.0118
 7821SOL    HW125395   2.610   7.431   6.422  0.6608 -0.7898  0.9316
 7821SOL    HW225396   2.469   7.485   6.412  1.2889  0.7222 -0.0239
 7822SOL     OW25397   0.265   3.610   5.668  0.7324  0.2308 -0.3295
 7822SOL    HW125398   0.179   3.642   5.642  1.3168  1.3010 -1.0305
 7822SOL    HW225399   0.255   3.584   5.759 -0.4092  0.0330 -0.5015
 7823SOL     OW25400   1.455   5.415   8.599 -0.6301 -0.2516  0.6483
 7823SOL    HW125401   1.549   5.426   8.612 -0.7063 -0.5918  1.6256
 7823SOL    HW225402   1.421   5.398   8.687 -1.6916  0.4957  0.4060
 7824SOL     OW25403   3.232   0.668   0.325  0.7814  0.8667  0.0786
 7824SOL    HW125404   3.224   0.661   0.230 -0.7603  1.0426  0.1752
 7824SOL    HW225405   3.302   0.607   0.348 -0.0749 -0.5768 -0.9785
 7825SOL     OW25406   2.400   6.535   3.959 -0.0567 -0.6687 -0.1724
 7825SOL    HW125407   2.318   6.491   3.936 -1.3082  1.2730  0.2519
 7825SOL    HW225408   2.452   6.532   3.879 -1.9689  0.9540 -1.6071
 7826SOL     OW25409   8.067   0.921   8.447 -0.2715  0.0838 -0.0751
 7826SOL    HW125410   8.007   0.994   8.434  0.4100  0.6466 -0.0856
 7826SOL    HW225411   8.146   0.945   8.399  0.7964  0.3705  1.7464
 7827SOL     OW25412   3.030   6.622   3.612  0.1947  0.6791 -0.2906
 7827SOL    HW125413   3.115   6.649   3.577  1.8906 -0.3774  2.6798
 7827SOL    HW225414   3.009   6.687   3.679  0.1509 -0.6414  1.0379
 7828SOL     OW25415   8.035   1.237   6.219  0.3905 -0.1596  0.2377
 7828SOL    HW125416   8.121   1.247   6.259  1.4056  1.9196 -2.2166
 7828SOL    HW225417   8.042   1.159   6.164  0.2901 -0.6634  0.9238
 7829SOL     OW25418   0.203   3.455   0.090  0.2163 -0.2129  0.4174
 7829SOL    HW125419   0.187   3.543   0.124  2.7666  1.0069 -1.2068
 7829SOL    HW225420   0.216   3.468  -0.004 -1.5332 -2.6878 -0.2519
 7830SOL     OW25421   5.927   1.479   8.130 -0.1735  0.3091 -0.4318
 7830SOL    HW125422   6.016   1.479   8.093 -0.9581 -1.4093 -2.4830
 7830SOL    HW225423   5.890   1.563   8.102  0.7638  1.0094  0.3801
 7831SOL     OW25424   3.648   7.489   5.186 -0.8141 -0.3297  0.7913
 7831SOL    HW125425   3.726   7.454   5.143 -0.8816 -0.5725  0.8640
 7831SOL    HW225426   3.664   7.583   5.191 -1.0526 -0.2278 -0.2532
 7832SOL     OW25427   5.430   5.763   5.244 -0.3284 -0.0299  0.1205
 7832SOL    HW125428   5.480   5.836   5.208  0.2540 -0.0781  0.7886
 7832SOL    HW225429   5.357   5.804   5.290 -0.7177  0.0593 -0.5674
 7833SOL     OW25430   5.412   1.877   1.834 -0.3379 -0.1352 -0.0054
 7833SOL    HW125431   5.425   1.823   1.911  1.1829  3.1763  2.3128
 7833SOL    HW225432   5.500   1.892   1.800 -0.9043 -0.6985 -1.8350
 7834SOL     OW25433   8.708   1.957   2.803 -0.5346 -0.2017  0.0425
 7834SOL    HW125434   8.623   1.966   2.848 -1.1534  0.1817 -1.1801
 7834SOL    HW225435   8.704   2.018   2.730  0.3261 -1.0528 -0.7436
 7835SOL     OW25436   5.991   4.950   7.486 -0.1003  0.2994 -0.4109
 7835SOL    HW125437   5.922   4.979   7.427  0.2485  0.8280 -0.5625
 7835SOL    HW225438   5.957   4.969   7.573 -0.4660 -0.1590 -0.4443
 7836SOL     OW25439   5.221   3.932   7.677  0.0866  0.3357  0.3268
 7836SOL    HW125440   5.295   3.960   7.731 -0.8493 -0.7819  2.2855
 7836SOL    HW225441   5.249   3.849   7.638  0.6798  1.0382 -0.8245
 7837SOL     OW25442   8.144   6.520   3.176 -0.0764 -0.5759  0.1201
 7837SOL    HW125443   8.100   6.435   3.163  0.8665 -0.9044 -1.0500
 7837SOL    HW225444   8.074   6.584   3.164 -0.8146 -1.1570  1.0483
 7838SOL     OW25445   1.481   8.111   4.125 -0.0517  0.3779 -0.0968
 7838SOL    HW125446   1.518   8.040   4.074  0.0112 -0.2525  0.8048
 7838SOL    HW225447   1.552   8.175   4.134  0.6050 -0.4711  0.9679
 7839SOL     OW25448   2.067   3.778   3.222  0.2193 -0.9522 -0.2441
 7839SOL    HW125449   2.149   3.817   3.192  1.0454 -2.1598  0.3615
 7839SOL    HW225450   2.084   3.754   3.313 -1.2834  0.0199  0.3200
 7840SOL     OW25451   6.303   8.092   7.376  0.2384  0.2558  0.1422
 7840SOL    HW125452   6.289   8.176   7.418  1.8755 -0.2864  1.8805
 7840SOL    HW225453   6.395   8.091   7.352  0.1955 -0.9560 -0.0713
 7841SOL     OW25454   2.018   6.065   8.667 -0.1211 -0.2945 -0.8418
 7841SOL    HW125455   1.945   6.009   8.693 -0.4740 -0.5967 -2.3627
 7841SOL    HW225456   2.038   6.117   8.745 -2.2040  0.0678 -0.5016
 7842SOL     OW25457   4.620   0.605   7.521  0.2809 -0.2500 -0.4576
 7842SOL    HW125458   4.631   0.514   7.547  0.7757 -0.5412 -1.6265
 7842SOL    HW225459   4.527   0.615   7.505  0.4543 -1.1161 -2.2456
 7843SOL     OW25460   1.945   5.492   3.832  0.1246 -0.3994 -0.0444
 7843SOL    HW125461   1.913   5.461   3.747 -1.8804 -0.6614  0.7677
 7843SOL    HW225462   1.901   5.576   3.844  3.2900  1.5622 -0.9102
 7844SOL     OW25463   3.562   7.867   7.145  0.4121  0.1380 -0.4708
 7844SOL    HW125464   3.562   7.851   7.239  1.2941 -0.5458 -0.5696
 7844SOL    HW225465   3.529   7.956   7.135 -0.1816  0.0284  0.4451
 7845SOL     OW25466   1.468   8.620   4.383 -0.0958 -0.3339 -0.0990
 7845SOL    HW125467   1.404   8.646   4.449 -0.9094 -0.7302 -0.7121
 7845SOL    HW225468   1.552   8.619   4.430 -0.4204  0.8486  0.5568
 7846SOL     OW25469   2.871   6.422   5.574 -0.2286 -0.5312 -0.3191
 7846SOL    HW125470   2.804   6.458   5.517 -1.4275 -0.7779  0.8669
 7846SOL    HW225471   2.826   6.352   5.622  0.3983  0.3436  1.6764
 7847SOL     OW25472   8.387   7.683   5.569  0.4672 -0.6245 -0.2627
 7847SOL    HW125473   8.292   7.693   5.565  0.1100 -2.0420  2.2978
 7847SOL    HW225474   8.405   7.605   5.518 -0.1527 -1.9420  1.4520
 7848SOL     OW25475   2.257   1.479   7.201 -0.3827 -0.3613  0.2846
 7848SOL    HW125476   2.232   1.388   7.220  0.8257 -0.5580  1.0360
 7848SOL    HW225477   2.178   1.518   7.163 -1.2084 -1.4658  0.8043
 7849SOL     OW25478   7.525   2.327   7.979 -0.4442  0.4845  0.0864
 7849SOL    HW125479   7.491   2.404   8.024  1.7069  2.7823 -1.9192
 7849SOL    HW225480   7.494   2.336   7.889  0.5862 -0.4801 -0.3968
 7850SOL     OW25481   3.032   5.238   6.656 -0.2806 -0.5402 -0.0013
 7850SOL    HW125482   3.068   5.181   6.724 -0.3087 -1.2027 -0.5312
 7850SOL    HW225483   3.025   5.324   6.698 -0.7867 -1.0520  0.9997
 7851SOL     OW25484   1.471   2.836   6.072 -0.2172  0.3436  0.0783
 7851SOL    HW125485   1.564   2.836   6.093 -1.0091  0.2058  4.5781
 7851SOL    HW225486   1.431   2.889   6.140 -3.6974 -2.0038  0.1352
 7852SOL     OW25487   0.404   1.313   5.874  0.3640 -0.2653  0.3726
 7852SOL    HW125488   0.352   1.234   5.858 -0.9863  0.7103 -0.1762
 7852SOL    HW225489   0.491   1.279   5.898 -0.9058 -1.9968  2.9962
 7853SOL     OW25490   0.160   4.609   7.820 -0.2483  0.9487  0.0449
 7853SOL    HW125491   0.070   4.584   7.843 -0.3239  0.3236 -0.8848
 7853SOL    HW225492   0.170   4.581   7.730  0.2469  2.7615 -0.5137
 7854SOL     OW25493   6.037   0.559   2.334 -0.1561 -0.3031  0.2490
 7854SOL    HW125494   6.057   0.651   2.352 -0.2835  0.1262 -1.5548
 7854SOL    HW225495   6.114   0.511   2.364 -0.2188  0.3479  1.4935
 7855SOL     OW25496   2.875   5.467   7.017 -0.3746 -0.3896  0.2702
 7855SOL    HW125497   2.788   5.426   7.020 -0.3680 -0.4973 -0.7126
 7855SOL    HW225498   2.932   5.405   7.063 -0.8081 -0.3215  0.9217
 7856SOL     OW25499   3.910   2.953   0.199 -0.1699 -0.4614 -0.0023
 7856SOL    HW125500   3.913   2.957   0.295 -3.3161 -0.6157  0.2304
 7856SOL    HW225501   3.964   3.027   0.171  1.2829 -0.7387  1.8304
 7857SOL     OW25502   7.219   8.531   1.429  0.3742  0.2709 -0.9770
 7857SOL    HW125503   7.247   8.569   1.512 -1.6745  2.2592 -1.1017
 7857SOL    HW225504   7.300   8.515   1.381  1.4859  1.4593  0.4237
 7858SOL     OW25505   8.414   4.056   3.020  0.6646 -0.1509  0.2351
 7858SOL    HW125506   8.457   4.125   2.969  0.6443  1.2858  2.0520
 7858SOL    HW225507   8.334   4.098   3.053  0.0324 -1.4420  0.3757
 7859SOL     OW25508   6.374   3.526   8.463 -0.3292 -0.6643 -0.8892
 7859SOL    HW125509   6.418   3.507   8.546 -0.9231  0.6834 -0.2409
 7859SOL    HW225510   6.334   3.443   8.438 -1.4833 -0.7287  0.9992
 7860SOL     OW25511   3.402   8.206   5.674  0.0682 -0.3801  0.0349
 7860SOL    HW125512   3.493   8.187   5.697 -0.6790 -2.2566  1.6783
 7860SOL    HW225513   3.368   8.254   5.749  0.3757  2.9540 -1.7599
 7861SOL     OW25514   1.211   2.177   0.639  0.1608  0.2068 -0.1607
 7861SOL    HW125515   1.189   2.104   0.582 -1.2189  0.2027  0.3466
 7861SOL    HW225516   1.239   2.247   0.579 -0.2355 -0.1502 -0.7664
 7862SOL     OW25517   5.193   0.515   6.769 -0.0124 -0.2369  0.4341
 7862SOL    HW125518   5.246   0.594   6.764  1.3825 -1.1437  0.1677
 7862SOL    HW225519   5.103   0.546   6.774  0.4904  1.3530  0.1221
 7863SOL     OW25520   0.092   5.325   1.612  0.3236 -0.1147  0.3090
 7863SOL    HW125521   0.128   5.352   1.528 -0.2810 -0.8139 -0.1825
 7863SOL    HW225522   0.136   5.242   1.631  1.6456  0.7987  1.4677
 7864SOL     OW25523   5.300   5.216   7.870  0.2726 -0.0589  0.2696
 7864SOL    HW125524   5.303   5.303   7.910 -1.6435 -0.3054  1.0319
 7864SOL    HW225525   5.376   5.170   7.907  1.6233  1.4345 -0.5660
 7865SOL     OW25526   4.872   8.432   0.202 -0.1130 -0.2003 -0.0853
 7865SOL    HW125527   4.910   8.368   0.141  1.3255 -0.6091  1.1516
 7865SOL    HW225528   4.809   8.382   0.253 -0.8395 -0.0134 -0.7917
 7866SOL     OW25529   5.235   4.071   3.755  0.1373  0.2765 -0.4303
 7866SOL    HW125530   5.269   4.004   3.696 -0.6925 -0.0312 -0.5839
 7866SOL    HW225531   5.173   4.023   3.811  0.3201  0.7169  0.1619
 7867SOL     OW25532   2.268   6.438   7.949  0.3563  0.1517  0.5756
 7867SOL    HW125533   2.202   6.507   7.941  0.1066 -0.2291 -0.9298
 7867SOL    HW225534   2.233   6.380   8.016 -2.3188 -1.5296 -2.0215
 7868SOL     OW25535   3.916   6.256   2.310  0.7252 -0.1941 -0.3622
 7868SOL    HW125536   3.971   6.334   2.318  0.2238  0.2908 -1.3711
 7868SOL    HW225537   3.914   6.238   2.216 -0.4619 -0.4766 -0.2958
 7869SOL     OW25538   0.663   1.739   1.678 -0.2128 -0.0386 -0.2394
 7869SOL    HW125539   0.732   1.760   1.615  2.2906 -0.9335  2.0439
 7869SOL    HW225540   0.602   1.683   1.629  2.0619 -1.3811 -1.6900
 7870SOL     OW25541   5.109   4.766   0.384 -0.2482 -0.3499 -0.3670
 7870SOL    HW125542   5.176   4.702   0.407  0.5658  0.6202  0.0722
 7870SOL    HW225543   5.146   4.816   0.312 -0.1766  0.6505  0.3292
 7871SOL     OW25544   5.939   4.639   0.873 -0.4175  0.2102  0.4368
 7871SOL    HW125545   5.903   4.555   0.849  1.8410 -0.6963 -0.0517
 7871SOL    HW225546   5.964   4.680   0.790 -0.3640  0.8194  0.7443
 7872SOL     OW25547   3.937   8.729   7.325  0.1931 -0.6823 -0.2807
 7872SOL    HW125548   3.957   8.742   7.418 -1.2349  0.6734 -0.1239
 7872SOL    HW225549   3.866   8.664   7.324 -0.6749  0.2455 -0.3166
 7873SOL     OW25550   5.287   0.836   2.931  0.6970  0.3578  0.3497
 7873SOL    HW125551   5.240   0.804   3.008 -0.3634 -1.0648 -0.8369
 7873SOL    HW225552   5.225   0.895   2.888  0.8206  0.2037 -0.0445
 7874SOL     OW25553   1.279   6.538   0.724  0.3097  0.7463  0.3290
 7874SOL    HW125554   1.310   6.489   0.647  0.7601  0.8684  0.4299
 7874SOL    HW225555   1.324   6.497   0.798 -0.4973  0.3076  0.5941
 7875SOL     OW25556   2.571   0.395   7.875 -0.2465  0.0772  0.2172
 7875SOL    HW125557   2.628   0.338   7.824  1.7752  1.7103  0.5449
 7875SOL    HW225558   2.530   0.452   7.810 -0.8395 -0.5029  0.0697
 7876SOL     OW25559   3.764   2.637   6.861 -0.0260  0.0268 -0.3563
 7876SOL    HW125560   3.683   2.588   6.854 -0.5794  0.7967  0.3766
 7876SOL    HW225561   3.743   2.724   6.827  1.5344 -0.7963 -3.7970
 7877SOL     OW25562   4.090   8.187   7.746 -0.0502  0.1380 -0.3934
 7877SOL    HW125563   4.059   8.199   7.657  0.1446 -0.1684 -0.5040
 7877SOL    HW225564   4.148   8.111   7.742  0.8086  0.7657 -0.2178
 7878SOL     OW25565   1.013   7.618   4.611 -0.2943 -0.0905  0.6386
 7878SOL    HW125566   0.929   7.658   4.634  0.6030  1.7492  0.8559
 7878SOL    HW225567   1.024   7.549   4.677 -2.5097 -1.7715 -0.5761
 7879SOL     OW25568   3.760   7.874   5.293  0.0129  0.5827 -0.6832
 7879SOL    HW125569   3.716   7.948   5.334  0.9952  1.8339 -1.8180
 7879SOL    HW225570   3.749   7.888   5.199 -4.4005 -3.4785 -1.1930
 7880SOL     OW25571   1.537   8.800   7.597 -0.2529 -0.1995 -0.0908
 7880SOL    HW125572   1.441   8.803   7.606 -0.1420  1.0106  0.9161
 7880SOL    HW225573   1.551   8.761   7.511 -1.6830  1.0285 -0.9333
 7881SOL     OW25574   2.520   5.789   8.438 -0.2232  0.3693 -0.3604
 7881SOL    HW125575   2.594   5.729   8.438 -0.3603  0.1852  0.8866
 7881SOL    HW225576   2.533   5.844   8.515 -1.7847 -0.2062  0.3592
 7882SOL     OW25577   4.167   7.170   8.415 -0.3860  0.1665 -0.4173
 7882SOL    HW125578   4.176   7.262   8.441 -1.7916  1.2732 -3.4548
 7882SOL    HW225579   4.094   7.137   8.467  0.8395  0.3484  1.5218
 7883SOL     OW25580   7.347   0.298   0.701  0.1665 -0.3715 -0.1156
 7883SOL    HW125581   7.307   0.262   0.622  0.8099  0.0149 -0.6347
 7883SOL    HW225582   7.441   0.294   0.683  0.2856  0.8021  0.1365
 7884SOL     OW25583   4.036   8.463   2.045 -0.1013 -0.0618  0.1806
 7884SOL    HW125584   4.059   8.520   2.118 -1.3226  1.2967 -0.4246
 7884SOL    HW225585   3.998   8.523   1.980 -0.0439 -1.3771 -1.1073
 7885SOL     OW25586   4.168   4.651   1.497 -0.1379 -0.1298 -0.4752
 7885SOL    HW125587   4.231   4.581   1.509  0.5855  0.5556 -0.2417
 7885SOL    HW225588   4.197   4.721   1.555 -3.0657 -1.0376  2.3510
 7886SOL     OW25589   7.219   4.499   1.294 -0.4668 -0.4565 -0.2551
 7886SOL    HW125590   7.282   4.469   1.229  0.1878 -0.1577  0.2365
 7886SOL    HW225591   7.135   4.463   1.265 -0.0395 -1.0045 -0.8154
 7887SOL     OW25592   3.245   8.257   2.602  0.3598 -0.1706  0.5123
 7887SOL    HW125593   3.319   8.300   2.560  0.7089 -0.6589  0.6169
 7887SOL    HW225594   3.196   8.328   2.643  0.1545  0.2852 -0.4862
 7888SOL     OW25595   7.230   4.858   8.798  0.2724  0.5706  0.0655
 7888SOL    HW125596   7.209   4.946   8.827  0.6977  0.3801  0.9979
 7888SOL    HW225597   7.159   4.834   8.738 -1.6044  0.3676  2.2067
 7889SOL     OW25598   5.519   7.131   7.546 -0.1316  0.3840  0.2407
 7889SOL    HW125599   5.602   7.139   7.593 -0.9768  1.2957  1.6317
 7889SOL    HW225600   5.489   7.222   7.535 -1.0660  0.0561 -0.0102
 7890SOL     OW25601   3.227   1.000   3.517 -0.3093 -0.3826 -0.4911
 7890SOL    HW125602   3.203   0.915   3.555 -1.4871  0.1370 -0.0643
 7890SOL    HW225603   3.167   1.063   3.556  2.1445  1.1146  1.1507
 7891SOL     OW25604   3.278   2.403   8.384  0.1629 -0.5552  0.1272
 7891SOL    HW125605   3.341   2.338   8.415  2.6831  2.0095  0.7977
 7891SOL    HW225606   3.289   2.477   8.443  0.6323  2.1477 -3.1043
 7892SOL     OW25607   3.327   0.157   7.055 -0.6419 -0.1264 -0.9219
 7892SOL    HW125608   3.319   0.228   7.119  1.2058 -0.6548 -0.0327
 7892SOL    HW225609   3.411   0.171   7.013 -0.5626 -1.3874 -1.2329
 7893SOL     OW25610   8.233   7.906   0.237 -0.3396  0.8349  0.2591
 7893SOL    HW125611   8.299   7.924   0.170  1.3049 -0.5365  1.4494
 7893SOL    HW225612   8.192   7.824   0.209  1.0646 -0.2951  1.4102
 7894SOL     OW25613   5.190   3.021   6.676  0.3783  0.3479  0.2368
 7894SOL    HW125614   5.212   2.985   6.590  2.0374 -1.6494  1.4091
 7894SOL    HW225615   5.104   2.985   6.697  0.4290 -0.0033 -0.1548
 7895SOL     OW25616   0.205   7.263   0.813  0.6021  0.1009 -0.3232
 7895SOL    HW125617   0.127   7.304   0.776  0.6035  0.8321  0.4328
 7895SOL    HW225618   0.200   7.284   0.907  0.6513 -1.5846  0.0946
 7896SOL     OW25619   2.031   3.073   4.905 -0.0650 -0.9183  0.4326
 7896SOL    HW125620   2.089   3.128   4.957 -0.9231 -0.0964  0.5549
 7896SOL    HW225621   1.944   3.086   4.944 -0.8241  0.0390 -1.4090
 7897SOL     OW25622   2.750   5.618   3.244  0.5942 -0.1144 -0.0452
 7897SOL    HW125623   2.817   5.662   3.298 -0.7493 -1.1841  2.7095
 7897SOL    HW225624   2.784   5.529   3.231  0.2046 -0.3473  0.4769
 7898SOL     OW25625   4.009   0.161   0.948  0.2082  0.6843  0.6806
 7898SOL    HW125626   3.946   0.091   0.935 -0.2798  1.1183  0.7077
 7898SOL    HW225627   4.040   0.149   1.038  0.0660  0.5565  0.7136
 7899SOL     OW25628   5.994   0.529   5.023  0.5128  0.6213  0.1876
 7899SOL    HW125629   5.934   0.539   5.097  0.9861  1.7969  0.4373
 7899SOL    HW225630   6.072   0.489   5.062 -0.2724 -1.4601 -0.2451
 7900SOL     OW25631   6.604   8.380   7.037 -0.2829 -0.3925 -0.0815
 7900SOL    HW125632   6.523   8.374   6.987  0.2948  1.2577 -1.3032
 7900SOL    HW225633   6.576   8.402   7.126 -1.1520  1.5249 -0.7841
 7901SOL     OW25634   5.637   3.521   8.190  0.1719 -0.1063  0.0123
 7901SOL    HW125635   5.689   3.441   8.189 -0.0561 -0.3228  2.0463
 7901SOL    HW225636   5.679   3.577   8.255 -0.2512  1.0560 -0.6744
 7902SOL     OW25637   8.478   4.839   0.072  0.1833 -0.4674 -0.6761
 7902SOL    HW125638   8.507   4.886   0.150  0.8000  0.2709 -1.3235
 7902SOL    HW225639   8.470   4.748   0.100  1.5700 -0.4178 -0.0434
 7903SOL     OW25640   1.020   1.507   6.677  0.8430  0.2621  0.7080
 7903SOL    HW125641   1.027   1.455   6.596  1.3990  1.0853  0.2145
 7903SOL    HW225642   1.077   1.582   6.662  0.7995  0.5257  1.8013
 7904SOL     OW25643   7.166   2.642   8.256  0.3320 -0.2826  0.2036
 7904SOL    HW125644   7.138   2.588   8.330  0.9827 -2.1267 -0.8034
 7904SOL    HW225645   7.084   2.668   8.213 -0.0046 -1.4376  0.1020
 7905SOL     OW25646   6.272   0.542   6.510  0.1576 -0.5070 -0.2870
 7905SOL    HW125647   6.364   0.566   6.496  0.2685  0.7705  2.0990
 7905SOL    HW225648   6.276   0.454   6.548  0.2215 -1.2477 -1.9103
 7906SOL     OW25649   0.839   4.787   2.701 -0.3953  0.8624 -0.1449
 7906SOL    HW125650   0.809   4.873   2.673 -0.8506  1.5659  2.2772
 7906SOL    HW225651   0.836   4.790   2.797  1.5258 -1.1535  0.0764
 7907SOL     OW25652   7.937   5.345   8.828  0.6275 -0.1202 -0.0609
 7907SOL    HW125653   7.933   5.255   8.860  0.3842  0.1493  0.7070
 7907SOL    HW225654   8.024   5.352   8.788  1.7672  0.0412  2.2709
 7908SOL     OW25655   7.697   8.043   4.987  0.0138  0.0863 -0.2451
 7908SOL    HW125656   7.691   7.947   4.987  1.0966  0.0051  0.2664
 7908SOL    HW225657   7.753   8.064   4.913 -2.2843  0.5207 -1.9614
 7909SOL     OW25658   2.205   1.635   3.492 -0.5260  0.2110  0.3418
 7909SOL    HW125659   2.170   1.634   3.403  0.9277 -0.7049 -0.2578
 7909SOL    HW225660   2.270   1.565   3.493  0.3080  0.9549  1.7930
 7910SOL     OW25661   6.886   5.002   7.582 -0.1860  0.1472 -0.1654
 7910SOL    HW125662   6.808   4.948   7.595  1.4068 -2.0526  0.8798
 7910SOL    HW225663   6.920   5.016   7.670  1.0009  0.4138 -0.6533
 7911SOL     OW25664   7.023   3.198   4.382 -0.0519 -0.7875 -0.2084
 7911SOL    HW125665   6.932   3.195   4.354 -0.5549  0.3953  1.1794
 7911SOL    HW225666   7.029   3.134   4.453 -0.3874  0.6215  1.1546
 7912SOL     OW25667   3.051   8.644   6.361  0.3069  0.4619  0.0812
 7912SOL    HW125668   2.966   8.682   6.341  0.6598  0.3610 -1.8008
 7912SOL    HW225669   3.039   8.550   6.352  0.6980  0.4705 -0.7050
 7913SOL     OW25670   5.270   5.428   2.060 -0.0688  0.1726  0.2455
 7913SOL    HW125671   5.253   5.380   2.141 -1.9615  1.9139  0.9493
 7913SOL    HW225672   5.197   5.489   2.052  0.8986  1.1466 -1.9588
 7914SOL     OW25673   7.290   6.597   0.528 -0.0976  0.3471  0.1342
 7914SOL    HW125674   7.290   6.625   0.619 -0.3746 -2.9283  1.2890
 7914SOL    HW225675   7.285   6.501   0.532  1.4486 -0.0505 -3.3068
 7915SOL     OW25676   7.722   8.414   6.999 -0.0451  0.5924 -0.2476
 7915SOL    HW125677   7.706   8.505   7.025 -0.4114  0.4395  0.0715
 7915SOL    HW225678   7.637   8.371   7.009  0.2927  0.0421  0.3512
 7916SOL     OW25679   1.948   8.311   3.038 -0.5582  0.1532  0.0936
 7916SOL    HW125680   1.893   8.389   3.040  0.2381  0.8053 -1.6846
 7916SOL    HW225681   1.900   8.249   2.984  0.9285  1.2256 -2.7000
 7917SOL     OW25682   6.437   6.072   2.778  0.0170 -0.8145  0.3294
 7917SOL    HW125683   6.407   6.116   2.858  3.2577 -1.6117  2.1755
 7917SOL    HW225684   6.381   5.995   2.770 -0.5095 -0.6074  1.7358
 7918SOL     OW25685   2.024   3.719   2.706 -0.5891 -0.1521 -1.2099
 7918SOL    HW125686   1.994   3.695   2.793  1.8986  1.1510  0.0987
 7918SOL    HW225687   2.075   3.643   2.677 -1.1033 -0.4320 -1.4023
 7919SOL     OW25688   7.851   4.687   3.445 -0.3329  0.4609  0.0928
 7919SOL    HW125689   7.883   4.682   3.355  0.6033 -0.2748  0.4576
 7919SOL    HW225690   7.771   4.634   3.445 -0.1852  0.2370 -0.2306
 7920SOL     OW25691   6.888   2.069   8.049 -0.2760 -0.5189 -0.1674
 7920SOL    HW125692   6.940   2.100   8.124  0.3204 -1.6327 -0.1032
 7920SOL    HW225693   6.953   2.057   7.979 -0.8173  0.4349 -0.8536
 7921SOL     OW25694   5.109   4.195   2.564  0.1929  0.2169  0.1580
 7921SOL    HW125695   5.059   4.141   2.625 -2.7381 -1.2008 -3.1817
 7921SOL    HW225696   5.139   4.134   2.497 -0.6918  2.1963 -2.1995
 7922SOL     OW25697   3.865   5.382   3.465  0.3527 -0.6925  0.0329
 7922SOL    HW125698   3.939   5.350   3.516 -0.3147  0.2329  1.6431
 7922SOL    HW225699   3.867   5.330   3.384  1.2095 -2.4733  1.1537
 7923SOL     OW25700   4.957   6.801   0.369  0.8434  0.2982  0.2810
 7923SOL    HW125701   4.943   6.824   0.461 -0.1991  1.4602 -0.1346
 7923SOL    HW225702   5.052   6.804   0.357  0.9532  0.7166  1.1703
 7924SOL     OW25703   8.322   5.738   7.946  0.0049  0.4504 -0.1194
 7924SOL    HW125704   8.378   5.791   8.003 -1.0878 -0.2465  1.6863
 7924SOL    HW225705   8.307   5.657   7.995  0.4917 -0.9807 -2.2029
 7925SOL     OW25706   2.249   4.233   1.741 -0.3283 -0.9674  0.3402
 7925SOL    HW125707   2.155   4.218   1.742 -0.6167  0.5967 -0.7022
 7925SOL    HW225708   2.284   4.166   1.682 -1.1298  0.0634 -1.3544
 7926SOL     OW25709   5.429   6.945   8.120  0.0298  0.0524  0.3412
 7926SOL    HW125710   5.457   7.034   8.103 -1.7189  0.1602 -2.6163
 7926SOL    HW225711   5.340   6.940   8.084 -0.1783 -2.7010  0.9847
 7927SOL     OW25712   4.556   6.044   8.773 -0.0623  0.3691  0.1237
 7927SOL    HW125713   4.491   6.076   8.711 -0.0955  0.3686  0.1579
 7927SOL    HW225714   4.510   6.042   8.857  0.4327  1.9124  0.4627
 7928SOL     OW25715   3.435   3.376   3.390 -0.2521 -0.3521  0.1204
 7928SOL    HW125716   3.439   3.436   3.464  0.6693  1.7691 -1.5169
 7928SOL    HW225717   3.492   3.303   3.414  0.8561  0.8002  1.0902
 7929SOL     OW25718   2.414   3.041   0.769  0.2150  0.5610  0.2413
 7929SOL    HW125719   2.415   3.076   0.680 -1.2884 -2.1233 -0.9587
 7929SOL    HW225720   2.387   3.114   0.824 -0.2999  1.9046 -1.7249
 7930SOL     OW25721   7.628   4.067   3.133 -0.0187  0.4346 -0.5664
 7930SOL    HW125722   7.549   4.049   3.185 -0.7354  1.3050 -1.3231
 7930SOL    HW225723   7.595   4.102   3.051  1.1800  1.6398 -0.5693
 7931SOL     OW25724   7.888   7.516   5.290  0.5636 -0.4421  0.4008
 7931SOL    HW125725   7.865   7.501   5.382 -1.5399 -0.9945 -0.1508
 7931SOL    HW225726   7.910   7.609   5.285 -0.4742 -0.1321  1.2539
 7932SOL     OW25727   6.240   8.788   6.213 -0.1788 -0.0229  0.2739
 7932SOL    HW125728   6.244   8.837   6.295 -0.6170  1.3382 -0.4886
 7932SOL    HW225729   6.174   8.720   6.230 -1.2431  1.0637  0.6497
 7933SOL     OW25730   6.301   1.002   1.281 -0.3256 -0.2024 -0.5410
 7933SOL    HW125731   6.366   0.954   1.230  0.0680  0.1221 -0.3387
 7933SOL    HW225732   6.319   0.979   1.372  1.8738  2.7201 -0.1237
 7934SOL     OW25733   3.900   3.067   6.670  0.0470 -0.3025 -0.1474
 7934SOL    HW125734   3.914   3.117   6.750 -1.2161 -0.7816  0.4063
 7934SOL    HW225735   3.943   2.983   6.685  1.6196  0.3464 -0.8266
 7935SOL     OW25736   8.318   8.858   2.013  0.3261  0.2726  0.3639
 7935SOL    HW125737   8.301   8.814   2.096  0.1359  1.1303  0.7901
 7935SOL    HW225738   8.281   8.800   1.947  0.1845 -0.2600  0.9075
 7936SOL     OW25739   2.813   0.238   0.578  0.3330 -0.1712 -0.0920
 7936SOL    HW125740   2.762   0.157   0.582 -1.0968  0.6409 -1.0476
 7936SOL    HW225741   2.848   0.241   0.489  0.7619  0.0498  0.0779
 7937SOL     OW25742   6.615   3.012   4.563  0.0981  0.4542 -0.0501
 7937SOL    HW125743   6.591   2.927   4.601 -0.5085 -0.0552 -1.5104
 7937SOL    HW225744   6.539   3.068   4.579  0.7648  0.9709  1.5262
 7938SOL     OW25745   8.008   5.715   1.266  0.0062 -0.4236 -0.4948
 7938SOL    HW125746   8.038   5.802   1.292 -0.6684 -0.1776 -0.5147
 7938SOL    HW225747   8.028   5.709   1.172  0.5182 -0.4947 -0.3839
 7939SOL     OW25748   3.719   7.037   3.734  0.1897  0.4716  0.1686
 7939SOL    HW125749   3.724   7.111   3.673  1.0472 -0.4135 -0.8685
 7939SOL    HW225750   3.629   7.041   3.768 -0.8816  0.0480 -2.3725
 7940SOL     OW25751   4.284   6.376   7.367 -0.2391 -0.4383 -0.5318
 7940SOL    HW125752   4.215   6.342   7.310 -0.9675 -2.6186  1.5243
 7940SOL    HW225753   4.238   6.438   7.425  0.2875  0.8902 -1.4711
 7941SOL     OW25754   7.551   7.704   0.725 -0.6060  0.0407  0.7702
 7941SOL    HW125755   7.467   7.680   0.684  0.2385 -0.0726 -0.9731
 7941SOL    HW225756   7.546   7.799   0.735 -0.7479  0.0921  0.2281
 7942SOL     OW25757   1.909   8.017   0.907 -0.1403  0.0941 -0.2332
 7942SOL    HW125758   1.850   7.944   0.925 -0.3736  0.8431  2.4287
 7942SOL    HW225759   1.852   8.093   0.902  0.3761  0.5041  0.0071
 7943SOL     OW25760   3.728   8.217   7.234  0.1529  0.0442 -0.3816
 7943SOL    HW125761   3.697   8.180   7.151 -0.1163  0.3121 -0.4035
 7943SOL    HW225762   3.815   8.250   7.215  0.5884 -0.9779 -0.2478
 7944SOL     OW25763   6.088   2.052   8.769  0.2477 -0.3752 -0.0653
 7944SOL    HW125764   6.110   2.007   8.850 -0.5745 -1.7284 -0.5472
 7944SOL    HW225765   6.013   2.107   8.792  2.1541  2.0250  0.8854
 7945SOL     OW25766   7.821   3.588   6.658 -0.0457 -0.3916  0.6668
 7945SOL    HW125767   7.849   3.671   6.698 -0.8876  0.9309 -1.3342
 7945SOL    HW225768   7.726   3.589   6.664 -0.0195 -2.5625  3.0239
 7946SOL     OW25769   2.914   8.525   7.955 -0.7054 -0.5788 -0.3352
 7946SOL    HW125770   2.847   8.586   7.925  0.4492  0.3690 -1.0506
 7946SOL    HW225771   2.970   8.512   7.879  0.4892 -0.5735  0.5209
 7947SOL     OW25772   7.986   2.361   0.989 -0.1225  0.5038 -0.3915
 7947SOL    HW125773   7.935   2.426   1.037  0.9250  1.3330 -0.3684
 7947SOL    HW225774   7.981   2.282   1.043 -0.8914  0.7354 -0.1080
 7948SOL     OW25775   2.463   2.889   4.212 -0.4259 -0.4584  0.4795
 7948SOL    HW125776   2.431   2.934   4.134 -1.7396  0.7587  1.6594
 7948SOL    HW225777   2.558   2.890   4.202 -0.5728 -1.1786 -1.5186
 7949SOL     OW25778   7.337   7.067   7.971  0.2681 -0.1563 -0.1557
 7949SOL    HW125779   7.423   7.072   8.011  0.8367 -0.4633 -1.2822
 7949SOL    HW225780   7.276   7.058   8.044  1.1322  0.6614  0.6918
 7950SOL     OW25781   4.726   7.204   0.612  0.0441 -0.1835  0.0042
 7950SOL    HW125782   4.735   7.264   0.686  0.7163  1.0983 -1.0576
 7950SOL    HW225783   4.638   7.220   0.577  0.8173  1.5448 -1.3296
 7951SOL     OW25784   2.430   6.076   1.446  0.2360  0.2790  0.1116
 7951SOL    HW125785   2.379   6.010   1.494 -0.9156  0.7506 -0.4214
 7951SOL    HW225786   2.481   6.121   1.513 -0.5825  0.2568  0.7635
 7952SOL     OW25787   1.830   4.646   4.558  0.5379 -0.1064 -0.1584
 7952SOL    HW125788   1.880   4.629   4.478  0.4884  1.2375 -0.4963
 7952SOL    HW225789   1.881   4.713   4.604  0.7688 -1.1271  1.1509
 7953SOL     OW25790   8.129   2.819   3.535  0.1798  0.5363 -0.1823
 7953SOL    HW125791   8.046   2.846   3.496  0.3869  0.7785 -0.4554
 7953SOL    HW225792   8.104   2.754   3.601 -0.2754  1.0339  0.1427
 7954SOL     OW25793   0.523   5.388   6.389  0.0548 -0.5618  0.5874
 7954SOL    HW125794   0.608   5.395   6.344 -0.0790 -1.5752  0.1652
 7954SOL    HW225795   0.460   5.425   6.326  0.0873 -0.4893  0.5980
 7955SOL     OW25796   5.137   1.513   3.637 -0.5705 -0.7695 -0.0637
 7955SOL    HW125797   5.044   1.533   3.629 -0.3375  0.5050  0.1911
 7955SOL    HW225798   5.148   1.485   3.728 -0.8964 -2.1343 -0.4194
 7956SOL     OW25799   1.096   7.502   5.784  0.7676 -0.2817  0.1335
 7956SOL    HW125800   1.017   7.555   5.778  1.3938  0.6362 -0.3070
 7956SOL    HW225801   1.075   7.422   5.735  0.6439  0.6602 -1.4336
 7957SOL     OW25802   1.642   5.010   1.371  0.3338  0.4244  0.3974
 7957SOL    HW125803   1.573   4.949   1.397 -1.0248  1.6985 -0.1160
 7957SOL    HW225804   1.722   4.972   1.408 -0.6589 -0.9264  1.2676
 7958SOL     OW25805   1.392   6.064   8.027  0.1140  0.2830 -0.1774
 7958SOL    HW125806   1.319   6.003   8.023 -0.8345  1.4015 -0.3045
 7958SOL    HW225807   1.361   6.135   8.082  0.8287  1.1301 -0.8396
 7959SOL     OW25808   7.057   8.280   3.875  0.4133 -0.2830 -0.4936
 7959SOL    HW125809   7.097   8.194   3.885  2.4665  0.7670  1.2442
 7959SOL    HW225810   7.076   8.305   3.785 -0.4246 -1.7097 -1.0974
 7960SOL     OW25811   2.721   5.102   1.072  0.5252 -0.2703 -0.0749
 7960SOL    HW125812   2.697   5.019   1.032  0.5484 -0.1576 -0.3295
 7960SOL    HW225813   2.783   5.079   1.141 -0.0945 -0.5350  0.3987
 7961SOL     OW25814   1.442   5.922   4.015  0.0174  0.0416 -0.1538
 7961SOL    HW125815   1.374   5.855   4.026 -1.8623  1.9127  0.3448
 7961SOL    HW225816   1.452   5.930   3.920 -2.5228  1.5697 -0.3902
 7962SOL     OW25817   3.821   2.090   1.734 -0.1503  0.2146  0.4872
 7962SOL    HW125818   3.915   2.106   1.735  0.1093 -1.0282 -0.8089
 7962SOL    HW225819   3.812   1.995   1.740 -1.2633  0.2112 -0.7589
 7963SOL     OW25820   4.218   2.169   4.331 -0.2731 -0.4340 -0.7977
 7963SOL    HW125821   4.193   2.237   4.393  1.1535 -0.0688 -0.5880
 7963SOL    HW225822   4.140   2.156   4.277 -0.1709  2.4237 -1.8283
 7964SOL     OW25823   2.151   1.100   1.509  0.2322  0.8591 -0.1888
 7964SOL    HW125824   2.066   1.121   1.548 -0.3218 -1.1199 -0.2179
 7964SOL    HW225825   2.153   1.153   1.429 -1.0988  0.7320 -0.3378
 7965SOL     OW25826   5.667   3.729   3.560 -0.4728 -0.4499 -0.3692
 7965SOL    HW125827   5.584   3.772   3.581  0.0298  0.7089 -0.6586
 7965SOL    HW225828   5.734   3.790   3.590  0.2678 -0.7102 -1.4352
 7966SOL     OW25829   1.684   1.934   2.403  0.2116  0.5224 -0.0397
 7966SOL    HW125830   1.769   1.894   2.389  0.4558  0.7413  0.7378
 7966SOL    HW225831   1.683   1.954   2.497 -0.8276  0.2069  0.0287
 7967SOL     OW25832   2.676   7.130   7.955 -0.0841  0.1639 -0.0651
 7967SOL    HW125833   2.699   7.219   7.927  1.0823 -0.5170 -1.3830
 7967SOL    HW225834   2.754   7.098   7.999  0.9799 -1.4835 -2.8715
 7968SOL     OW25835   6.512   4.256   8.300  0.7234  0.2109  0.2602
 7968SOL    HW125836   6.596   4.261   8.344  1.7979 -3.0704 -1.0753
 7968SOL    HW225837   6.464   4.187   8.347 -0.1305  0.1882 -0.5947
 7969SOL     OW25838   7.713   0.086   4.032 -0.4670  0.6516  0.5872
 7969SOL    HW125839   7.760   0.023   4.087  1.4875  0.8350 -0.7863
 7969SOL    HW225840   7.626   0.048   4.022  0.9383 -2.5305 -1.1400
 7970SOL     OW25841   0.419   7.724   4.413  0.2744  0.5478 -0.0210
 7970SOL    HW125842   0.403   7.784   4.485 -0.2749  0.7270 -0.2882
 7970SOL    HW225843   0.514   7.721   4.404  0.3545  0.3581  0.8449
 7971SOL     OW25844   2.069   0.054   1.310 -0.0790  0.2320  0.3341
 7971SOL    HW125845   2.041   0.087   1.395 -0.5826  0.2169  0.1779
 7971SOL    HW225846   2.154   0.096   1.294 -0.1840  0.5673  0.6474
 7972SOL     OW25847   3.097   3.376   2.897 -0.0818  0.4051  0.1405
 7972SOL    HW125848   3.084   3.305   2.833 -1.2956 -1.1092  1.9293
 7972SOL    HW225849   3.008   3.408   2.914  0.3855  1.8602 -0.0568
 7973SOL     OW25850   6.036   2.143   3.449  0.2906 -0.4410 -0.4101
 7973SOL    HW125851   6.109   2.103   3.497  0.5415 -0.3650 -0.7250
 7973SOL    HW225852   6.034   2.234   3.480 -0.2470 -0.6795  0.2678
 7974SOL     OW25853   4.032   6.519   2.393 -0.2442 -0.3937 -0.2534
 7974SOL    HW125854   4.099   6.573   2.351 -0.1612 -0.4243 -0.1602
 7974SOL    HW225855   3.953   6.573   2.389 -0.1806 -0.2972 -0.2322
 7975SOL     OW25856   8.077   2.460   6.935  0.1900  0.6433  0.4315
 7975SOL    HW125857   8.015   2.397   6.972  2.3603 -3.0672 -1.6161
 7975SOL    HW225858   8.056   2.462   6.841  1.3828  1.5316  0.1670
 7976SOL     OW25859   5.091   1.372   0.343  0.2201  0.0855  0.0664
 7976SOL    HW125860   5.182   1.399   0.330  0.1708  0.3667  0.3019
 7976SOL    HW225861   5.041   1.453   0.339 -0.2298 -0.2576 -1.7836
 7977SOL     OW25862   2.062   5.543   0.137  0.1946 -0.4560 -0.2599
 7977SOL    HW125863   2.081   5.449   0.132  0.6369 -0.4984  1.5580
 7977SOL    HW225864   2.117   5.574   0.209  0.7799  1.4003 -1.4559
 7978SOL     OW25865   6.162   1.317   7.052 -0.3545 -0.0525  0.0992
 7978SOL    HW125866   6.195   1.333   7.140  1.2361  3.2713 -0.9362
 7978SOL    HW225867   6.234   1.342   6.994 -1.1121 -2.7057 -2.2258
 7979SOL     OW25868   2.242   1.627   3.086  0.6508  0.8894  0.1821
 7979SOL    HW125869   2.295   1.703   3.110  1.3878  0.9458 -1.4665
 7979SOL    HW225870   2.305   1.559   3.066 -0.0068 -0.1986  1.6191
 7980SOL     OW25871   3.729   8.007   6.724 -0.2610 -0.3412 -0.5067
 7980SOL    HW125872   3.723   8.022   6.630  0.1638 -3.9830 -1.2709
 7980SOL    HW225873   3.682   7.925   6.738  1.1305 -0.7952  2.1892
 7981SOL     OW25874   1.536   7.589   4.701  0.4133 -0.1645 -0.2901
 7981SOL    HW125875   1.502   7.666   4.746  0.5154 -0.7428  0.8143
 7981SOL    HW225876   1.479   7.517   4.730  1.6395 -0.8864  0.4232
 7982SOL     OW25877   1.142   3.283   2.631 -0.1722  0.4318 -0.2877
 7982SOL    HW125878   1.049   3.296   2.613 -0.3298  0.7353  0.6657
 7982SOL    HW225879   1.151   3.299   2.725  0.7945  0.1126 -0.3076
 7983SOL     OW25880   5.761   4.036   7.193  0.3341  0.0763 -0.3003
 7983SOL    HW125881   5.769   4.009   7.101 -1.0207  0.2243 -0.4793
 7983SOL    HW225882   5.674   4.005   7.219  0.8167 -0.1983  1.0201
 7984SOL     OW25883   8.826   1.581   6.034 -0.3472  0.2694 -0.1702
 7984SOL    HW125884   8.759   1.522   5.998 -0.1170 -0.0083 -0.1529
 7984SOL    HW225885   8.906   1.558   5.986 -0.2688  0.6170 -0.2100
 7985SOL     OW25886   1.158   4.903   3.678 -0.0309  0.5588  0.2757
 7985SOL    HW125887   1.068   4.873   3.691  0.5042 -1.1828  0.2046
 7985SOL    HW225888   1.149   4.994   3.648 -1.7146  0.7199  1.1618
 7986SOL     OW25889   2.848   3.112   7.583 -0.3268  0.0059 -0.4658
 7986SOL    HW125890   2.784   3.179   7.557 -0.7838 -0.5688 -0.8365
 7986SOL    HW225891   2.881   3.142   7.668  1.0433  1.8214 -1.5662
 7987SOL     OW25892   8.765   4.438   2.157  0.4985  0.0661  0.3334
 7987SOL    HW125893   8.671   4.443   2.142  0.7851  1.4576 -1.2066
 7987SOL    HW225894   8.779   4.349   2.189 -1.6497  0.6162  3.2125
 7988SOL     OW25895   0.705   8.242   7.481 -0.0169 -0.3624  0.3784
 7988SOL    HW125896   0.667   8.329   7.496 -1.9355 -1.4856  2.5582
 7988SOL    HW225897   0.664   8.211   7.400 -0.0971  0.3225  0.1475
 7989SOL     OW25898   4.850   0.100   7.129  0.1810 -0.3218  0.1906
 7989SOL    HW125899   4.860   0.129   7.038  0.5737  0.1061  0.3663
 7989SOL    HW225900   4.757   0.080   7.138  0.0121  0.3176 -0.1016
 7990SOL     OW25901   6.876   2.631   0.543 -0.0043  0.0918  0.4740
 7990SOL    HW125902   6.812   2.685   0.589  1.2694  1.4175  0.7822
 7990SOL    HW225903   6.905   2.685   0.470  0.6487 -0.5332  0.2546
 7991SOL     OW25904   8.164   8.268   2.855 -0.2645  0.5708 -0.4502
 7991SOL    HW125905   8.132   8.178   2.845  1.5298 -0.2405  0.5083
 7991SOL    HW225906   8.168   8.281   2.950 -0.5659  1.7153 -0.5802
 7992SOL     OW25907   1.209   5.213   8.023 -0.5945  0.0997 -0.2095
 7992SOL    HW125908   1.300   5.219   8.053 -0.2385 -1.5236 -0.8501
 7992SOL    HW225909   1.208   5.265   7.943  0.1408 -0.9131 -0.9140
 7993SOL     OW25910   5.677   4.600   1.945  0.2571  0.2419  0.2088
 7993SOL    HW125911   5.621   4.676   1.931  1.3315  1.5011  2.2068
 7993SOL    HW225912   5.703   4.572   1.857 -0.8940  1.6273 -0.6002
 7994SOL     OW25913   4.384   2.915   2.273 -0.6981  0.6165  0.1131
 7994SOL    HW125914   4.353   2.880   2.357 -1.3208  1.1844  0.1234
 7994SOL    HW225915   4.358   3.007   2.274  1.3302  1.2325  0.2822
 7995SOL     OW25916   0.652   3.259   2.008 -0.5418 -0.4420  0.3986
 7995SOL    HW125917   0.742   3.241   1.980 -0.8343 -0.1163 -0.7874
 7995SOL    HW225918   0.662   3.302   2.093  0.3837 -1.0431  0.6184
 7996SOL     OW25919   7.027   4.876   5.893 -0.8687 -0.4581  0.4661
 7996SOL    HW125920   7.008   4.830   5.975  0.6432 -0.1067  1.0358
 7996SOL    HW225921   7.040   4.967   5.919 -3.6214  0.3559 -0.6212
 7997SOL     OW25922   7.712   2.387   8.544  0.4850 -0.2537 -0.3427
 7997SOL    HW125923   7.668   2.432   8.472  0.9334 -0.0636 -0.5092
 7997SOL    HW225924   7.755   2.457   8.593 -1.1194 -0.2000  1.0604
 7998SOL     OW25925   7.143   1.182   5.546 -0.0737 -0.1145 -0.0925
 7998SOL    HW125926   7.081   1.194   5.473  0.5179  1.0313 -0.4273
 7998SOL    HW225927   7.229   1.178   5.504  0.3901  1.7501  0.5928
 7999SOL     OW25928   2.276   8.762   7.134 -0.1497 -0.5572  0.2630
 7999SOL    HW125929   2.329   8.748   7.055 -0.8075  1.1018 -0.5265
 7999SOL    HW225930   2.304   8.847   7.167 -0.3935 -0.9104  1.4275
 8000SOL     OW25931   3.563   6.215   7.341  0.6935  0.3539 -0.4090
 8000SOL    HW125932   3.602   6.298   7.367 -0.7063  1.4940 -1.7487
 8000SOL    HW225933   3.479   6.212   7.385  0.1531  0.2995 -1.4036
 8001SOL     OW25934   3.231   3.318   4.801 -0.3134 -0.4208 -0.2681
 8001SOL    HW125935   3.304   3.344   4.744  0.3503  0.4063  0.9209
 8001SOL    HW225936   3.176   3.397   4.805 -1.0855 -0.9126 -0.8295
 8002SOL     OW25937   6.405   5.033   0.190 -0.0098  0.7190  0.4216
 8002SOL    HW125938   6.336   5.099   0.183  0.0142  0.6825 -0.1876
 8002SOL    HW225939   6.452   5.038   0.107  0.1997  0.1618  0.4998
 8003SOL     OW25940   7.117   5.458   5.756 -0.4759  0.1449 -0.0470
 8003SOL    HW125941   7.151   5.369   5.744  0.6452  0.4297  0.8677
 8003SOL    HW225942   7.139   5.480   5.846  0.0160  1.6540 -0.5044
 8004SOL     OW25943   2.230   7.573   3.224 -0.2169 -0.4364 -0.3464
 8004SOL    HW125944   2.261   7.539   3.308  0.9473  0.5016 -0.3600
 8004SOL    HW225945   2.277   7.656   3.214 -0.6286 -0.3562 -1.7434
 8005SOL     OW25946   8.804   0.328   4.347  0.0824 -0.2205 -0.4953
 8005SOL    HW125947   8.715   0.295   4.347 -0.4315  1.0989  0.2639
 8005SOL    HW225948   8.800   0.409   4.296  1.0787 -0.7145 -1.3924
 8006SOL     OW25949   0.242   1.399   0.049  0.0938  0.5557 -0.4418
 8006SOL    HW125950   0.181   1.413  -0.023 -0.7617 -0.5851  0.0356
 8006SOL    HW225951   0.217   1.464   0.115  0.4526  1.1610 -0.8915
 8007SOL     OW25952   4.574   3.292   5.539 -0.2247  0.0400  0.2583
 8007SOL    HW125953   4.588   3.315   5.447 -0.6273 -4.4859 -1.1979
 8007SOL    HW225954   4.480   3.275   5.545 -0.2291  0.4470  1.5894
 8008SOL     OW25955   1.675   5.467   2.669  0.1421 -0.6395 -0.2662
 8008SOL    HW125956   1.648   5.427   2.752  1.2905  0.4622  0.6907
 8008SOL    HW225957   1.752   5.519   2.692  0.0515  0.2805 -1.8988
 8009SOL     OW25958   4.921   2.652   1.325  0.3615  0.0689 -0.3228
 8009SOL    HW125959   4.946   2.730   1.275 -0.4043  0.9761  0.6542
 8009SOL    HW225960   4.980   2.653   1.401 -0.5029  0.4492  0.3614
 8010SOL     OW25961   3.266   3.571   7.138  0.3294  0.0999  0.1929
 8010SOL    HW125962   3.327   3.546   7.207 -1.6061 -1.0326  1.5551
 8010SOL    HW225963   3.244   3.662   7.157  2.9155  1.1808 -1.4052
 8011SOL     OW25964   4.991   3.121   2.062 -0.1682  0.3077 -0.0413
 8011SOL    HW125965   4.991   3.214   2.041  1.0472  0.1582 -0.8268
 8011SOL    HW225966   4.979   3.078   1.977 -3.0481 -0.2755  0.5502
 8012SOL     OW25967   1.447   5.196   8.394  0.8221 -0.1263  0.2588
 8012SOL    HW125968   1.456   5.253   8.470  1.0069  0.0476  0.1090
 8012SOL    HW225969   1.478   5.110   8.425 -0.7100 -0.4822  0.8617
 8013SOL     OW25970   2.410   2.727   1.470 -0.8490  0.4275 -0.3199
 8013SOL    HW125971   2.320   2.726   1.435 -0.9040 -1.6902 -0.2033
 8013SOL    HW225972   2.406   2.672   1.548  0.5396  0.4453 -0.2179
 8014SOL     OW25973   6.300   5.797   3.127  0.9159  0.2471  0.8532
 8014SOL    HW125974   6.238   5.729   3.153  1.1487 -0.2813  0.0739
 8014SOL    HW225975   6.249   5.858   3.073  1.1588 -0.4535 -0.2035
 8015SOL     OW25976   1.419   0.250   6.657 -0.3856 -0.7108 -0.0703
 8015SOL    HW125977   1.447   0.159   6.668 -1.4980 -1.1717 -0.8596
 8015SOL    HW225978   1.376   0.252   6.571 -0.2327  0.5982 -0.1405
 8016SOL     OW25979   4.483   0.007   8.684  0.3319 -0.0083  0.3343
 8016SOL    HW125980   4.460   0.053   8.765  0.2021 -0.5388  0.6022
 8016SOL    HW225981   4.533  -0.069   8.713  0.4498 -0.1021 -0.0995
 8017SOL     OW25982   3.294   7.011   3.157 -0.3743  0.4730  0.0922
 8017SOL    HW125983   3.233   6.937   3.147 -0.8887  1.1134 -1.9241
 8017SOL    HW225984   3.360   6.979   3.219 -0.8111 -1.5354 -0.4085
 8018SOL     OW25985   0.740   3.420   8.535 -0.0239  0.2377  0.2023
 8018SOL    HW125986   0.683   3.398   8.609  2.1394 -0.0325  1.8730
 8018SOL    HW225987   0.786   3.499   8.563  1.7952 -0.6080 -0.2874
 8019SOL     OW25988   4.583   1.949   7.501  0.3038  0.3700  0.2882
 8019SOL    HW125989   4.653   1.896   7.463  0.0352  0.4395 -0.3099
 8019SOL    HW225990   4.565   1.909   7.586 -0.9841 -1.4636 -0.7887
 8020SOL     OW25991   3.473   3.215   1.481  0.1067 -0.3350 -0.1059
 8020SOL    HW125992   3.534   3.288   1.474 -1.6956  1.3758  1.0524
 8020SOL    HW225993   3.393   3.246   1.440 -0.7402 -1.6057  0.5078
 8021SOL     OW25994   2.089   3.005   7.399  0.2579 -0.6474 -0.1965
 8021SOL    HW125995   2.149   3.029   7.328 -0.3922 -0.2879 -0.6341
 8021SOL    HW225996   2.098   3.076   7.463 -0.8423  0.2412 -0.9828
 8022SOL     OW25997   6.233   2.657   8.316 -0.1063 -0.4126  0.2748
 8022SOL    HW125998   6.255   2.687   8.405 -0.8197 -0.7051  0.5607
 8022SOL    HW225999   6.257   2.565   8.316  0.0392 -0.3746  0.1077
 8023SOL     OW26000   0.056   8.431   4.242 -0.1769  0.2313  0.1220
 8023SOL    HW126001   0.127   8.400   4.298 -0.0853  1.5356  0.7592
 8023SOL    HW226002   0.043   8.523   4.268 -1.4520  0.2891 -0.6420
 8024SOL     OW26003   4.942   4.576   2.258 -0.4339 -0.4428 -0.4581
 8024SOL    HW126004   4.933   4.481   2.251  0.8883 -0.7039  0.8938
 8024SOL    HW226005   5.018   4.596   2.202  0.0969 -0.3751  0.2738
 8025SOL     OW26006   8.477   0.415   6.199  0.1589 -0.5366  0.1297
 8025SOL    HW126007   8.394   0.459   6.216  1.6507  3.1427 -1.0680
 8025SOL    HW226008   8.485   0.417   6.103  1.8000 -0.3756  0.2486
 8026SOL     OW26009   3.156   2.395   7.588 -0.6546  0.5202  0.1676
 8026SOL    HW126010   3.175   2.470   7.531 -2.0037  0.3993 -0.4778
 8026SOL    HW226011   3.082   2.424   7.641 -1.8039 -0.6482 -0.7354
 8027SOL     OW26012   5.568   3.403   2.735  0.2770 -0.0690  0.0286
 8027SOL    HW126013   5.659   3.420   2.711  0.5845 -1.4435  0.1278
 8027SOL    HW226014   5.574   3.345   2.811 -0.6919  1.9209  1.6939
 8028SOL     OW26015   2.886   6.129   1.030  0.3581  0.0761  1.0880
 8028SOL    HW126016   2.956   6.119   1.095  0.2672  1.3712  1.4133
 8028SOL    HW226017   2.916   6.199   0.973 -0.4525  0.3063  0.9320
 8029SOL     OW26018   2.463   0.660   8.031 -0.0540 -0.2869  0.7559
 8029SOL    HW126019   2.382   0.675   8.080  0.1126  0.2317  0.8811
 8029SOL    HW226020   2.437   0.603   7.959 -0.7669  0.7140  0.1782
 8030SOL     OW26021   6.793   3.110   3.364  0.2056  0.4196  0.5976
 8030SOL    HW126022   6.820   3.185   3.417  0.2560  1.0814 -0.3379
 8030SOL    HW226023   6.700   3.125   3.346  0.5362  1.0062 -0.7520
 8031SOL     OW26024   4.271   7.768   1.302  0.2235 -0.4541 -0.0791
 8031SOL    HW126025   4.355   7.814   1.296  0.5203 -1.1516 -1.6821
 8031SOL    HW226026   4.218   7.822   1.361  1.5615  0.3508  0.4173
 8032SOL     OW26027   2.941   5.828   1.753 -0.0013 -0.1307  0.3123
 8032SOL    HW126028   2.941   5.808   1.847 -0.3175  0.3727  0.4227
 8032SOL    HW226029   3.031   5.810   1.724  0.7276  1.9234  1.1882
 8033SOL     OW26030   6.765   8.592   1.091 -0.1759  0.2645  0.0928
 8033SOL    HW126031   6.855   8.592   1.123 -0.6235  2.6360  1.5893
 8033SOL    HW226032   6.717   8.538   1.155 -0.2219  1.0827  0.7721
 8034SOL     OW26033   1.142   0.950   1.250  0.1686  0.0166 -0.1456
 8034SOL    HW126034   1.119   0.857   1.256  1.7995 -0.3248  2.1071
 8034SOL    HW226035   1.178   0.960   1.162 -0.7091 -1.3014 -0.6852
 8035SOL     OW26036   1.496   7.193   8.039 -0.2058  0.1049 -0.6193
 8035SOL    HW126037   1.516   7.257   8.107  2.6269  0.7392 -1.8944
 8035SOL    HW226038   1.425   7.140   8.075 -0.8830  2.3244  1.5282
 8036SOL     OW26039   5.457   7.614   8.248  0.3039 -0.0515  0.0796
 8036SOL    HW126040   5.429   7.687   8.193  0.3631 -0.9356 -1.1813
 8036SOL    HW226041   5.492   7.655   8.327  3.3712  1.5634 -1.8766
 8037SOL     OW26042   1.248   2.170   7.779  0.4712  0.2421 -0.6360
 8037SOL    HW126043   1.271   2.229   7.707  0.8541 -1.5831 -2.0591
 8037SOL    HW226044   1.157   2.146   7.763 -0.2700  1.7554  0.9387
 8038SOL     OW26045   2.396   5.032   7.939  0.4862 -0.0429 -0.0128
 8038SOL    HW126046   2.340   4.979   7.883  0.0642  0.1142  0.2605
 8038SOL    HW226047   2.473   4.977   7.955  1.3914  0.5176 -2.0922
 8039SOL     OW26048   3.857   1.177   1.881  0.8347  0.3179 -0.5671
 8039SOL    HW126049   3.825   1.197   1.793  0.9073 -0.7465 -0.8507
 8039SOL    HW226050   3.869   1.082   1.881 -0.3900  0.1157  0.9924
 8040SOL     OW26051   2.861   4.662   3.979 -0.0870 -0.1515 -0.1891
 8040SOL    HW126052   2.839   4.577   4.017  0.5686 -1.3119 -2.2252
 8040SOL    HW226053   2.836   4.653   3.887  1.2936  1.3675 -0.7458
 8041SOL     OW26054   5.428   8.073   6.576 -0.4395  0.5895  0.1435
 8041SOL    HW126055   5.521   8.089   6.587 -0.2265  0.9771 -1.7677
 8041SOL    HW226056   5.417   7.980   6.596  0.5052  0.3531 -0.3797
 8042SOL     OW26057   4.879   1.581   1.097  0.4564 -0.0142  0.0280
 8042SOL    HW126058   4.929   1.654   1.061  2.0153 -1.3434 -0.6472
 8042SOL    HW226059   4.812   1.562   1.031  0.3987  0.4599 -0.0477
 8043SOL     OW26060   7.666   0.425   1.362  0.2890  0.2200 -0.5242
 8043SOL    HW126061   7.732   0.391   1.303 -0.4053  2.1025 -2.5197
 8043SOL    HW226062   7.602   0.355   1.371  1.9048 -1.2061  0.5416
 8044SOL     OW26063   8.060   8.312   7.346  0.2948 -0.0068 -0.3119
 8044SOL    HW126064   8.107   8.356   7.276 -1.4303  0.9658 -0.9241
 8044SOL    HW226065   7.968   8.317   7.319 -0.2182 -1.4013  1.0502
 8045SOL     OW26066   5.341   0.467   1.341  0.2686 -0.5904  0.3172
 8045SOL    HW126067   5.413   0.469   1.404  0.7206  2.2022 -0.1361
 8045SOL    HW226068   5.281   0.535   1.371 -0.4151 -0.4424 -1.2505
 8046SOL     OW26069   3.184   7.473   4.852  0.2270 -0.0433  0.0023
 8046SOL    HW126070   3.185   7.432   4.938 -0.5575  1.0772  0.5719
 8046SOL    HW226071   3.224   7.559   4.866  0.3790  0.0279 -0.8209
 8047SOL     OW26072   3.749   1.443   0.431  0.2216  0.8124 -0.1425
 8047SOL    HW126073   3.811   1.476   0.365  0.6055  0.5313  0.0708
 8047SOL    HW226074   3.683   1.396   0.380  0.6601  0.3704 -0.3115
 8048SOL     OW26075   2.308   7.276   0.399 -0.1710 -0.0813 -0.1873
 8048SOL    HW126076   2.334   7.207   0.338 -0.4090  0.8660 -1.3786
 8048SOL    HW226077   2.391   7.317   0.426 -0.1456  0.2778 -0.8072
 8049SOL     OW26078   0.316   4.784   2.527  0.0884 -0.1966 -0.4553
 8049SOL    HW126079   0.288   4.790   2.436 -1.2258  0.0754 -0.0535
 8049SOL    HW226080   0.343   4.692   2.538 -0.6261 -0.4593 -0.8670
 8050SOL     OW26081   5.233   5.402   4.255  0.0549  0.4890 -0.0872
 8050SOL    HW126082   5.217   5.410   4.349  0.1562 -0.1334 -0.0137
 8050SOL    HW226083   5.320   5.440   4.242  0.6081 -0.6286  0.2825
 8051SOL     OW26084   2.414   0.362   1.702  0.2388 -0.4467 -0.0181
 8051SOL    HW126085   2.479   0.428   1.677  0.4777  0.7203  3.2092
 8051SOL    HW226086   2.330   0.407   1.692  0.2217 -0.4813 -0.0312
 8052SOL     OW26087   8.606   2.261   7.571 -0.4124  0.0585  0.2794
 8052SOL    HW126088   8.622   2.356   7.565 -0.4679 -0.0129 -1.8922
 8052SOL    HW226089   8.646   2.235   7.654 -0.0556  1.9175  0.7322
 8053SOL     OW26090   4.108   3.379   8.510 -0.0563 -0.1299  0.6672
 8053SOL    HW126091   4.025   3.423   8.528  0.1412  0.6009 -0.1622
 8053SOL    HW226092   4.136   3.344   8.595 -0.1623  1.4570  1.3837
 8054SOL     OW26093   4.029   5.522   1.173  0.0207 -0.2635  0.5442
 8054SOL    HW126094   4.074   5.551   1.095  0.7572  1.2706  1.4919
 8054SOL    HW226095   3.964   5.591   1.191 -0.8268 -1.0845  0.7394
 8055SOL     OW26096   1.455   3.557   1.309 -0.1463 -0.0875  0.1807
 8055SOL    HW126097   1.538   3.583   1.270 -1.2761  5.1885  0.5414
 8055SOL    HW226098   1.396   3.544   1.235  0.0876 -0.1200 -0.0017
 8056SOL     OW26099   5.266   0.502   4.016  0.0903  0.9428 -0.3941
 8056SOL    HW126100   5.214   0.547   3.949  1.6180  0.1149 -2.2352
 8056SOL    HW226101   5.321   0.441   3.967  1.3921  0.3763  1.6360
 8057SOL     OW26102   4.732   2.266   0.369 -0.9214 -0.6413 -0.2303
 8057SOL    HW126103   4.735   2.223   0.284 -2.3068  1.0828 -1.2118
 8057SOL    HW226104   4.639   2.286   0.382 -0.4271  1.4376  0.4681
 8058SOL     OW26105   7.754   0.049   7.119 -0.0784  0.3720  0.3987
 8058SOL    HW126106   7.749   0.069   7.213 -0.5185  1.5017  0.1445
 8058SOL    HW226107   7.789   0.129   7.079 -0.3571  0.0741 -0.4602
 8059SOL     OW26108   3.381   6.379   1.233 -0.2311 -0.1691  0.5079
 8059SOL    HW126109   3.437   6.376   1.155 -0.4388 -2.6951  0.3611
 8059SOL    HW226110   3.312   6.442   1.211  0.6965  0.5097 -0.6106
 8060SOL     OW26111   7.105   4.556   0.655 -0.4079 -0.3772  0.2762
 8060SOL    HW126112   7.197   4.551   0.626  0.7018  0.9493  3.1998
 8060SOL    HW226113   7.077   4.644   0.631  0.0494  0.2079  1.7578
 8061SOL     OW26114   5.289   1.559   4.017  0.0341 -0.1129  0.3002
 8061SOL    HW126115   5.284   1.580   4.111 -1.1366 -0.7075  0.3853
 8061SOL    HW226116   5.379   1.580   3.993  0.1627  0.7166  1.3991
 8062SOL     OW26117   3.517   6.088   5.359  0.0237 -0.2230  0.1533
 8062SOL    HW126118   3.504   6.156   5.425 -0.6066  0.2321 -0.4342
 8062SOL    HW226119   3.611   6.092   5.339 -0.1022  0.8237 -0.2578
 8063SOL     OW26120   6.832   1.714   6.242 -0.7764 -0.2714 -0.2182
 8063SOL    HW126121   6.866   1.786   6.294 -0.1465 -1.1331  0.5910
 8063SOL    HW226122   6.748   1.747   6.207  0.1609  1.3485 -1.0604
 8064SOL     OW26123   2.795   4.019   2.269  0.1624  1.0024  0.1032
 8064SOL    HW126124   2.721   4.079   2.281  0.3449  0.9139  1.8462
 8064SOL    HW226125   2.871   4.069   2.299  0.6694  0.7172 -0.6782
 8065SOL     OW26126   4.668   2.127   0.116  0.1581 -0.0874  0.8215
 8065SOL    HW126127   4.611   2.050   0.110 -2.9836  2.1690 -1.6384
 8065SOL    HW226128   4.726   2.119   0.040  1.0544 -0.8540  1.5700
 8066SOL     OW26129   7.887   7.976   1.051  0.2002 -0.2534 -0.1979
 8066SOL    HW126130   7.938   8.057   1.038 -0.6344  0.5407  1.2254
 8066SOL    HW226131   7.946   7.907   1.022  0.6581  0.9025 -2.1920
 8067SOL     OW26132   3.497   0.214   3.407 -0.8592 -0.4149  0.3292
 8067SOL    HW126133   3.512   0.148   3.339 -1.0200 -0.7228  0.5913
 8067SOL    HW226134   3.574   0.270   3.403 -0.7418 -0.5906  0.0749
 8068SOL     OW26135   4.462   0.140   5.059 -0.1481  0.2388 -0.3426
 8068SOL    HW126136   4.421   0.196   5.124 -0.3271 -2.6267  2.2638
 8068SOL    HW226137   4.555   0.137   5.084  0.0280  0.0693 -0.9829
 8069SOL     OW26138   0.200   2.939   7.824 -0.1700 -0.0955  0.1985
 8069SOL    HW126139   0.291   2.964   7.836 -0.0362 -0.2869 -0.3938
 8069SOL    HW226140   0.171   2.908   7.910  0.8999 -1.9129 -0.0472
 8070SOL     OW26141   8.687   6.195   8.460  0.1281  0.3807 -0.1005
 8070SOL    HW126142   8.691   6.101   8.477 -1.0002  0.4484  0.6341
 8070SOL    HW226143   8.628   6.204   8.384  0.8248  0.4524 -0.6432
 8071SOL     OW26144   2.389   5.057   6.608 -0.0811 -0.2674 -0.1003
 8071SOL    HW126145   2.438   5.132   6.574  0.1693 -0.5509 -0.3691
 8071SOL    HW226146   2.298   5.087   6.610  0.1475  0.4085  0.8166
 8072SOL     OW26147   1.611   1.262   2.949 -0.5436  0.2895 -0.4993
 8072SOL    HW126148   1.641   1.347   2.917  4.4015 -0.4730  1.1561
 8072SOL    HW226149   1.587   1.278   3.040  1.2536 -0.0633  0.0910
 8073SOL     OW26150   2.875   0.955   0.285  0.3549 -0.2101  0.2795
 8073SOL    HW126151   2.806   0.949   0.351  0.4756  0.1071  0.4411
 8073SOL    HW226152   2.898   1.048   0.284 -1.1410  0.2009 -1.7538
 8074SOL     OW26153   3.637   5.179   1.572  0.6515 -0.0499 -0.1030
 8074SOL    HW126154   3.644   5.113   1.503 -1.2254 -1.6131  1.0890
 8074SOL    HW226155   3.600   5.132   1.647  0.6947  2.0308  1.3183
 8075SOL     OW26156   7.103   0.214   0.853 -0.1143  0.7595 -0.2942
 8075SOL    HW126157   7.053   0.294   0.864 -0.0795  0.4477  3.3637
 8075SOL    HW226158   7.183   0.241   0.809  0.2012  2.9103  1.4558
 8076SOL     OW26159   7.085   8.369   2.938 -0.0803 -0.0321  0.0692
 8076SOL    HW126160   7.101   8.427   2.863  0.6933 -3.4053 -2.6620
 8076SOL    HW226161   6.990   8.363   2.944 -0.1851 -1.0049 -1.8714
 8077SOL     OW26162   7.332   8.507   5.094  0.4036  0.1086 -0.4890
 8077SOL    HW126163   7.389   8.430   5.088  0.6108  0.1950  0.3054
 8077SOL    HW226164   7.328   8.527   5.187 -2.2156 -0.8212 -0.3192
 8078SOL     OW26165   2.733   6.905   0.220  0.4321  0.6316  0.1253
 8078SOL    HW126166   2.650   6.867   0.249  0.7137  0.2172  0.4037
 8078SOL    HW226167   2.725   6.909   0.125  0.3067  0.0721  0.1085
 8079SOL     OW26168   0.668   6.618   4.219  0.2595  1.0851 -0.4767
 8079SOL    HW126169   0.588   6.657   4.254  1.5260  2.2266  1.3412
 8079SOL    HW226170   0.656   6.618   4.124 -0.6140  4.2794 -0.4962
 8080SOL     OW26171   4.167   7.566   4.841 -0.4430 -0.3888 -0.4067
 8080SOL    HW126172   4.260   7.579   4.826 -0.5657 -0.7775 -1.6267
 8080SOL    HW226173   4.148   7.616   4.921  0.7074  0.0539 -0.3913
 8081SOL     OW26174   4.340   2.190   8.809 -0.3899  0.5406 -0.7236
 8081SOL    HW126175   4.254   2.233   8.810 -1.8233 -2.0606 -1.1112
 8081SOL    HW226176   4.333   2.122   8.876  1.1846 -0.0747 -1.1401
 8082SOL     OW26177   8.005   6.900   4.591  0.4640  0.5807 -0.1536
 8082SOL    HW126178   7.964   6.814   4.590  1.8057 -0.0916 -0.0775
 8082SOL    HW226179   7.962   6.947   4.662  0.8331 -0.6147  0.8808
 8083SOL     OW26180   5.887   5.490   3.568  0.7307 -0.3205 -0.6322
 8083SOL    HW126181   5.929   5.409   3.539 -0.6665 -0.7925 -1.3947
 8083SOL    HW226182   5.833   5.517   3.495 -2.2203 -1.0662  1.1219
 8084SOL     OW26183   2.889   8.608   4.181  0.2131  0.1064  0.6618
 8084SOL    HW126184   2.945   8.686   4.184  0.1399  0.1393  1.2623
 8084SOL    HW226185   2.833   8.615   4.258 -1.3153  0.5730 -0.4437
 8085SOL     OW26186   3.557   1.320   7.163 -0.3199  0.7884 -0.1662
 8085SOL    HW126187   3.514   1.344   7.246 -1.5611 -1.8157  0.0320
 8085SOL    HW226188   3.582   1.404   7.124 -2.7526  2.2813  1.2470
 8086SOL     OW26189   0.168   7.608   2.098  0.2416  0.3546  0.0846
 8086SOL    HW126190   0.197   7.698   2.086  1.2506  0.2210  1.2755
 8086SOL    HW226191   0.132   7.606   2.187 -0.7528 -0.1745 -0.3141
 8087SOL     OW26192   3.759   1.325   3.029 -0.6076 -0.6585  0.3611
 8087SOL    HW126193   3.711   1.346   3.109 -0.6881 -0.4166  0.2512
 8087SOL    HW226194   3.790   1.409   2.998 -0.1674 -0.8090  0.3956
 8088SOL     OW26195   6.247   4.832   1.598  0.7373 -0.7434  0.3247
 8088SOL    HW126196   6.335   4.859   1.622  1.5965 -2.2617 -0.9175
 8088SOL    HW226197   6.258   4.744   1.561 -1.5672 -1.9199  2.1479
 8089SOL     OW26198   4.493   4.704   3.449 -0.4125 -0.4347 -0.4312
 8089SOL    HW126199   4.411   4.654   3.443 -0.6736 -0.2609  1.2986
 8089SOL    HW226200   4.557   4.641   3.481 -0.9346  0.4476  2.5979
 8090SOL     OW26201   5.496   2.209   0.426  0.0983  0.7452  0.3279
 8090SOL    HW126202   5.534   2.265   0.494  0.8534 -0.8124  1.2401
 8090SOL    HW226203   5.524   2.120   0.449 -2.2179 -0.2173 -0.2750
 8091SOL     OW26204   0.059   7.919   2.228  0.1027 -0.0735 -0.8443
 8091SOL    HW126205  -0.028   7.938   2.192  1.2612  3.1482 -2.3234
 8091SOL    HW226206   0.117   7.923   2.152  1.6466 -1.8812  0.1617
 8092SOL     OW26207   5.446   7.543   0.490  0.1464 -0.1507  0.3927
 8092SOL    HW126208   5.509   7.517   0.557 -0.3897 -2.9494 -0.0637
 8092SOL    HW226209   5.496   7.541   0.408 -0.4657 -2.5235  0.0094
 8093SOL     OW26210   8.125   0.158   1.920 -0.2640  0.3154  0.6676
 8093SOL    HW126211   8.151   0.112   1.999  0.2428  0.6327  0.6895
 8093SOL    HW226212   8.115   0.249   1.947  1.9017  0.8248 -0.0280
 8094SOL     OW26213   4.173   4.874   8.581  0.1038 -0.2647  0.1840
 8094SOL    HW126214   4.132   4.793   8.553  0.1650 -0.0264 -0.6361
 8094SOL    HW226215   4.223   4.903   8.504  1.2877 -0.2247  0.9465
 8095SOL     OW26216   7.171   3.080   6.124 -0.6274 -0.1870  0.1573
 8095SOL    HW126217   7.231   3.152   6.140 -1.5170  0.6157 -0.0765
 8095SOL    HW226218   7.204   3.039   6.044 -1.4328  1.3928 -1.0361
 8096SOL     OW26219   5.144   7.991   4.734  0.0388  0.0150  0.5964
 8096SOL    HW126220   5.164   8.074   4.690 -1.9317  0.2782  0.0701
 8096SOL    HW226221   5.137   8.014   4.827  0.3698  0.2575  0.5627
 8097SOL     OW26222   5.895   2.620   1.870 -0.2297  0.3669  0.2339
 8097SOL    HW126223   5.977   2.668   1.882 -1.0134  1.6652  0.5895
 8097SOL    HW226224   5.861   2.608   1.958 -0.0310 -0.9296  0.1596
 8098SOL     OW26225   7.921   1.808   6.361 -0.0237 -0.5512  0.2093
 8098SOL    HW126226   7.884   1.727   6.395  0.0898 -0.2632  1.0339
 8098SOL    HW226227   7.911   1.800   6.266 -1.8601 -0.6603  0.3607
 8099SOL     OW26228   5.863   4.041   2.334  0.4084  0.5052 -0.3187
 8099SOL    HW126229   5.951   4.038   2.295  0.7843 -1.4025  0.5705
 8099SOL    HW226230   5.863   4.121   2.386  1.1580  1.1892 -1.3090
 8100SOL     OW26231   6.920   8.522   4.041  0.1780  0.4910 -0.3847
 8100SOL    HW126232   6.969   8.484   3.969 -0.4319 -0.3198 -0.3773
 8100SOL    HW226233   6.832   8.485   4.034  0.3515 -0.3435  1.3174
 8101SOL     OW26234   5.002   8.559   1.577 -0.2002  0.0660 -0.2219
 8101SOL    HW126235   5.081   8.519   1.540  0.4127  1.1004 -0.0999
 8101SOL    HW226236   4.932   8.536   1.516  0.3376 -0.2968 -0.7099
 8102SOL     OW26237   5.409   0.272   3.989  0.4437 -0.0279 -0.3912
 8102SOL    HW126238   5.494   0.230   3.996 -0.7090 -2.1897  2.4538
 8102SOL    HW226239   5.357   0.212   3.935  0.0302 -0.0261 -0.0050
 8103SOL     OW26240   5.128   5.988   5.940 -0.1013  0.5185  0.5399
 8103SOL    HW126241   5.189   5.918   5.963 -1.3833 -0.7680  0.1453
 8103SOL    HW226242   5.045   5.962   5.980 -1.3845  0.2255 -2.1137
 8104SOL     OW26243   4.305   5.495   6.105  0.4834 -0.2352  0.0276
 8104SOL    HW126244   4.285   5.562   6.170  0.3981 -0.3292  0.0989
 8104SOL    HW226245   4.272   5.414   6.144 -3.0443  0.1928 -1.6778
 8105SOL     OW26246   8.422   6.473   4.849  0.7092 -0.1932 -0.0577
 8105SOL    HW126247   8.437   6.522   4.768  2.9379  0.0068  0.4050
 8105SOL    HW226248   8.380   6.536   4.908  0.3819  0.0950 -0.5898
 8106SOL     OW26249   4.458   8.036   3.342 -0.7186 -0.2228 -0.2141
 8106SOL    HW126250   4.470   7.968   3.275 -0.9043 -0.4644 -0.0073
 8106SOL    HW226251   4.364   8.032   3.362 -0.7655  0.2309 -0.3415
 8107SOL     OW26252   8.169   4.548   5.191 -0.6249  0.1716 -0.1541
 8107SOL    HW126253   8.076   4.541   5.211 -0.4010 -1.4082  0.5162
 8107SOL    HW226254   8.172   4.580   5.101 -1.7348  3.5357  0.8766
 8108SOL     OW26255   0.424   0.681   5.442 -0.0204  0.3464 -0.3688
 8108SOL    HW126256   0.470   0.701   5.524 -1.2169 -2.7172  1.2302
 8108SOL    HW226257   0.333   0.709   5.458 -0.1434  0.2611 -0.8871
 8109SOL     OW26258   6.984   6.852   1.087 -0.2610 -0.7042  0.3639
 8109SOL    HW126259   6.998   6.931   1.139 -2.1288  1.6131 -2.3475
 8109SOL    HW226260   7.064   6.844   1.034 -0.3857 -0.0905  0.0638
 8110SOL     OW26261   1.109   6.133   1.413 -0.9943  0.0740  0.0903
 8110SOL    HW126262   1.064   6.176   1.486 -0.0056  1.7687 -0.2599
 8110SOL    HW226263   1.187   6.094   1.452 -1.4328 -0.6547  0.2520
 8111SOL     OW26264   1.017   1.151   8.650  0.6110  0.1973 -0.3116
 8111SOL    HW126265   0.937   1.168   8.700 -0.9189 -1.0241 -2.2129
 8111SOL    HW226266   1.015   1.215   8.579 -0.4700 -1.8811 -2.2641
 8112SOL     OW26267   4.473   5.908   3.244 -0.2886  0.5828  0.0727
 8112SOL    HW126268   4.547   5.967   3.255  0.3156 -0.1573  0.0658
 8112SOL    HW226269   4.439   5.927   3.156  0.4031  0.3783 -0.2492
 8113SOL     OW26270   3.584   7.745   5.987 -0.0426 -0.0520 -0.3125
 8113SOL    HW126271   3.583   7.651   5.971  0.7739  0.1345 -1.7297
 8113SOL    HW226272   3.624   7.782   5.908 -2.5846  1.6996 -0.9147
 8114SOL     OW26273   2.158   1.485   1.731  0.3053  0.0870 -0.0864
 8114SOL    HW126274   2.161   1.575   1.763  0.0904 -0.2071  0.7855
 8114SOL    HW226275   2.117   1.492   1.645 -1.1655  0.6683  0.6290
 8115SOL     OW26276   6.385   5.588   7.818  0.0042  0.3488 -0.6701
 8115SOL    HW126277   6.335   5.596   7.899  1.2712 -0.9761  0.2885
 8115SOL    HW226278   6.434   5.670   7.812  0.0753  0.3631  0.0245
 8116SOL     OW26279   7.088   4.563   0.919  0.1513 -0.5055  0.2938
 8116SOL    HW126280   7.052   4.652   0.916  0.9000 -0.2116 -0.1764
 8116SOL    HW226281   7.096   4.537   0.827  1.0078 -0.6142  0.3905
 8117SOL     OW26282   7.845   0.041   2.064  0.2265  0.0431  0.1648
 8117SOL    HW126283   7.851   0.036   2.159  1.9340 -1.6731  0.0253
 8117SOL    HW226284   7.897  -0.033   2.032 -1.1643 -0.0834 -2.0947
 8118SOL     OW26285   8.506   5.035   8.731  0.5337  0.1077  0.1407
 8118SOL    HW126286   8.515   5.125   8.764  0.1911  0.4975 -0.8005
 8118SOL    HW226287   8.459   4.989   8.801  2.2015  0.2059  1.3752
 8119SOL     OW26288   5.714   5.446   6.267  0.0409  0.9212 -0.1235
 8119SOL    HW126289   5.667   5.377   6.221  0.1411  0.2449  0.7501
 8119SOL    HW226290   5.802   5.445   6.229 -0.1538  1.0285 -0.5770
 8120SOL     OW26291   6.237   1.588   4.079 -0.2972  0.2960  0.1501
 8120SOL    HW126292   6.224   1.673   4.037  2.3025  0.7465  0.0679
 8120SOL    HW226293   6.241   1.608   4.173  1.2736  0.4594  0.0719
 8121SOL     OW26294   0.064   5.379   0.174  0.0562  0.0531 -0.3574
 8121SOL    HW126295   0.044   5.323   0.099  0.4971 -0.9673  0.2776
 8121SOL    HW226296   0.030   5.465   0.149 -0.2993 -0.4041 -1.4948
 8122SOL     OW26297   3.471   0.896   7.587 -0.1125  0.1505 -0.5628
 8122SOL    HW126298   3.380   0.902   7.558 -0.2615  1.0182  0.0147
 8122SOL    HW226299   3.470   0.826   7.652 -0.4127  0.2679 -0.4343
 8123SOL     OW26300   5.970   2.120   2.963  0.4070  0.1495  0.1506
 8123SOL    HW126301   5.957   2.165   2.880  0.7647 -0.8402 -0.4607
 8123SOL    HW226302   5.926   2.035   2.951 -0.1635  0.2745  1.2360
 8124SOL     OW26303   1.161   6.369   6.630 -0.1594 -0.5537 -0.2059
 8124SOL    HW126304   1.241   6.323   6.653  0.0530 -0.0955 -0.0026
 8124SOL    HW226305   1.192   6.452   6.591 -0.5324 -0.2824  0.0722
 8125SOL     OW26306   3.256   2.577   6.309 -0.3652  0.0920 -0.4672
 8125SOL    HW126307   3.281   2.663   6.343 -1.3496  0.9843 -1.8573
 8125SOL    HW226308   3.175   2.556   6.355 -0.0211 -0.1779  0.0126
 8126SOL     OW26309   3.193   8.778   1.740  0.6142 -0.0841  0.2005
 8126SOL    HW126310   3.136   8.759   1.814  0.2461  0.1377 -0.0193
 8126SOL    HW226311   3.213   8.871   1.747  0.2933  0.0160 -0.1709
 8127SOL     OW26312   6.601   4.242   5.826 -0.1170  0.1560  0.1112
 8127SOL    HW126313   6.544   4.239   5.903 -0.3221  0.8639 -0.0088
 8127SOL    HW226314   6.544   4.217   5.753 -0.4791  1.5785 -0.1171
 8128SOL     OW26315   3.176   8.304   1.276  0.0380 -0.2317 -0.0210
 8128SOL    HW126316   3.101   8.299   1.218  1.1167  2.0889 -1.8081
 8128SOL    HW226317   3.230   8.229   1.253  1.4611  1.7071 -3.7564
 8129SOL     OW26318   7.791   2.805   2.042 -0.1461 -0.2766 -0.4123
 8129SOL    HW126319   7.809   2.891   2.004 -0.4575 -0.5779 -1.2634
 8129SOL    HW226320   7.701   2.812   2.075  0.6778  0.5330  1.8839
 8130SOL     OW26321   3.517   0.026   8.693  0.0780  0.2376 -0.3217
 8130SOL    HW126322   3.446   0.023   8.756  0.2371  1.7320 -0.0306
 8130SOL    HW226323   3.495   0.099   8.635  0.7989 -0.0147 -0.9340
 8131SOL     OW26324   8.829   3.920   6.335  0.3027 -0.3244 -0.5266
 8131SOL    HW126325   8.914   3.935   6.293  0.2802  0.2724 -0.3629
 8131SOL    HW226326   8.836   3.965   6.419 -0.8976  1.5033 -1.3491
 8132SOL     OW26327   2.107   0.667   7.542  0.4227  0.5884  0.1818
 8132SOL    HW126328   2.162   0.745   7.539 -0.5157  1.2965  0.6781
 8132SOL    HW226329   2.145   0.615   7.613  1.2066  0.4625 -0.3167
 8133SOL     OW26330   7.574   6.019   7.789  0.5094 -0.1646  0.5975
 8133SOL    HW126331   7.504   5.955   7.778 -0.9036  1.7161 -3.1593
 8133SOL    HW226332   7.652   5.977   7.753 -0.1195 -0.2700 -0.6928
 8134SOL     OW26333   8.646   0.621   2.303 -0.1477 -0.0802  0.6435
 8134SOL    HW126334   8.619   0.673   2.379 -0.7564 -2.0788  1.8759
 8134SOL    HW226335   8.570   0.623   2.245 -0.1812  0.3508  0.6959
 8135SOL     OW26336   3.959   6.551   8.297  0.0840 -0.2492  0.4558
 8135SOL    HW126337   3.962   6.474   8.240 -0.1270  0.1900 -0.1737
 8135SOL    HW226338   3.877   6.542   8.346 -0.2997 -0.0771 -0.1371
 8136SOL     OW26339   2.927   3.598   7.315  0.0374  0.6378  0.1802
 8136SOL    HW126340   2.993   3.549   7.266 -1.4546 -0.2619 -1.0586
 8136SOL    HW226341   2.847   3.545   7.307 -1.5218  2.9361 -0.7165
 8137SOL     OW26342   5.850   0.795   5.291 -0.2457 -0.1568  0.7251
 8137SOL    HW126343   5.759   0.789   5.263 -0.1987  0.0319  0.5309
 8137SOL    HW226344   5.854   0.876   5.342 -0.2116 -0.2280  0.8383
 8138SOL     OW26345   4.238   1.881   3.846 -0.4077 -0.0950  0.0601
 8138SOL    HW126346   4.309   1.829   3.810 -1.0555 -2.5295  2.0358
 8138SOL    HW226347   4.268   1.972   3.838  1.3467 -0.8045 -2.3138
 8139SOL     OW26348   3.234   1.126   7.213  0.2401  0.2093  0.4725
 8139SOL    HW126349   3.155   1.179   7.209  0.4781  0.4889 -1.1469
 8139SOL    HW226350   3.289   1.159   7.142  0.8132 -1.5389  0.0472
 8140SOL     OW26351   4.608   5.176   6.633  0.5118  0.3707 -0.3030
 8140SOL    HW126352   4.621   5.152   6.541  0.4052 -0.7713 -0.0297
 8140SOL    HW226353   4.516   5.157   6.650  0.6521  0.1074  0.1762
 8141SOL     OW26354   7.055   6.555   8.416 -0.1454 -0.1254 -0.0774
 8141SOL    HW126355   7.127   6.617   8.410  0.1067 -0.4598 -0.4907
 8141SOL    HW226356   7.021   6.548   8.327 -1.0316  0.4385  0.2071
 8142SOL     OW26357   4.083   3.181   7.160 -0.8798 -0.0366  0.2588
 8142SOL    HW126358   4.082   3.236   7.239  0.1769  0.3428  0.0112
 8142SOL    HW226359   4.085   3.091   7.194  1.3990  0.1310  0.7226
 8143SOL     OW26360   8.146   2.005   2.135 -0.3617  0.1754 -0.0330
 8143SOL    HW126361   8.143   2.066   2.208  0.7892 -0.5788  0.6785
 8143SOL    HW226362   8.228   1.957   2.147 -0.6554 -0.6770 -1.2358
 8144SOL     OW26363   0.627   1.112   6.722 -0.0068  0.3401  0.0029
 8144SOL    HW126364   0.541   1.079   6.698 -0.0772 -0.2799  1.0351
 8144SOL    HW226365   0.626   1.204   6.698 -0.4921  0.0367 -1.1767
 8145SOL     OW26366   4.161   0.860   8.783 -0.4593  0.3222 -0.7394
 8145SOL    HW126367   4.114   0.912   8.719  0.3979  1.2108 -0.6762
 8145SOL    HW226368   4.225   0.811   8.732 -0.5491  0.1520 -0.6877
 8146SOL     OW26369   0.480   4.423   1.514  0.5589  0.2404  0.1098
 8146SOL    HW126370   0.418   4.378   1.458  0.6775 -0.1496  0.2905
 8146SOL    HW226371   0.566   4.391   1.487  0.6791  0.7374 -0.1031
 8147SOL     OW26372   6.833   7.363   6.317  0.2252 -0.3157  0.3480
 8147SOL    HW126373   6.771   7.413   6.369  1.7563  0.6578  1.3001
 8147SOL    HW226374   6.820   7.395   6.227 -1.5510 -1.1053  0.2874
 8148SOL     OW26375   0.514   2.007   2.129  0.2603  0.7110  0.3840
 8148SOL    HW126376   0.508   2.022   2.223  0.2888 -0.5821  0.6107
 8148SOL    HW226377   0.507   1.912   2.119 -0.2387  0.8638 -0.9567
 8149SOL     OW26378   7.948   1.889   1.794 -0.5688  0.7209  0.4652
 8149SOL    HW126379   7.919   1.848   1.876 -1.2542 -0.1513 -0.1788
 8149SOL    HW226380   7.914   1.831   1.726 -0.1476  1.5142 -0.4436
 8150SOL     OW26381   4.919   2.509   8.317 -0.9879  0.0418  0.5197
 8150SOL    HW126382   4.882   2.543   8.398 -0.1342  0.7834  0.6187
 8150SOL    HW226383   5.013   2.527   8.325 -0.5783 -1.7700  0.2978
 8151SOL     OW26384   4.276   7.495   6.630  0.1509 -0.3229  0.4977
 8151SOL    HW126385   4.372   7.500   6.630  0.2793 -2.0163 -0.6548
 8151SOL    HW226386   4.248   7.576   6.586  1.1448 -0.6286 -0.7584
 8152SOL     OW26387   1.552   2.491   8.832 -0.3055 -0.3554  0.1950
 8152SOL    HW126388   1.486   2.432   8.795  0.0883 -0.7370  0.0883
 8152SOL    HW226389   1.502   2.563   8.870 -0.9141 -1.5804  1.8036
 8153SOL     OW26390   1.924   1.694   1.778 -0.1960 -0.1987  0.0837
 8153SOL    HW126391   1.905   1.696   1.872 -0.5561  1.4313 -0.0089
 8153SOL    HW226392   2.019   1.708   1.773 -0.6045  3.2908  0.1243
 8154SOL     OW26393   0.270   6.499   0.704 -0.2484  0.0667 -0.1472
 8154SOL    HW126394   0.297   6.589   0.723  2.5362 -0.5163 -0.9062
 8154SOL    HW226395   0.202   6.508   0.637 -0.5429  1.6011  0.3042
 8155SOL     OW26396   6.623   7.849   2.249  0.2389 -0.1199 -0.0677
 8155SOL    HW126397   6.715   7.835   2.228 -0.3614 -2.8477 -1.3347
 8155SOL    HW226398   6.601   7.780   2.311 -0.5681  1.6392  1.7121
 8156SOL     OW26399   3.951   3.285   8.162 -0.7827 -0.2156 -0.3529
 8156SOL    HW126400   3.860   3.306   8.140 -1.9844  0.8462  4.5665
 8156SOL    HW226401   3.998   3.368   8.149 -0.9267 -0.2145 -0.9168
 8157SOL     OW26402   6.653   7.202   6.049 -0.3414 -0.3007 -0.2669
 8157SOL    HW126403   6.606   7.176   6.128  2.4794 -0.0400  1.6351
 8157SOL    HW226404   6.667   7.296   6.059  1.0136 -0.4534 -0.4615
 8158SOL     OW26405   4.738   8.321   1.135 -0.2839  0.0067  0.2304
 8158SOL    HW126406   4.667   8.343   1.196  0.6980 -0.0745  1.4483
 8158SOL    HW226407   4.723   8.376   1.059 -2.2457 -0.7399  0.0049
 8159SOL     OW26408   5.680   6.945   1.480 -0.0459  0.1675  0.3214
 8159SOL    HW126409   5.759   6.999   1.476  0.1122 -0.1143 -0.5434
 8159SOL    HW226410   5.671   6.924   1.573  1.7494 -1.0217  0.2746
 8160SOL     OW26411   8.571   1.683   2.877  0.2494 -0.1560 -0.3599
 8160SOL    HW126412   8.480   1.704   2.856  0.2366 -0.9084 -1.0935
 8160SOL    HW226413   8.620   1.761   2.852 -0.1367  0.0857 -0.3701
 8161SOL     OW26414   4.902   8.084   7.116  0.3582 -0.5190  0.3184
 8161SOL    HW126415   4.827   8.033   7.147 -0.8876  0.1978 -1.3504
 8161SOL    HW226416   4.979   8.038   7.152 -0.7252 -3.1305 -0.4568
 8162SOL     OW26417   5.039   7.471   1.148  0.1555  0.1792 -0.1324
 8162SOL    HW126418   5.087   7.395   1.115  1.8154  0.6724  0.9982
 8162SOL    HW226419   5.101   7.544   1.139 -2.0624  1.8717 -3.0204
 8163SOL     OW26420   7.372   0.142   3.535 -0.7291 -0.1345  0.5586
 8163SOL    HW126421   7.465   0.120   3.540 -0.7978 -1.2194 -1.7127
 8163SOL    HW226422   7.368   0.213   3.470 -1.5018 -0.2829  0.4323
 8164SOL     OW26423   2.757   2.414   7.491 -0.4116  0.3996  0.1375
 8164SOL    HW126424   2.844   2.383   7.516 -1.1992 -0.4279  2.0450
 8164SOL    HW226425   2.745   2.381   7.402  0.6221 -0.8041  0.4153
 8165SOL     OW26426   6.346   2.094   3.189  0.1949  0.5352 -0.0028
 8165SOL    HW126427   6.346   2.003   3.217  1.8418 -0.0827 -1.7522
 8165SOL    HW226428   6.313   2.092   3.099  1.2641  1.4765 -0.4485
 8166SOL     OW26429   8.064   7.869   3.538 -0.2478 -0.4306  0.8734
 8166SOL    HW126430   7.997   7.827   3.593  0.2407 -0.9392  1.0907
 8166SOL    HW226431   8.118   7.918   3.599 -0.3396 -0.1303  0.7137
 8167SOL     OW26432   8.412   5.833   4.719  0.0939 -1.0855 -0.3090
 8167SOL    HW126433   8.366   5.776   4.657  0.0352 -0.6712 -0.6532
 8167SOL    HW226434   8.393   5.795   4.805  1.2440 -2.4471 -0.6109
 8168SOL     OW26435   8.003   3.596   4.293  0.2529  0.1305  0.1823
 8168SOL    HW126436   7.945   3.525   4.318 -0.0651 -0.7112 -2.6937
 8168SOL    HW226437   8.082   3.581   4.345  0.4024 -2.6838 -0.6955
 8169SOL     OW26438   0.532   8.274   1.316  0.1160  0.9660  0.1587
 8169SOL    HW126439   0.551   8.316   1.233  1.4764  0.5719  0.2494
 8169SOL    HW226440   0.463   8.211   1.296 -0.6102  1.9003 -0.3525
 8170SOL     OW26441   5.467   4.812   2.944  0.0919 -0.8975 -0.2600
 8170SOL    HW126442   5.418   4.733   2.970  0.0893 -0.8624 -0.1612
 8170SOL    HW226443   5.400   4.880   2.937  0.2999 -0.5270  1.1352
 8171SOL     OW26444   0.748   8.575   7.705  0.1517 -0.0490 -0.6327
 8171SOL    HW126445   0.675   8.513   7.695 -0.7910  1.0428 -0.7327
 8171SOL    HW226446   0.777   8.592   7.615  0.9474 -0.9311 -0.5625
 8172SOL     OW26447   2.082   3.188   4.618  0.8910  0.4211  0.7105
 8172SOL    HW126448   2.075   3.114   4.679 -1.0712 -1.2872 -1.4150
 8172SOL    HW226449   2.123   3.151   4.540  0.7576  1.8451 -0.0608
 8173SOL     OW26450   7.453   4.769   7.471  0.5130  0.0618 -0.5194
 8173SOL    HW126451   7.530   4.774   7.415  0.2829  0.2076 -0.8234
 8173SOL    HW226452   7.472   4.697   7.532  1.2051  0.5867 -0.1077
 8174SOL     OW26453   8.483   4.104   8.519  0.2348  0.4744  0.2069
 8174SOL    HW126454   8.495   4.017   8.557  1.4854 -0.1837 -1.5704
 8174SOL    HW226455   8.549   4.158   8.562 -0.5909  0.5969  1.3656
 8175SOL     OW26456   7.359   6.720   3.662  0.0955  0.8322 -0.2446
 8175SOL    HW126457   7.390   6.682   3.579 -0.7431 -0.2480 -0.0989
 8175SOL    HW226458   7.423   6.788   3.683  1.7874 -0.6165 -0.4604
 8176SOL     OW26459   3.336   7.820   3.137  0.8091 -0.0014 -0.1371
 8176SOL    HW126460   3.338   7.804   3.043 -0.9549  0.7386 -0.3412
 8176SOL    HW226461   3.369   7.909   3.147  0.8497 -0.0248 -0.0608
 8177SOL     OW26462   4.324   0.890   1.720 -0.0937  0.2353 -0.0469
 8177SOL    HW126463   4.418   0.873   1.706  0.1380 -0.1364  1.7533
 8177SOL    HW226464   4.315   0.985   1.708  0.4104  0.2169 -0.6787
 8178SOL     OW26465   8.209   8.870   4.444  0.5944 -0.2292 -0.4575
 8178SOL    HW126466   8.154   8.901   4.372 -0.6838 -1.5545 -0.1094
 8178SOL    HW226467   8.283   8.826   4.400  0.3333 -0.1752 -0.9599
 8179SOL     OW26468   5.582   4.374   4.637 -1.2155 -0.3852  0.8415
 8179SOL    HW126469   5.637   4.416   4.571 -1.2040 -0.0233  1.0786
 8179SOL    HW226470   5.492   4.392   4.608 -1.2233 -1.5757  0.0737
 8180SOL     OW26471   8.253   3.403   6.734 -0.1144  0.2354  0.3402
 8180SOL    HW126472   8.166   3.392   6.772 -0.5787  1.3331 -0.3735
 8180SOL    HW226473   8.294   3.316   6.743 -1.1010 -0.1702  1.0901
 8181SOL     OW26474   6.003   1.242   6.721 -0.3562  0.1237 -0.3053
 8181SOL    HW126475   6.039   1.300   6.653  1.2761 -0.4841 -0.0041
 8181SOL    HW226476   5.944   1.184   6.674  1.8798 -1.2803 -1.5525
 8182SOL     OW26477   5.014   1.730   6.810 -0.7697 -0.2110 -0.1156
 8182SOL    HW126478   4.971   1.808   6.775 -1.0694  0.0983  0.9229
 8182SOL    HW226479   5.098   1.725   6.763 -1.6296 -0.4531 -1.6805
 8183SOL     OW26480   4.597   1.729   3.424  0.1074  0.3714 -0.3067
 8183SOL    HW126481   4.584   1.718   3.519 -0.8379  0.8379 -0.3648
 8183SOL    HW226482   4.603   1.640   3.390 -2.2840  0.0859 -0.1436
 8184SOL     OW26483   0.656   2.152   2.599  0.1305 -0.6397 -0.2030
 8184SOL    HW126484   0.656   2.237   2.643  0.9284 -0.3245 -0.7897
 8184SOL    HW226485   0.692   2.091   2.664  1.2031 -0.1991 -0.3593
 8185SOL     OW26486   7.775   2.424   1.209 -0.0365 -0.1081  0.8509
 8185SOL    HW126487   7.715   2.350   1.196  2.7940 -2.3324 -0.7358
 8185SOL    HW226488   7.805   2.415   1.299 -1.2407  0.4261  1.3325
 8186SOL     OW26489   0.399   5.632   8.460  0.3540  0.3968 -0.4868
 8186SOL    HW126490   0.435   5.671   8.539 -0.2024 -0.5867  0.2789
 8186SOL    HW226491   0.475   5.602   8.411  0.6801  0.2102  0.1167
 8187SOL     OW26492   6.732   8.251   1.438 -0.3041  0.3743  0.1168
 8187SOL    HW126493   6.774   8.302   1.507  0.6618  0.2856 -0.3800
 8187SOL    HW226494   6.723   8.313   1.365 -1.1497  0.4207  0.2490
 8188SOL     OW26495   6.226   3.616   7.139 -0.4277  0.0537 -0.4090
 8188SOL    HW126496   6.163   3.562   7.092 -1.5105  1.6588 -0.8924
 8188SOL    HW226497   6.235   3.695   7.085  0.0039  0.9757  0.9565
 8189SOL     OW26498   7.741   5.643   7.916 -0.5074 -0.2323 -0.2966
 8189SOL    HW126499   7.748   5.629   7.822 -0.1658  0.5899 -0.3987
 8189SOL    HW226500   7.657   5.604   7.940 -1.4394  1.1372 -1.2451
 8190SOL     OW26501   6.721   4.018   3.974  0.0942 -0.5037 -0.6181
 8190SOL    HW126502   6.704   3.927   3.998 -1.0168 -0.3806 -0.8700
 8190SOL    HW226503   6.661   4.035   3.901  0.6559  0.2813 -0.9139
 8191SOL     OW26504   5.601   0.739   5.248  0.4990  0.4382 -0.0872
 8191SOL    HW126505   5.594   0.685   5.169 -0.3208  1.5201 -0.7691
 8191SOL    HW226506   5.515   0.780   5.258  0.2102 -0.5319  2.0231
 8192SOL     OW26507   7.870   0.276   7.068  0.2975  0.2238 -0.6482
 8192SOL    HW126508   7.810   0.348   7.086  0.3524 -0.0741  0.8626
 8192SOL    HW226509   7.956   0.317   7.058  0.1857  0.4504 -0.6797
 8193SOL     OW26510   4.857   0.974   6.798 -0.0277  0.1401  0.4270
 8193SOL    HW126511   4.860   1.003   6.707  0.7155  0.0946  0.4288
 8193SOL    HW226512   4.900   1.045   6.846  2.0925 -1.0292  0.4018
 8194SOL     OW26513   6.784   0.455   3.661  0.4308  0.0129 -0.0431
 8194SOL    HW126514   6.713   0.394   3.641  0.3571 -0.2111  0.8244
 8194SOL    HW226515   6.851   0.400   3.703  0.9020  0.3086 -0.4049
 8195SOL     OW26516   5.967   2.553   6.086  0.6199 -0.3850 -0.0711
 8195SOL    HW126517   5.932   2.467   6.106  0.6265 -0.3860 -0.0643
 8195SOL    HW226518   5.892   2.603   6.054  0.3895 -0.0686  0.9385
 8196SOL     OW26519   6.016   3.682   1.287 -1.0879 -0.3032  0.1759
 8196SOL    HW126520   6.062   3.708   1.367 -0.4857 -1.9658  0.4059
 8196SOL    HW226521   6.051   3.740   1.220 -2.1476  1.6365  1.2129
 8197SOL     OW26522   7.073   7.624   4.619 -0.0239  0.1891  0.3124
 8197SOL    HW126523   7.011   7.695   4.632  1.8652  2.0346 -0.2329
 8197SOL    HW226524   7.096   7.596   4.708  0.7584  1.7253  0.6243
 8198SOL     OW26525   3.955   1.229   3.567 -0.5595 -0.2752  0.2052
 8198SOL    HW126526   3.959   1.184   3.651 -0.8433 -0.7900 -0.0482
 8198SOL    HW226527   4.039   1.211   3.525 -0.7267 -0.6887  0.0462
 8199SOL     OW26528   5.605   7.697   8.478  0.4659 -0.0029  0.4992
 8199SOL    HW126529   5.600   7.757   8.552 -0.9712 -0.1768  0.5800
 8199SOL    HW226530   5.641   7.616   8.515 -1.2956 -0.4727  1.3185
 8200SOL     OW26531   5.945   1.011   4.558 -0.4377 -0.1114  0.2831
 8200SOL    HW126532   6.036   1.039   4.561 -0.5190  0.4442 -1.3061
 8200SOL    HW226533   5.942   0.932   4.612  1.3005 -0.9361 -0.7328
 8201SOL     OW26534   1.089   0.037   7.623 -0.5734  0.1181  0.3719
 8201SOL    HW126535   1.162  -0.025   7.621 -1.6273 -1.1752  0.3086
 8201SOL    HW226536   1.088   0.074   7.534  1.5566  2.1190  1.0788
 8202SOL     OW26537   7.336   1.508   5.613  0.0395  0.0654  0.3507
 8202SOL    HW126538   7.254   1.464   5.635 -0.1887 -0.0270 -0.6162
 8202SOL    HW226539   7.319   1.548   5.527  1.2849 -0.7112 -0.2869
 8203SOL     OW26540   3.794   5.887   7.754 -0.4533 -0.1039 -0.4631
 8203SOL    HW126541   3.715   5.855   7.797 -0.5387  0.3824 -0.2405
 8203SOL    HW226542   3.857   5.816   7.764 -0.8224 -0.4433 -0.5271
 8204SOL     OW26543   3.055   1.569   0.004  0.5425 -0.5319 -0.2964
 8204SOL    HW126544   2.959   1.561  -0.000  0.5235 -0.5738  0.1926
 8204SOL    HW226545   3.075   1.645  -0.050  0.1831 -0.1855  0.0581
 8205SOL     OW26546   0.228   7.720   6.092 -0.0164  0.3188 -0.3355
 8205SOL    HW126547   0.292   7.762   6.035 -0.3484  0.4968 -0.5810
 8205SOL    HW226548   0.158   7.692   6.033  0.8585 -1.9453 -0.4194
 8206SOL     OW26549   8.795   7.080   5.626  0.1835  0.4061  0.6108
 8206SOL    HW126550   8.826   6.990   5.628  0.5017  0.4441 -1.0873
 8206SOL    HW226551   8.714   7.079   5.677  0.2053 -0.8215  0.6493
 8207SOL     OW26552   1.434   0.829   8.007 -0.0738  0.9824  0.2180
 8207SOL    HW126553   1.504   0.851   8.068  1.8305 -0.1868 -1.4043
 8207SOL    HW226554   1.363   0.797   8.062  0.9311  1.5213  1.8950
 8208SOL     OW26555   1.447   6.118   2.278  0.0484 -0.5110 -0.6506
 8208SOL    HW126556   1.470   6.160   2.361  1.0416 -2.1791 -0.0202
 8208SOL    HW226557   1.492   6.170   2.212  2.8512 -1.5260  0.2686
 8209SOL     OW26558   0.420   4.812   7.368 -0.2587  0.2900  0.4119
 8209SOL    HW126559   0.401   4.719   7.375 -1.9022  0.6544  1.5036
 8209SOL    HW226560   0.333   4.854   7.368  0.4378  1.7976 -0.2004
 8210SOL     OW26561   3.756   6.343   7.837  0.0149 -0.2473  0.2377
 8210SOL    HW126562   3.780   6.312   7.749 -0.3325 -1.0154  0.4058
 8210SOL    HW226563   3.747   6.263   7.889 -0.1532  0.1844  0.8822
 8211SOL     OW26564   3.522   2.762   8.458 -0.1587  0.3066 -0.0488
 8211SOL    HW126565   3.507   2.724   8.545 -0.9294 -0.3602 -0.4546
 8211SOL    HW226566   3.564   2.846   8.475  0.2446 -0.0856  0.9417
 8212SOL     OW26567   6.635   5.180   4.207 -0.6111  0.2049 -0.1993
 8212SOL    HW126568   6.663   5.123   4.134 -1.5078  0.7087 -0.9554
 8212SOL    HW226569   6.621   5.120   4.280  0.8639 -0.2463 -0.2558
 8213SOL     OW26570   6.946   1.320   0.628 -0.1325 -0.1328  0.3049
 8213SOL    HW126571   6.859   1.307   0.665 -0.0851  0.4976  0.6435
 8213SOL    HW226572   7.006   1.294   0.698 -0.0457  0.5518  0.4906
 8214SOL     OW26573   7.814   7.574   4.425 -0.0057  0.0527  0.3023
 8214SOL    HW126574   7.743   7.509   4.425  1.0496 -1.1304 -0.0490
 8214SOL    HW226575   7.893   7.523   4.409  1.1349  1.1409  2.1656
 8215SOL     OW26576   6.720   2.679   5.440 -0.1037 -0.7184  0.1396
 8215SOL    HW126577   6.697   2.616   5.508  0.6303 -2.2926 -1.0051
 8215SOL    HW226578   6.683   2.643   5.359 -0.3199  0.7186 -0.4343
 8216SOL     OW26579   8.288   3.029   0.233 -0.2517  0.0437  0.1457
 8216SOL    HW126580   8.270   3.056   0.323 -0.3017 -2.5313  1.0087
 8216SOL    HW226581   8.206   3.044   0.187 -0.8944 -0.4918  1.0707
 8217SOL     OW26582   5.304   7.698   5.967 -0.1268  0.7581  0.1571
 8217SOL    HW126583   5.326   7.777   6.016  0.0278  2.2496 -2.1756
 8217SOL    HW226584   5.261   7.730   5.888  1.8903 -1.3255 -1.9299
 8218SOL     OW26585   5.481   8.745   1.097  0.1413  0.4672  0.0850
 8218SOL    HW126586   5.560   8.795   1.121 -1.1532  2.7281 -0.1208
 8218SOL    HW226587   5.500   8.711   1.010  1.7367 -1.0027  0.9249
 8219SOL     OW26588   5.072   1.804   3.442  0.0958  0.3376 -0.0547
 8219SOL    HW126589   5.128   1.728   3.426  0.0880  0.1853  0.6381
 8219SOL    HW226590   5.020   1.781   3.518 -1.6798  0.0709 -1.2880
 8220SOL     OW26591   0.181   4.592   6.467 -0.1400  0.3901  0.1611
 8220SOL    HW126592   0.216   4.510   6.433  1.2742  0.8322  0.5040
 8220SOL    HW226593   0.185   4.581   6.562 -0.5967  0.5972  0.2063
 8221SOL     OW26594   3.476   1.285   0.074 -0.1184 -0.9886  0.2082
 8221SOL    HW126595   3.557   1.336   0.073 -0.1464 -0.8018 -3.1895
 8221SOL    HW226596   3.409   1.347   0.104  0.3143  0.1782 -1.1379
 8222SOL     OW26597   1.874   6.766   8.491  0.9691  0.1577  0.0679
 8222SOL    HW126598   1.822   6.780   8.571 -0.9331 -1.5542 -0.7742
 8222SOL    HW226599   1.887   6.853   8.455  1.0347  0.8766  1.7205
 8223SOL     OW26600   7.780   1.333   8.605 -0.0546 -0.4869  0.3814
 8223SOL    HW126601   7.730   1.401   8.651 -1.0057 -1.0859  0.2429
 8223SOL    HW226602   7.775   1.257   8.663  0.1247 -0.7571  0.0423
 8224SOL     OW26603   5.241   8.456   0.830 -0.4846 -0.1554 -0.2077
 8224SOL    HW126604   5.217   8.521   0.895  0.5146 -0.4333  0.4643
 8224SOL    HW226605   5.204   8.488   0.748  0.7316  1.7353 -0.0685
 8225SOL     OW26606   0.837   0.701   3.157 -0.1297  0.4252 -0.1631
 8225SOL    HW126607   0.801   0.661   3.077  0.6430  0.7627 -0.6894
 8225SOL    HW226608   0.837   0.795   3.139  1.4397  0.4173 -0.3820
 8226SOL     OW26609   7.636   2.591   0.264  0.0624  0.4463  0.4387
 8226SOL    HW126610   7.619   2.516   0.321  1.7605 -0.2190  0.1235
 8226SOL    HW226611   7.726   2.578   0.234 -0.1309  1.8268 -0.8247
 8227SOL     OW26612   3.440   3.534   8.215 -0.2632 -0.4572 -0.0425
 8227SOL    HW126613   3.363   3.479   8.196  1.0405 -2.1078 -0.8104
 8227SOL    HW226614   3.472   3.502   8.299 -0.2892  0.0688  0.1651
 8228SOL     OW26615   1.688   1.369   5.203  0.2416 -0.2383  0.4849
 8228SOL    HW126616   1.750   1.307   5.166 -0.2095 -1.1313  1.1661
 8228SOL    HW226617   1.629   1.391   5.131  1.3662  0.6919 -0.1932
 8229SOL     OW26618   4.384   1.412   4.769  0.4046  0.0480 -0.0420
 8229SOL    HW126619   4.335   1.330   4.768  1.5638 -0.7218  1.6886
 8229SOL    HW226620   4.432   1.412   4.687 -2.0585  0.6097 -1.5782
 8230SOL     OW26621   8.844   2.155   2.632 -0.4287  0.4482  0.1356
 8230SOL    HW126622   8.768   2.176   2.578 -0.3357 -0.9290 -0.5564
 8230SOL    HW226623   8.913   2.133   2.569 -0.4351 -1.5800  0.7865
 8231SOL     OW26624   7.253   2.470   6.248 -0.3244  0.0118 -0.6038
 8231SOL    HW126625   7.244   2.375   6.249  0.5107 -0.0942 -1.3449
 8231SOL    HW226626   7.345   2.485   6.228 -0.7105  0.9643 -1.8313
 8232SOL     OW26627   3.049   4.857   2.932  0.0305  0.0488  0.7122
 8232SOL    HW126628   3.114   4.852   2.862 -1.3522 -0.7209 -0.5693
 8232SOL    HW226629   3.056   4.774   2.978 -1.6768 -1.1151 -0.9933
 8233SOL     OW26630   8.038   3.117   1.055 -0.3831  0.4738 -0.0577
 8233SOL    HW126631   8.038   3.196   1.109  0.2164  0.5311 -0.1409
 8233SOL    HW226632   7.945   3.092   1.050 -0.3775 -0.0715  1.7766
 8234SOL     OW26633   4.424   6.335   6.438  0.2200 -0.6447 -0.1130
 8234SOL    HW126634   4.503   6.299   6.397  0.7929 -1.0478  1.2680
 8234SOL    HW226635   4.354   6.275   6.413  0.6442 -1.1337 -0.1430
 8235SOL     OW26636   7.540   8.620   7.822  0.0307 -0.0501 -0.4005
 8235SOL    HW126637   7.600   8.561   7.867  1.5852  1.6691 -0.1137
 8235SOL    HW226638   7.587   8.647   7.743 -0.6769  0.7403 -0.5680
 8236SOL     OW26639   5.042   7.871   3.134 -0.0630  0.7794  0.2458
 8236SOL    HW126640   5.056   7.902   3.045  0.8211 -0.1106  0.0643
 8236SOL    HW226641   4.981   7.934   3.172 -0.8730  0.8721 -1.1513
 8237SOL     OW26642   7.494   4.627   4.428  0.1455  0.1868 -0.2968
 8237SOL    HW126643   7.562   4.694   4.431  1.0371 -0.7021  0.0817
 8237SOL    HW226644   7.541   4.546   4.407 -0.9794 -0.2337 -1.3747
 8238SOL     OW26645   4.663   5.732   4.011  0.4440 -0.4060  0.1268
 8238SOL    HW126646   4.738   5.681   3.978  1.3603 -1.2800  3.2478
 8238SOL    HW226647   4.698   5.820   4.025 -0.1041  0.1297 -1.5963
 8239SOL     OW26648   0.247   0.819   0.009 -0.6173  0.4047 -0.3242
 8239SOL    HW126649   0.305   0.795   0.082 -1.2851 -0.7259 -0.1464
 8239SOL    HW226650   0.268   0.911  -0.009  1.1358  0.0547 -0.1918
 8240SOL     OW26651   4.813   5.662   4.725  0.0821  0.1716 -0.8709
 8240SOL    HW126652   4.905   5.638   4.729  0.7097  2.3514 -1.2561
 8240SOL    HW226653   4.809   5.751   4.760 -2.0515 -0.2727  0.1910
 8241SOL     OW26654   2.999   0.187   4.892  0.0880  0.1611 -0.1034
 8241SOL    HW126655   2.973   0.248   4.823 -0.8307  0.3700  0.3963
 8241SOL    HW226656   3.074   0.141   4.857 -0.7407 -0.1914 -1.4965
 8242SOL     OW26657   7.261   7.377   3.561  0.1548 -0.2892  0.2831
 8242SOL    HW126658   7.262   7.281   3.566  0.6130 -0.2410  1.4755
 8242SOL    HW226659   7.331   7.404   3.620 -0.1485  0.7984  0.1554
 8243SOL     OW26660   7.575   5.492   8.066 -0.1342  0.1352 -0.2540
 8243SOL    HW126661   7.638   5.495   8.138  0.4164  0.4008 -0.7286
 8243SOL    HW226662   7.557   5.398   8.054  0.1984  0.0520 -0.1251
 8244SOL     OW26663   5.894   3.600   3.436  0.5093  0.3274 -0.5077
 8244SOL    HW126664   5.827   3.667   3.426 -0.8571 -0.1458  3.4698
 8244SOL    HW226665   5.971   3.648   3.470 -0.4712  0.1023  2.3489
 8245SOL     OW26666   1.119   8.113   6.904 -0.2928 -0.6169 -0.1300
 8245SOL    HW126667   1.025   8.097   6.892 -0.2435 -2.4761  1.4603
 8245SOL    HW226668   1.155   8.027   6.929  1.7170  0.1907 -0.0625
 8246SOL     OW26669   1.682   1.659   0.724  0.0779  0.2714  0.1709
 8246SOL    HW126670   1.694   1.680   0.817  0.1489  2.5665 -0.2938
 8246SOL    HW226671   1.609   1.597   0.723 -0.4415  0.8086  1.7220
 8247SOL     OW26672   4.629   0.898   2.690  0.3094 -0.4140 -0.0910
 8247SOL    HW126673   4.675   0.817   2.669  1.9973  0.9484 -1.9434
 8247SOL    HW226674   4.693   0.950   2.740  0.5597  1.1334 -1.9066
 8248SOL     OW26675   2.403   3.366   1.047  0.6084 -0.1760 -0.5095
 8248SOL    HW126676   2.369   3.445   1.005  0.5134  1.0394  1.7214
 8248SOL    HW226677   2.495   3.363   1.021  0.9126  1.3546  0.2917
 8249SOL     OW26678   7.643   7.356   8.651 -0.5556 -0.5520 -0.5544
 8249SOL    HW126679   7.699   7.424   8.614 -0.9926  0.3315  0.3839
 8249SOL    HW226680   7.693   7.319   8.723 -1.1261  0.1669  0.2195
 8250SOL     OW26681   4.291   1.674   3.390  0.5579  0.2080 -0.1991
 8250SOL    HW126682   4.283   1.762   3.354  0.6663  0.2615 -0.0946
 8250SOL    HW226683   4.385   1.656   3.390  0.4388 -0.6657 -2.0133
 8251SOL     OW26684   4.744   6.361   6.555  0.1642 -0.9169  0.4418
 8251SOL    HW126685   4.828   6.321   6.579 -0.4040 -1.5281  1.4929
 8251SOL    HW226686   4.717   6.313   6.477  2.1045  1.1847 -1.6743
 8252SOL     OW26687   6.970   1.938   7.363 -0.2508  0.3512 -0.0252
 8252SOL    HW126688   6.899   1.941   7.428 -0.2091  0.1849  0.0299
 8252SOL    HW226689   7.026   1.866   7.393 -0.0231  0.5233 -0.0321
 8253SOL     OW26690   3.308   7.805   7.738 -0.5649  0.1757 -0.7970
 8253SOL    HW126691   3.348   7.817   7.652  1.1967 -0.4211 -0.1136
 8253SOL    HW226692   3.320   7.889   7.782 -0.4970  0.1436 -0.7549
 8254SOL     OW26693   3.990   0.843   6.495 -0.4763  0.0832  0.2183
 8254SOL    HW126694   4.074   0.865   6.455  0.2000  0.4917  1.7502
 8254SOL    HW226695   4.003   0.861   6.588 -2.7071  1.4915  0.3386
 8255SOL     OW26696   6.056   0.871   1.539  0.6213 -1.2655 -0.0648
 8255SOL    HW126697   6.089   0.934   1.604 -0.4059 -0.0187 -0.7106
 8255SOL    HW226698   6.083   0.785   1.573  1.3569 -0.5446  1.2591
 8256SOL     OW26699   8.691   7.120   4.208 -0.5186 -0.2185  0.4153
 8256SOL    HW126700   8.770   7.068   4.196 -0.2534  0.6382 -1.9462
 8256SOL    HW226701   8.625   7.056   4.236  0.8904 -0.9832  2.1526
 8257SOL     OW26702   5.945   6.991   2.575  0.3020  0.4892 -0.3674
 8257SOL    HW126703   5.861   6.963   2.539 -0.0468  1.6859 -0.5200
 8257SOL    HW226704   5.946   7.085   2.563  0.8888  0.7284  1.2831
 8258SOL     OW26705   1.602   8.720   2.364  0.2696 -0.1584 -0.1044
 8258SOL    HW126706   1.650   8.694   2.286 -1.5138  0.0740 -1.3342
 8258SOL    HW226707   1.512   8.692   2.348 -0.1187 -0.2710  1.9581
 8259SOL     OW26708   1.446   6.124   4.549  0.2204  0.0440 -0.4567
 8259SOL    HW126709   1.370   6.181   4.560  1.3087  1.6091 -0.7728
 8259SOL    HW226710   1.420   6.041   4.591 -0.7395  1.3564  1.6897
 8260SOL     OW26711   6.542   8.192   2.807  0.3073 -0.3623 -0.3909
 8260SOL    HW126712   6.548   8.200   2.902 -0.2320  2.4732 -0.5070
 8260SOL    HW226713   6.450   8.172   2.791  0.2276 -0.0588 -0.3255
 8261SOL     OW26714   4.933   2.795   5.522 -0.5326  0.2503 -0.0161
 8261SOL    HW126715   4.925   2.733   5.595 -0.9573 -0.3545 -0.5707
 8261SOL    HW226716   4.844   2.826   5.507 -0.0999  2.4791  1.4993
 8262SOL     OW26717   6.242   3.896   5.847  0.1043 -0.0471 -0.1099
 8262SOL    HW126718   6.215   3.928   5.933  1.4578 -0.5356  0.5407
 8262SOL    HW226719   6.334   3.872   5.859 -0.1754 -1.8356 -1.2037
 8263SOL     OW26720   2.756   8.718   5.466  0.3654 -0.3297  0.1012
 8263SOL    HW126721   2.794   8.743   5.551 -1.7949 -0.4805  1.1941
 8263SOL    HW226722   2.831   8.709   5.408  1.8127  1.4678  1.5477
 8264SOL     OW26723   1.042   6.440   0.624 -0.0797 -0.0533 -0.3263
 8264SOL    HW126724   0.972   6.435   0.689 -1.0661  1.0770 -1.2512
 8264SOL    HW226725   1.111   6.491   0.667  0.4775 -1.6772  0.8071
 8265SOL     OW26726   4.947   5.732   8.638  0.6341 -0.6500 -0.3025
 8265SOL    HW126727   4.891   5.809   8.632 -1.6576 -2.2060  0.2084
 8265SOL    HW226728   4.897   5.662   8.597  1.8821 -2.2956  0.8518
 8266SOL     OW26729   5.015   0.397   8.776 -1.1294  0.0719 -0.3002
 8266SOL    HW126730   5.056   0.344   8.844 -2.7400 -0.6374  0.1777
 8266SOL    HW226731   5.055   0.483   8.784 -0.5669 -0.2860  0.8758
 8267SOL     OW26732   8.375   6.803   7.969  0.1716 -0.6626  0.8117
 8267SOL    HW126733   8.389   6.872   8.034 -0.9047  1.1536 -0.7838
 8267SOL    HW226734   8.289   6.767   7.991  0.2751 -0.7762  1.0286
 8268SOL     OW26735   1.344   8.400   0.848 -0.2998 -0.0445 -0.6653
 8268SOL    HW126736   1.428   8.355   0.848  0.3643  1.1424 -0.0176
 8268SOL    HW226737   1.297   8.362   0.922  0.5896  0.8480  0.4089
 8269SOL     OW26738   8.530   2.455   5.839 -0.6033  0.2462 -0.7440
 8269SOL    HW126739   8.571   2.518   5.898  1.0348  1.2057 -2.7689
 8269SOL    HW226740   8.456   2.502   5.801 -0.3761  0.4038 -1.0052
 8270SOL     OW26741   2.465   1.954   8.176 -0.4828 -0.3848 -0.0356
 8270SOL    HW126742   2.465   1.986   8.085 -2.7707  0.8715  0.3398
 8270SOL    HW226743   2.436   1.863   8.170 -0.5472 -0.3318 -0.5627
 8271SOL     OW26744   6.514   0.593   3.076 -0.1964 -0.6994  0.2986
 8271SOL    HW126745   6.537   0.596   3.168  0.1547  0.6976  0.1937
 8271SOL    HW226746   6.594   0.565   3.031 -0.7229 -2.6650  0.4885
 8272SOL     OW26747   1.999   3.610   7.816  0.7595  0.0515  0.4365
 8272SOL    HW126748   1.993   3.628   7.910  0.1104 -0.7615  0.5631
 8272SOL    HW226749   1.997   3.697   7.775 -1.0525  0.3680  1.0886
 8273SOL     OW26750   5.466   6.517   7.194 -0.4787  0.1016  0.3381
 8273SOL    HW126751   5.420   6.570   7.259 -0.1829  0.5066  0.2187
 8273SOL    HW226752   5.507   6.446   7.246 -0.2161  0.4402  0.5989
 8274SOL     OW26753   5.123   3.336   5.290 -0.3801  0.0066  0.4925
 8274SOL    HW126754   5.189   3.405   5.276 -1.8338  1.0048 -2.0305
 8274SOL    HW226755   5.173   3.254   5.286  1.1688  0.8018  2.0741
 8275SOL     OW26756   6.847   0.367   6.876  0.0762 -0.5204  0.7479
 8275SOL    HW126757   6.942   0.369   6.884  0.3163 -2.1386 -1.0399
 8275SOL    HW226758   6.827   0.431   6.808  0.0736 -1.3561 -0.0556
 8276SOL     OW26759   2.853   0.850   7.852  0.0770 -0.3347 -0.2744
 8276SOL    HW126760   2.829   0.771   7.804 -1.0872 -0.2734  0.1623
 8276SOL    HW226761   2.769   0.887   7.880  0.5394  1.4230 -1.0449
 8277SOL     OW26762   1.358   5.660   2.370  0.6827  0.0673  0.3379
 8277SOL    HW126763   1.373   5.745   2.413  0.1362 -0.4872  1.6769
 8277SOL    HW226764   1.349   5.682   2.277  1.4858  1.3632  0.5347
 8278SOL     OW26765   4.087   6.655   4.744  0.1688  0.0874 -0.2299
 8278SOL    HW126766   4.073   6.572   4.788 -0.3270 -0.0959 -0.7221
 8278SOL    HW226767   4.143   6.705   4.804 -1.3820  0.2713  1.1307
 8279SOL     OW26768   4.187   0.808   2.306  0.2162  0.0905 -0.8537
 8279SOL    HW126769   4.107   0.786   2.354  0.3734 -0.5175 -0.8534
 8279SOL    HW226770   4.196   0.903   2.315 -0.1546  0.0787 -0.3022
 8280SOL     OW26771   3.801   0.020   1.401 -0.7198  0.1563  0.5154
 8280SOL    HW126772   3.756  -0.018   1.325  0.5520  1.1598 -0.8245
 8280SOL    HW226773   3.857  -0.050   1.434 -1.3049 -0.2987  0.5457
 8281SOL     OW26774   3.736   0.983   4.764 -0.0532 -0.0013 -0.0880
 8281SOL    HW126775   3.691   0.953   4.843 -0.4093 -0.6776 -0.5397
 8281SOL    HW226776   3.757   1.075   4.781 -1.4340  0.2715  0.2010
 8282SOL     OW26777   7.114   6.102   4.393 -0.7234  0.0706 -0.0848
 8282SOL    HW126778   7.140   6.193   4.406 -2.7387  0.6391  0.2882
 8282SOL    HW226779   7.144   6.057   4.472  0.9695  0.2145 -0.6120
 8283SOL     OW26780   5.373   8.026   3.529 -0.0015  0.1802  0.4017
 8283SOL    HW126781   5.424   7.947   3.549 -0.1864  0.2723  1.3125
 8283SOL    HW226782   5.293   7.993   3.489  0.0498 -0.0754  0.5087
 8284SOL     OW26783   5.216   6.895   5.836 -0.1156  0.5337  0.2818
 8284SOL    HW126784   5.285   6.938   5.787 -1.5553  0.3439 -2.0377
 8284SOL    HW226785   5.242   6.803   5.840 -0.0626  0.5225 -0.2956
 8285SOL     OW26786   3.515   8.099   2.237  0.7037  0.2743 -0.8330
 8285SOL    HW126787   3.422   8.103   2.215 -0.0812  0.2195  2.1031
 8285SOL    HW226788   3.534   8.005   2.244  0.8187  0.2935 -0.8800
 8286SOL     OW26789   8.228   0.883   0.082 -0.1741 -0.5975  0.5758
 8286SOL    HW126790   8.137   0.880   0.111 -0.6855 -1.3753 -0.9993
 8286SOL    HW226791   8.273   0.820   0.137 -1.0013 -1.6271  0.1062
 8287SOL     OW26792   3.636   6.626   3.022 -0.3682 -0.5734  0.6685
 8287SOL    HW126793   3.548   6.661   3.005  0.1770  0.4050 -0.2578
 8287SOL    HW226794   3.650   6.562   2.953  0.6731  1.2400 -0.9021
 8288SOL     OW26795   1.993   3.440   3.538 -0.2068 -0.3780 -0.0871
 8288SOL    HW126796   1.936   3.480   3.603  2.3464  1.8357  1.0048
 8288SOL    HW226797   1.998   3.504   3.468  0.3746 -0.8386 -0.4730
 8289SOL     OW26798   4.213   0.064   4.426  0.6082 -0.3592 -0.1375
 8289SOL    HW126799   4.142   0.078   4.364 -0.4087 -1.7029  0.6591
 8289SOL    HW226800   4.271   0.002   4.383 -0.2732 -1.5542  0.3472
 8290SOL     OW26801   7.292   8.374   0.727 -0.1265  0.1495 -0.3603
 8290SOL    HW126802   7.355   8.437   0.692  0.7175 -1.0527 -1.0555
 8290SOL    HW226803   7.209   8.398   0.685  0.2896  0.4794 -1.0177
 8291SOL     OW26804   7.719   0.446   2.341  0.1850  0.6062  0.5687
 8291SOL    HW126805   7.652   0.502   2.302  0.7827  2.1980  1.7589
 8291SOL    HW226806   7.785   0.437   2.273 -0.2028  0.8291  0.1544
 8292SOL     OW26807   2.030   0.059   4.021 -0.8344  0.2283  0.4685
 8292SOL    HW126808   2.012   0.142   3.978 -2.0500 -1.0763 -1.7239
 8292SOL    HW226809   2.092   0.014   3.963  1.2488  0.2547  2.5216
 8293SOL     OW26810   4.937   2.285   2.840 -0.4726  0.7618  0.6213
 8293SOL    HW126811   4.982   2.245   2.914 -4.2537 -1.6196  1.9116
 8293SOL    HW226812   4.950   2.224   2.768 -1.2392  0.2650  0.8917
 8294SOL     OW26813   0.773   4.241   1.245  0.4057  0.2020  0.0908
 8294SOL    HW126814   0.785   4.238   1.340  0.4247  1.2907  0.1309
 8294SOL    HW226815   0.695   4.295   1.231  0.7501  0.5589 -0.5294
 8295SOL     OW26816   0.838   5.093   1.466  0.4805  0.4746  0.3238
 8295SOL    HW126817   0.801   5.025   1.523  0.9354  0.8301  1.0555
 8295SOL    HW226818   0.799   5.175   1.497  0.0813  0.5873 -0.4337
 8296SOL     OW26819   6.132   4.710   7.168 -0.3816  0.3019 -0.1552
 8296SOL    HW126820   6.153   4.694   7.076 -2.3578  2.1518 -1.0110
 8296SOL    HW226821   6.039   4.687   7.176  0.0928 -1.2459  1.7971
 8297SOL     OW26822   6.284   4.466   4.857  0.0617  0.1471 -0.0616
 8297SOL    HW126823   6.366   4.421   4.875 -0.0363 -0.9549 -1.9754
 8297SOL    HW226824   6.285   4.479   4.762 -0.7421  2.6530  0.2229
 8298SOL     OW26825   0.451   7.034   7.825 -0.2424 -0.0354 -0.9488
 8298SOL    HW126826   0.365   7.063   7.856 -0.3777 -1.1186 -0.2364
 8298SOL    HW226827   0.431   6.967   7.759  0.0138 -1.7000  0.5989
 8299SOL     OW26828   8.505   3.461   3.115  0.4264 -0.4920 -0.1048
 8299SOL    HW126829   8.452   3.416   3.048  0.1869 -1.3867  0.6611
 8299SOL    HW226830   8.490   3.554   3.098  0.5770 -0.6865 -1.4513
 8300SOL     OW26831   8.452   1.832   5.980 -0.3445 -0.0274 -0.2572
 8300SOL    HW126832   8.413   1.763   5.925  0.6560  0.3185 -1.4509
 8300SOL    HW226833   8.387   1.903   5.978 -1.1606 -0.7223  0.5786
 8301SOL     OW26834   1.189   1.928   2.370 -0.7334  0.7626 -0.8113
 8301SOL    HW126835   1.191   2.004   2.312 -0.1752  1.9091  0.6545
 8301SOL    HW226836   1.267   1.878   2.347  0.2033  1.8924 -0.1915
 8302SOL     OW26837   2.539   1.741   2.468  0.2398  0.2863 -0.3019
 8302SOL    HW126838   2.455   1.772   2.434  0.9249 -0.3564 -2.7678
 8302SOL    HW226839   2.530   1.748   2.563 -2.2479  1.1040 -0.5209
 8303SOL     OW26840   0.697   4.778   2.364  0.0390  0.4119 -0.6716
 8303SOL    HW126841   0.665   4.718   2.432  1.3549 -1.9998 -2.0464
 8303SOL    HW226842   0.744   4.846   2.412 -0.1925 -0.4900  0.8984
 8304SOL     OW26843   2.445   4.591   3.527 -0.5310 -0.6112  0.6341
 8304SOL    HW126844   2.361   4.590   3.572 -0.5116  0.6394  0.7358
 8304SOL    HW226845   2.501   4.646   3.581  0.0626 -0.6186  0.0503
 8305SOL     OW26846   1.141   6.009   1.994 -0.0562  0.3875  0.0469
 8305SOL    HW126847   1.117   5.940   1.931 -0.1315  0.2995  0.1703
 8305SOL    HW226848   1.069   6.071   1.990 -0.3616  0.0741  0.4889
 8306SOL     OW26849   5.302   1.203   5.657  0.1859 -0.0701 -0.1474
 8306SOL    HW126850   5.374   1.183   5.597  0.2662 -0.4093  0.0555
 8306SOL    HW226851   5.295   1.298   5.657 -0.0041 -0.0800 -0.9192
 8307SOL     OW26852   1.129   0.605   6.544  0.2285  0.1445  0.4274
 8307SOL    HW126853   1.076   0.683   6.527  0.4294  0.4047  0.9541
 8307SOL    HW226854   1.202   0.611   6.483  0.3838  0.5105  0.6486
 8308SOL     OW26855   1.882   8.847   2.357  0.2625  0.1372  0.2288
 8308SOL    HW126856   1.871   8.822   2.449  0.1871 -0.2219  0.1235
 8308SOL    HW226857   1.854   8.770   2.308  3.4407 -0.9328 -0.0849
 8309SOL     OW26858   1.469   5.787   7.687 -0.3860  0.0956  0.5352
 8309SOL    HW126859   1.490   5.735   7.764 -0.3946 -3.0514 -1.3732
 8309SOL    HW226860   1.373   5.786   7.684 -0.3897  0.3879  0.6129
 8310SOL     OW26861   0.034   8.091   4.536  0.0512  0.3026  0.5684
 8310SOL    HW126862  -0.008   8.162   4.585  0.3365  0.2643  0.8721
 8310SOL    HW226863   0.002   8.101   4.446 -0.1887  0.5970  0.6858
 8311SOL     OW26864   0.620   4.155   8.697  0.0250 -0.1212 -0.1250
 8311SOL    HW126865   0.623   4.071   8.650 -0.3737 -1.0865  1.4784
 8311SOL    HW226866   0.710   4.187   8.693 -0.1207  0.1528 -2.0451
 8312SOL     OW26867   1.852   1.784   0.472  0.2747  0.0858 -0.2126
 8312SOL    HW126868   1.770   1.822   0.504  1.1683  0.2989  2.0257
 8312SOL    HW226869   1.911   1.858   0.463  1.0465 -0.3386  1.0117
 8313SOL     OW26870   2.275   5.310   6.617 -0.3298 -0.5235  0.2783
 8313SOL    HW126871   2.241   5.383   6.566 -0.3497 -0.7505 -0.0289
 8313SOL    HW226872   2.214   5.302   6.691 -0.3511 -0.2582  0.2906
 8314SOL     OW26873   2.480   8.275   8.136 -0.3356  0.3352  0.6967
 8314SOL    HW126874   2.476   8.190   8.179 -0.4023  1.6857  3.5382
 8314SOL    HW226875   2.522   8.257   8.051  1.7175 -2.1911  2.1151
 8315SOL     OW26876   0.711   6.342   2.467 -0.9335  0.4837  0.2303
 8315SOL    HW126877   0.785   6.343   2.528  0.3955  1.7284 -1.3153
 8315SOL    HW226878   0.716   6.256   2.425  0.5049  1.0410 -0.8143
 8316SOL     OW26879   7.024   8.347   6.573 -0.1914  0.0098 -0.1952
 8316SOL    HW126880   7.023   8.353   6.477  0.0067  2.2460 -0.1032
 8316SOL    HW226881   6.932   8.351   6.598 -0.1668  2.3227 -0.2308
 8317SOL     OW26882   7.500   6.533   2.411  0.2313  0.4999 -0.3004
 8317SOL    HW126883   7.414   6.533   2.368 -0.0410 -0.5607  0.2056
 8317SOL    HW226884   7.537   6.447   2.391  0.4916  0.3315  0.8194
 8318SOL     OW26885   7.999   4.293   8.791  0.0725 -0.3110  0.3101
 8318SOL    HW126886   8.089   4.322   8.778  0.0586 -1.2320 -2.2456
 8318SOL    HW226887   8.002   4.198   8.783 -0.9966 -0.4517  1.2617
 8319SOL     OW26888   4.098   4.126   4.969  0.9501  0.0057 -0.3062
 8319SOL    HW126889   4.125   4.125   5.061 -0.4898  1.3168  0.1780
 8319SOL    HW226890   4.127   4.042   4.934 -2.4998 -2.7179  2.5813
 8320SOL     OW26891   1.222   3.775   6.251 -0.3351  0.5371  0.1251
 8320SOL    HW126892   1.261   3.861   6.238 -0.1409  0.3722 -0.4034
 8320SOL    HW226893   1.292   3.721   6.288 -0.4683  0.6128  0.4954
 8321SOL     OW26894   8.505   0.968   6.605 -0.6282 -0.2557 -0.5086
 8321SOL    HW126895   8.415   0.941   6.585 -0.9347 -0.5175  1.1187
 8321SOL    HW226896   8.501   1.064   6.605 -0.3849 -0.2012 -2.5708
 8322SOL     OW26897   7.824   7.607   0.473 -0.3319 -0.2236 -0.2875
 8322SOL    HW126898   7.782   7.560   0.402 -1.6045  0.8198 -0.2765
 8322SOL    HW226899   7.751   7.641   0.525  0.5586  0.3017  0.6464
 8323SOL     OW26900   0.799   0.163   4.013 -0.4121 -0.0686 -0.1876
 8323SOL    HW126901   0.773   0.181   3.922 -2.3132  1.8434  0.6310
 8323SOL    HW226902   0.792   0.068   4.022 -0.6467 -0.2503 -1.9129
 8324SOL     OW26903   6.927   5.092   7.111 -0.5733  0.2391  0.0421
 8324SOL    HW126904   6.882   5.105   7.194 -1.3464 -2.8699  0.2365
 8324SOL    HW226905   6.859   5.107   7.045 -0.3560  1.2304  0.0405
 8325SOL     OW26906   3.474   4.514   2.225  0.0622 -0.0589  0.1331
 8325SOL    HW126907   3.486   4.555   2.139 -0.0948 -0.1702  0.0584
 8325SOL    HW226908   3.533   4.563   2.283 -0.8833  0.9591  0.2649
 8326SOL     OW26909   0.810   1.798   3.482 -0.4753 -0.6207  0.0833
 8326SOL    HW126910   0.819   1.732   3.413 -0.5354 -0.0613 -0.4677
 8326SOL    HW226911   0.884   1.857   3.468 -1.4391  0.4870 -0.6133
 8327SOL     OW26912   4.765   4.103   3.811  0.2285  0.4521  0.1974
 8327SOL    HW126913   4.777   4.030   3.752  1.6377  0.2012  0.7430
 8327SOL    HW226914   4.781   4.181   3.758  0.2602  0.2838 -0.0363
 8328SOL     OW26915   1.369   1.143   3.689  0.2743 -0.1332  0.1923
 8328SOL    HW126916   1.423   1.168   3.615 -1.0396 -0.6174 -0.9653
 8328SOL    HW226917   1.315   1.220   3.707  0.1915 -0.2071  0.2652
 8329SOL     OW26918   8.532   8.459   7.660 -0.3097  0.5124  0.3558
 8329SOL    HW126919   8.589   8.385   7.680 -1.0205 -0.3529 -0.6950
 8329SOL    HW226920   8.494   8.483   7.745  0.3478  0.0339  0.7941
 8330SOL     OW26921   1.149   7.794   1.802 -0.4822 -0.2126  0.8345
 8330SOL    HW126922   1.227   7.795   1.746 -1.5770 -1.8221 -0.8824
 8330SOL    HW226923   1.132   7.701   1.816 -1.2460  0.1444  2.4585
 8331SOL     OW26924   6.365   1.783   7.548  0.4241  0.3136 -0.5579
 8331SOL    HW126925   6.344   1.701   7.503 -1.5914  1.2348 -1.4333
 8331SOL    HW226926   6.361   1.850   7.479 -2.5317  1.7547  0.8167
 8332SOL     OW26927   2.575   7.473   1.982  0.7143 -0.5335 -0.2143
 8332SOL    HW126928   2.584   7.378   1.974  0.0134 -0.5989 -0.3405
 8332SOL    HW226929   2.494   7.485   2.031  0.3458 -0.0036 -0.9240
 8333SOL     OW26930   4.827   7.680   8.623 -0.8821  0.7826  0.6760
 8333SOL    HW126931   4.763   7.700   8.692 -0.9282  0.2154  0.7974
 8333SOL    HW226932   4.804   7.592   8.594 -0.9556  1.0783 -0.1693
 8334SOL     OW26933   0.461   7.729   7.173  0.4520  0.1785  0.4294
 8334SOL    HW126934   0.434   7.711   7.083  1.1211 -0.7650  0.4010
 8334SOL    HW226935   0.383   7.764   7.215 -0.1044 -0.1615 -0.3004
 8335SOL     OW26936   3.462   8.334   4.028 -0.2514  0.0022  0.2492
 8335SOL    HW126937   3.513   8.373   4.099  0.9582  1.3889 -1.3220
 8335SOL    HW226938   3.507   8.360   3.948 -1.8704 -1.0741 -1.0840
 8336SOL     OW26939   3.209   1.209   8.332 -0.0140  0.0267 -0.8445
 8336SOL    HW126940   3.294   1.168   8.348  0.6808  1.8696  0.4929
 8336SOL    HW226941   3.152   1.174   8.401 -0.0557 -0.3877 -1.0859
 8337SOL     OW26942   0.349   1.873   6.614 -0.4341 -0.1891 -0.8623
 8337SOL    HW126943   0.313   1.788   6.641  1.4897 -0.8276 -0.1423
 8337SOL    HW226944   0.295   1.937   6.660  1.6472 -1.1830  3.4896
 8338SOL     OW26945   7.397   6.200   6.719  0.0748 -0.5908 -0.0841
 8338SOL    HW126946   7.409   6.111   6.753 -1.9720 -1.5745 -1.6944
 8338SOL    HW226947   7.302   6.211   6.713  0.2193  2.2680  1.3349
 8339SOL     OW26948   2.844   4.724   5.315  0.2727 -0.0839  0.3770
 8339SOL    HW126949   2.833   4.634   5.343 -0.0295 -0.2678 -0.3134
 8339SOL    HW226950   2.762   4.767   5.339 -0.5479 -0.5686 -1.4211
 8340SOL     OW26951   1.451   3.333   0.641  0.2526 -0.0543  0.1097
 8340SOL    HW126952   1.446   3.329   0.546 -0.1988 -0.3921  0.1446
 8340SOL    HW226953   1.431   3.244   0.670  0.9444 -0.0893  0.5020
 8341SOL     OW26954   4.261   5.499   3.694  0.3547 -1.1577 -0.0419
 8341SOL    HW126955   4.297   5.545   3.770  0.2568  3.6562 -2.5744
 8341SOL    HW226956   4.322   5.427   3.679  2.6112  0.0860  2.2666
 8342SOL     OW26957   7.303   3.606   0.890  0.7070  0.3451  0.3856
 8342SOL    HW126958   7.276   3.528   0.842  0.1022  0.6192  0.2584
 8342SOL    HW226959   7.398   3.598   0.898  0.8449  0.3337 -0.9509
 8343SOL     OW26960   5.056   4.087   3.109  0.1786 -0.1258  0.1899
 8343SOL    HW126961   5.138   4.130   3.133  0.1515 -0.6948  1.3626
 8343SOL    HW226962   5.067   3.997   3.139 -0.3357 -0.5743 -0.9165
 8344SOL     OW26963   1.911   4.902   8.664 -0.2265  0.1454  0.0678
 8344SOL    HW126964   1.816   4.906   8.675 -0.4895 -1.5275 -1.1901
 8344SOL    HW226965   1.923   4.865   8.576  1.5922  0.7337  0.0368
 8345SOL     OW26966   1.183   3.662   7.276  0.2933 -0.4533 -0.5193
 8345SOL    HW126967   1.247   3.657   7.206  1.0019 -1.6271  0.1682
 8345SOL    HW226968   1.227   3.623   7.351 -0.4335  0.7774  0.6016
 8346SOL     OW26969   6.896   2.053   6.015 -0.0602 -0.0172  0.6079
 8346SOL    HW126970   6.857   2.130   6.057 -0.6025  0.0862 -0.0711
 8346SOL    HW226971   6.826   1.988   6.014  0.1454 -0.2372  0.4315
 8347SOL     OW26972   2.326   6.291   5.790 -0.2239 -0.0747  0.0518
 8347SOL    HW126973   2.265   6.273   5.861  0.8704 -0.0711  1.0345
 8347SOL    HW226974   2.276   6.342   5.726 -1.3677 -0.5280  0.5810
 8348SOL     OW26975   4.093   3.043   4.127 -0.1246  0.0021  0.2146
 8348SOL    HW126976   4.070   3.063   4.217 -0.3218  0.4089  0.0757
 8348SOL    HW226977   4.176   3.088   4.112 -0.4001  0.4565  0.0071
 8349SOL     OW26978   0.088   7.222   7.612 -0.4022 -0.6276 -0.6288
 8349SOL    HW126979   0.132   7.155   7.665 -0.4000  0.0275  0.2023
 8349SOL    HW226980  -0.003   7.195   7.610 -0.1203 -1.5822 -1.7319
 8350SOL     OW26981   6.162   0.513   3.096 -0.0884  0.4008 -0.2937
 8350SOL    HW126982   6.166   0.440   3.159  0.6140 -0.2636 -1.0917
 8350SOL    HW226983   6.161   0.592   3.151 -0.0735 -0.1872  0.5642
 8351SOL     OW26984   1.604   4.948   3.035  0.3144  0.0642  0.1396
 8351SOL    HW126985   1.548   4.976   2.963 -1.5742 -1.7788  0.7599
 8351SOL    HW226986   1.555   4.973   3.114 -0.1813 -2.3694  0.6973
 8352SOL     OW26987   6.782   8.223   2.064 -0.0103 -0.0859  0.1728
 8352SOL    HW126988   6.833   8.217   2.144  0.3078  2.5629  0.2499
 8352SOL    HW226989   6.734   8.305   2.072 -0.5469 -0.1258 -2.0320
 8353SOL     OW26990   8.192   6.451   6.993 -0.8541 -0.2152 -0.0687
 8353SOL    HW126991   8.241   6.440   7.075 -1.3691 -0.6139  0.1953
 8353SOL    HW226992   8.103   6.472   7.021 -0.8899  0.2771 -0.5428
 8354SOL     OW26993   2.641   8.085   1.107  0.1828  0.6903  0.5155
 8354SOL    HW126994   2.642   8.133   1.024  0.1239 -1.4876 -0.8207
 8354SOL    HW226995   2.554   8.102   1.144 -0.5612  0.0890 -0.8937
 8355SOL     OW26996   8.656   8.542   4.388  0.4888  0.2682 -0.1894
 8355SOL    HW126997   8.604   8.544   4.308  1.3785 -1.3871 -0.8354
 8355SOL    HW226998   8.731   8.598   4.369  0.4053  0.3539 -0.2739
 8356SOL     OW26999   0.231   1.537   5.927  0.4875  0.4160 -0.2598
 8356SOL    HW127000   0.209   1.453   5.887 -0.7433  1.4679 -1.9033
 8356SOL    HW227001   0.318   1.523   5.965  0.0147 -1.7927  0.1675
 8357SOL     OW27002   4.738   2.016   5.486 -0.1134 -0.6952 -0.5558
 8357SOL    HW127003   4.721   2.000   5.393 -0.2651  0.6937 -0.7888
 8357SOL    HW227004   4.811   1.957   5.507  0.4712 -0.4480 -1.7724
 8358SOL     OW27005   6.788   8.644   4.379 -0.5542 -0.5544 -0.0704
 8358SOL    HW127006   6.874   8.681   4.360 -0.7952  0.5820  0.9038
 8358SOL    HW227007   6.727   8.694   4.324 -0.8213  0.2024  0.8766
 8359SOL     OW27008   7.262   4.045   2.711  0.7294  0.5138 -0.8354
 8359SOL    HW127009   7.294   3.984   2.644  0.9761  1.2773 -1.4293
 8359SOL    HW227010   7.275   3.998   2.794  3.5580  0.7803 -1.0159
 8360SOL     OW27011   5.253   3.657   5.741 -0.4047 -0.1913 -0.5228
 8360SOL    HW127012   5.210   3.622   5.663 -0.3880 -1.3827 -0.0227
 8360SOL    HW227013   5.196   3.632   5.813 -0.5737  1.1601 -0.1578
 8361SOL     OW27014   4.602   3.207   3.233 -0.1854  0.0185  0.7556
 8361SOL    HW127015   4.686   3.237   3.200 -0.9382  2.8847  1.1270
 8361SOL    HW227016   4.560   3.165   3.158  1.1173 -0.4685  0.2787
 8362SOL     OW27017   8.191   3.600   2.377  0.4216 -0.4095  0.1807
 8362SOL    HW127018   8.242   3.541   2.432  0.2607  0.3426  1.1718
 8362SOL    HW227019   8.136   3.648   2.439 -0.2266  0.0134 -0.7089
 8363SOL     OW27020   8.099   1.787   1.416 -0.2476  0.0052 -0.0689
 8363SOL    HW127021   8.131   1.755   1.332 -2.4406 -0.2684 -0.8700
 8363SOL    HW227022   8.157   1.747   1.481  0.8832 -0.5684 -1.3905
 8364SOL     OW27023   3.680   1.829   7.026  0.1799  0.3760 -0.1548
 8364SOL    HW127024   3.770   1.805   7.049  0.4946  2.3299  0.8711
 8364SOL    HW227025   3.673   1.921   7.051 -1.3948  0.9357 -2.4172
 8365SOL     OW27026   4.305   8.205   4.970 -0.5105 -0.0548 -0.0668
 8365SOL    HW127027   4.389   8.248   4.988  0.0217 -0.8626 -0.5266
 8365SOL    HW227028   4.304   8.130   5.029 -1.4794  0.6345  0.8072
 8366SOL     OW27029   5.232   8.224   6.966  0.0783 -0.5104 -0.4306
 8366SOL    HW127030   5.187   8.143   6.942  0.6879 -0.7190 -0.8948
 8366SOL    HW227031   5.297   8.236   6.898 -0.3264  0.6394 -0.6286
 8367SOL     OW27032   5.438   7.009   3.352  0.5718  0.0843  0.2281
 8367SOL    HW127033   5.370   7.072   3.328 -1.9387 -1.9848  1.3450
 8367SOL    HW227034   5.444   7.015   3.448  1.3689 -0.3244  0.2143
 8368SOL     OW27035   6.759   1.207   2.964 -0.0158 -0.4462  0.0476
 8368SOL    HW127036   6.693   1.212   2.895  1.0356  1.6877 -0.9321
 8368SOL    HW227037   6.709   1.197   3.045 -1.3392 -1.9692 -0.8962
 8369SOL     OW27038   8.106   0.498   4.428 -0.3327 -0.1656 -0.3306
 8369SOL    HW127039   8.012   0.498   4.442 -0.4688 -0.2972 -1.1996
 8369SOL    HW227040   8.132   0.406   4.435 -0.2776 -0.1358 -0.1436
 8370SOL     OW27041   7.151   1.279   3.422  0.3883 -0.4346 -0.1177
 8370SOL    HW127042   7.176   1.198   3.468 -0.5298 -1.3722 -1.1912
 8370SOL    HW227043   7.073   1.309   3.468 -0.2625 -1.1194 -0.7462
 8371SOL     OW27044   0.368   6.380   4.075  0.4007  0.1570  0.5527
 8371SOL    HW127045   0.327   6.353   4.157 -1.3874  0.8496 -0.0412
 8371SOL    HW227046   0.344   6.472   4.066  0.6426  0.1157 -0.6896
 8372SOL     OW27047   6.685   0.341   5.261 -0.5472 -0.4271 -0.3110
 8372SOL    HW127048   6.724   0.294   5.334 -1.3114  0.7044  0.8622
 8372SOL    HW227049   6.740   0.319   5.186  1.0743 -0.5242  0.8725
 8373SOL     OW27050   2.531   8.341   1.860  0.1726  0.4147 -0.3203
 8373SOL    HW127051   2.479   8.264   1.882 -0.8845  1.0319 -0.5618
 8373SOL    HW227052   2.491   8.374   1.779  0.6680  1.1524 -0.2715
 8374SOL     OW27053   1.432   3.224   4.938 -0.1066  0.9776  0.5319
 8374SOL    HW127054   1.348   3.270   4.948 -0.5353  0.2055  0.5169
 8374SOL    HW227055   1.408   3.135   4.912  0.7644  1.2799 -1.5147
 8375SOL     OW27056   3.184   2.508   3.894 -0.0095 -0.7624 -0.1535
 8375SOL    HW127057   3.134   2.480   3.972  1.2297 -1.2781  0.4809
 8375SOL    HW227058   3.236   2.431   3.871  1.6328  0.2184  0.1319
 8376SOL     OW27059   5.117   7.741   4.416 -0.5669 -0.1348 -0.1350
 8376SOL    HW127060   5.078   7.808   4.472  0.5184  0.9185 -0.5932
 8376SOL    HW227061   5.203   7.776   4.394 -0.1465 -1.4962 -0.7481
 8377SOL     OW27062   6.660   4.494   5.760 -0.7207 -0.2363  0.2283
 8377SOL    HW127063   6.742   4.469   5.716 -1.0453  1.3929 -1.3847
 8377SOL    HW227064   6.613   4.411   5.772  0.2611 -0.9477 -0.6957
 8378SOL     OW27065   5.156   0.585   6.174 -0.6452  0.0383 -0.5202
 8378SOL    HW127066   5.174   0.549   6.261 -1.0761  0.5788 -0.1997
 8378SOL    HW227067   5.062   0.604   6.175 -0.6262  0.1678 -1.0589
 8379SOL     OW27068   6.966   3.344   3.849  0.3599  0.2650  0.4157
 8379SOL    HW127069   6.981   3.285   3.775 -1.3513  2.2712 -1.6922
 8379SOL    HW227070   6.871   3.344   3.862  0.4404  1.5027  1.2456
 8380SOL     OW27071   2.933   0.662   5.137 -0.1677  0.3507  0.1055
 8380SOL    HW127072   2.862   0.710   5.180 -0.2560  0.8600 -0.6003
 8380SOL    HW227073   2.934   0.695   5.047  0.9225  0.2988  0.0856
 8381SOL     OW27074   6.072   1.641   2.315  0.5196 -0.0201 -0.1586
 8381SOL    HW127075   6.119   1.570   2.271  2.0012  1.2606 -0.7468
 8381SOL    HW227076   6.038   1.695   2.243  0.4883  0.5376  0.2718
 8382SOL     OW27077   5.797   1.155   1.893 -0.1923 -0.1488 -0.2860
 8382SOL    HW127078   5.756   1.069   1.905 -0.2717 -0.2751 -1.3065
 8382SOL    HW227079   5.743   1.197   1.826 -1.3315  1.4967  1.5951
 8383SOL     OW27080   0.472   1.864   5.043 -0.0205 -0.0568  0.2353
 8383SOL    HW127081   0.566   1.849   5.053 -0.0465 -0.2482  0.1898
 8383SOL    HW227082   0.436   1.846   5.130 -0.0976 -0.6120  0.0944
 8384SOL     OW27083   4.431   8.434   5.249 -0.0653  0.4908  0.3844
 8384SOL    HW127084   4.337   8.443   5.236 -0.1430 -0.4088  0.2611
 8384SOL    HW227085   4.440   8.380   5.328  0.3536  0.8923  0.6208
 8385SOL     OW27086   0.511   7.188   1.298  0.2348  0.2523  0.5609
 8385SOL    HW127087   0.498   7.174   1.205  0.1000  0.8487  0.4887
 8385SOL    HW227088   0.598   7.154   1.316  0.3775  0.4073  0.1588
 8386SOL     OW27089   6.110   1.054   5.518  0.5082 -0.4272  0.3216
 8386SOL    HW127090   6.098   1.043   5.424 -0.2652 -0.2359  0.3833
 8386SOL    HW227091   6.092   1.147   5.533 -0.4538 -0.6679  0.7876
 8387SOL     OW27092   4.705   8.855   3.952  0.0753 -0.7454  0.6198
 8387SOL    HW127093   4.795   8.835   3.927  0.8175  2.0264  0.7052
 8387SOL    HW227094   4.702   8.843   4.047  0.5725 -0.2393  0.7068
 8388SOL     OW27095   8.035   5.905   7.334 -0.5942  0.1131 -0.0797
 8388SOL    HW127096   8.076   5.975   7.385 -2.0070  0.5493  0.5128
 8388SOL    HW227097   7.941   5.922   7.342 -1.0592 -2.5311  1.0864
 8389SOL     OW27098   3.598   8.599   5.502 -0.3427 -0.0813 -0.4215
 8389SOL    HW127099   3.637   8.686   5.504 -2.3608  0.8810  0.2777
 8389SOL    HW227100   3.541   8.601   5.425 -2.2013  0.1263  0.8889
 8390SOL     OW27101   4.926   4.250   5.727  0.1333  0.0450 -0.4246
 8390SOL    HW127102   4.922   4.208   5.641 -0.4392  0.5227 -0.6423
 8390SOL    HW227103   4.930   4.344   5.707 -2.3825  0.3435  0.0348
 8391SOL     OW27104   3.716   4.050   6.186 -0.0259  0.7667 -0.1775
 8391SOL    HW127105   3.801   4.007   6.177  0.5043  1.1346  2.2426
 8391SOL    HW227106   3.653   3.985   6.154  1.0784  0.0258 -0.9086
 8392SOL     OW27107   2.030   7.809   7.484 -0.0521  0.0369  0.0322
 8392SOL    HW127108   1.960   7.756   7.447  0.3335 -0.4052 -0.0751
 8392SOL    HW227109   2.093   7.745   7.517  0.3799  0.4340 -0.0242
 8393SOL     OW27110   4.203   7.794   6.431 -0.1165 -0.1391  0.4584
 8393SOL    HW127111   4.205   7.793   6.335 -0.9972 -0.8768  0.4388
 8393SOL    HW227112   4.151   7.872   6.452 -0.4556 -0.3276  0.3231
 8394SOL     OW27113   1.472   8.210   3.356 -0.0928 -0.0475 -0.1937
 8394SOL    HW127114   1.507   8.185   3.271  0.3370  0.1850 -0.0844
 8394SOL    HW227115   1.503   8.300   3.370  0.3651 -0.3054  0.4926
 8395SOL     OW27116   1.303   4.231   1.541  0.3098  0.0957  0.3435
 8395SOL    HW127117   1.297   4.324   1.561  0.8597  0.0839  0.5742
 8395SOL    HW227118   1.318   4.189   1.626  0.6473 -0.1491  0.1634
 8396SOL     OW27119   7.949   1.396   3.326 -0.0708 -0.8793 -0.4970
 8396SOL    HW127120   7.927   1.414   3.418 -0.1305  0.1488 -0.6976
 8396SOL    HW227121   8.014   1.463   3.304 -0.2799 -0.9352 -1.2891
 8397SOL     OW27122   6.175   8.316   1.254 -0.0458 -0.3438 -0.1730
 8397SOL    HW127123   6.215   8.287   1.172 -1.0320 -1.4165 -0.3029
 8397SOL    HW227124   6.114   8.384   1.228 -0.4685 -0.7890 -0.3555
 8398SOL     OW27125   2.345   3.255   8.064 -0.0745  0.2176 -0.3397
 8398SOL    HW127126   2.407   3.302   8.007 -0.3653 -0.7824 -1.5048
 8398SOL    HW227127   2.303   3.191   8.007 -1.9012  0.5841  0.5255
 8399SOL     OW27128   6.134   7.685   6.424  0.2871 -0.7733 -0.3758
 8399SOL    HW127129   6.158   7.614   6.484 -0.1255 -1.4539 -0.9929
 8399SOL    HW227130   6.082   7.642   6.356 -0.0218  0.1383 -0.7307
 8400SOL     OW27131   4.341   6.877   2.405 -0.4854 -0.3021 -0.9509
 8400SOL    HW127132   4.403   6.886   2.332  0.1347 -0.9188 -0.5140
 8400SOL    HW227133   4.395   6.888   2.483 -0.2030 -4.1575 -0.4330
 8401SOL     OW27134   8.396   4.736   6.860 -0.4100 -0.2753 -0.3258
 8401SOL    HW127135   8.318   4.684   6.838 -3.4256  3.9409 -0.7952
 8401SOL    HW227136   8.401   4.732   6.956 -0.3655 -1.6293 -0.3696
 8402SOL     OW27137   6.620   6.916   6.738  0.4146  0.0093  0.3461
 8402SOL    HW127138   6.554   6.860   6.780 -0.5130 -0.1795 -1.2731
 8402SOL    HW227139   6.695   6.859   6.723 -0.3422 -0.7209 -0.8433
 8403SOL     OW27140   2.796   6.880   4.500  0.0844 -0.4109 -0.3439
 8403SOL    HW127141   2.769   6.822   4.571 -2.6370  0.6598 -0.3878
 8403SOL    HW227142   2.829   6.958   4.545  0.7613 -0.7221 -0.2869
 8404SOL     OW27143   8.629   2.846   6.872 -0.3347  0.0879 -0.0480
 8404SOL    HW127144   8.665   2.859   6.784 -1.0763  0.6875 -0.2782
 8404SOL    HW227145   8.595   2.757   6.871  0.2318 -0.1327 -0.1523
 8405SOL     OW27146   6.234   0.649   0.220 -0.3307 -0.1305 -0.4336
 8405SOL    HW127147   6.169   0.693   0.165 -1.3261 -1.6703 -0.5555
 8405SOL    HW227148   6.223   0.688   0.307 -2.9237 -1.7592  0.0690
 8406SOL     OW27149   7.222   8.452   5.519  0.3438  0.0074  0.6753
 8406SOL    HW127150   7.185   8.394   5.452  1.4975 -1.1214  0.9670
 8406SOL    HW227151   7.249   8.530   5.471 -0.2284 -0.1539  0.0826
 8407SOL     OW27152   0.825   4.800   0.191 -0.2840  0.0979 -0.0669
 8407SOL    HW127153   0.830   4.798   0.095  0.7675  0.8773 -0.0469
 8407SOL    HW227154   0.845   4.711   0.218  2.0196  0.4388 -0.5044
 8408SOL     OW27155   5.057   3.610   1.383  0.1299 -0.0269  0.2376
 8408SOL    HW127156   5.065   3.691   1.433  2.6402 -0.3338  0.4909
 8408SOL    HW227157   5.081   3.541   1.445  1.3955 -0.6053 -0.8417
 8409SOL     OW27158   8.127   8.521   2.766  0.0202 -0.3394 -0.3992
 8409SOL    HW127159   8.146   8.427   2.772 -2.8648 -1.2016 -2.6788
 8409SOL    HW227160   8.207   8.559   2.728  1.4306 -1.7070  1.0237
 8410SOL     OW27161   4.411   4.251   6.290 -0.2696  0.0514 -0.2368
 8410SOL    HW127162   4.426   4.282   6.379 -0.8337 -1.4161  0.3908
 8410SOL    HW227163   4.498   4.232   6.255  0.0471  1.6739 -0.4267
 8411SOL     OW27164   5.885   0.922   6.936 -0.4100  0.2319 -0.6496
 8411SOL    HW127165   5.891   0.976   6.857 -1.1308  1.9949  0.4545
 8411SOL    HW227166   5.829   0.849   6.911 -0.2094  0.4874 -1.9119
 8412SOL     OW27167   1.807   2.662   7.170  0.2189 -0.1211  0.4116
 8412SOL    HW127168   1.879   2.658   7.232 -0.7515  1.1182  1.6612
 8412SOL    HW227169   1.757   2.739   7.195 -0.7863 -0.1718 -1.2778
 8413SOL     OW27170   1.494   6.937   0.385  0.4000 -0.2068  0.3357
 8413SOL    HW127171   1.462   6.850   0.359  1.2737 -0.5161  0.2846
 8413SOL    HW227172   1.533   6.973   0.306  1.1828 -0.2969  0.6713
 8414SOL     OW27173   4.709   7.912   4.781  0.0021  0.5001 -0.4696
 8414SOL    HW127174   4.740   7.822   4.784 -2.5760 -0.4601  0.9822
 8414SOL    HW227175   4.753   7.956   4.854 -0.6125 -0.3316  0.4304
 8415SOL     OW27176   6.987   3.626   0.050  0.2808  0.3146  0.0178
 8415SOL    HW127177   6.981   3.559   0.118  3.0521  0.5337  0.6184
 8415SOL    HW227178   6.920   3.602  -0.014 -0.3040 -1.7119  1.2946
 8416SOL     OW27179   6.594   3.394   3.048 -0.4405  0.4440  0.6045
 8416SOL    HW127180   6.614   3.303   3.024  0.9350  0.7344  0.5360
 8416SOL    HW227181   6.571   3.436   2.966 -0.4398  0.3076  0.5342
 8417SOL     OW27182   1.721   8.731   7.799 -0.4426 -0.6831 -0.5090
 8417SOL    HW127183   1.662   8.773   7.736 -0.6578  0.9408  0.7051
 8417SOL    HW227184   1.804   8.777   7.789 -0.0106 -1.4827 -0.6841
 8418SOL     OW27185   7.675   7.747   6.808 -0.2075 -0.6435  0.1152
 8418SOL    HW127186   7.600   7.780   6.758  0.3329 -0.0935 -0.3666
 8418SOL    HW227187   7.644   7.668   6.851 -1.7160  0.7412  1.7188
 8419SOL     OW27188   0.547   2.474   5.135 -0.3939 -0.3386  0.6338
 8419SOL    HW127189   0.613   2.423   5.183  5.3230  2.4843 -3.0545
 8419SOL    HW227190   0.524   2.546   5.195  0.3175 -1.1059  1.8766
 8420SOL     OW27191   6.493   7.002   0.616 -0.3310 -0.7880 -0.4160
 8420SOL    HW127192   6.550   6.991   0.693  0.3987  0.5310 -0.7343
 8420SOL    HW227193   6.554   7.016   0.543 -1.0381  0.1512 -0.8529
 8421SOL     OW27194   6.900   0.342   4.552 -0.2350  0.0475 -0.1427
 8421SOL    HW127195   6.985   0.327   4.513 -0.5689  0.5616 -1.0802
 8421SOL    HW227196   6.919   0.381   4.637  0.4414  1.7621 -1.0340
 8422SOL     OW27197   1.035   3.598   1.214  0.1143 -0.2432  0.2279
 8422SOL    HW127198   0.940   3.613   1.213  0.2348  0.6223 -0.3670
 8422SOL    HW227199   1.059   3.598   1.306 -0.3717  0.2970  0.3616
 8423SOL     OW27200   0.278   0.636   6.200  0.3064  0.2371  0.4381
 8423SOL    HW127201   0.198   0.679   6.229 -0.5696 -0.7969 -0.3626
 8423SOL    HW227202   0.312   0.592   6.279 -0.2490  0.1849  0.6502
 8424SOL     OW27203   6.273   7.027   0.419  0.3174 -0.3284 -0.2066
 8424SOL    HW127204   6.344   7.057   0.362  0.5722 -1.7457 -0.6746
 8424SOL    HW227205   6.314   6.963   0.477 -0.2098  0.1829  0.7656
 8425SOL     OW27206   7.375   3.470   4.947  0.0505 -0.0618 -0.3928
 8425SOL    HW127207   7.313   3.507   4.883  0.7979  1.4787 -0.2834
 8425SOL    HW227208   7.461   3.484   4.907  0.5767  1.5275  1.1939
 8426SOL     OW27209   3.809   2.522   8.658 -0.6829 -0.2599  0.2129
 8426SOL    HW127210   3.882   2.571   8.620  1.0176 -2.1289  0.9610
 8426SOL    HW227211   3.784   2.573   8.736 -0.2377  0.4220 -0.0804
 8427SOL     OW27212   5.962   7.292   0.147  0.9593  0.4508  0.0986
 8427SOL    HW127213   6.040   7.287   0.203  1.0001  1.3263  0.1353
 8427SOL    HW227214   5.947   7.386   0.136  0.4663  0.2829 -0.6886
 8428SOL     OW27215   6.099   8.694   0.759  0.7336 -0.0473  0.2105
 8428SOL    HW127216   6.095   8.618   0.817  2.4803  0.0138  0.4653
 8428SOL    HW227217   6.153   8.758   0.807  0.9365  0.5874 -0.8268
 8429SOL     OW27218   2.170   2.769   1.342  0.9821  0.3881  0.6701
 8429SOL    HW127219   2.114   2.730   1.276  0.4293 -0.5474  1.6623
 8429SOL    HW227220   2.132   2.855   1.358 -1.8821 -1.1472  3.1923
 8430SOL     OW27221   2.244   8.697   7.623 -0.3967  0.3389 -0.0359
 8430SOL    HW127222   2.275   8.766   7.682 -0.2517  0.0441  0.2375
 8430SOL    HW227223   2.276   8.723   7.537 -0.9561  0.9832 -0.0571
 8431SOL     OW27224   2.230   0.569   6.435 -0.0373  0.4063 -0.0148
 8431SOL    HW127225   2.209   0.591   6.526 -1.5296 -0.9514  0.0038
 8431SOL    HW227226   2.150   0.588   6.386 -0.3212 -1.8233 -0.5097
 8432SOL     OW27227   1.775   7.078   0.344  0.2480 -0.5029 -0.4959
 8432SOL    HW127228   1.836   7.062   0.272  0.2225  0.1591 -0.6686
 8432SOL    HW227229   1.713   7.142   0.309  0.4722  0.1309  0.2554
 8433SOL     OW27230   2.536   7.604   2.796  0.2026 -0.1063 -0.9547
 8433SOL    HW127231   2.617   7.652   2.775  1.0388 -0.7899  0.5101
 8433SOL    HW227232   2.473   7.673   2.816  0.8817  0.4314 -0.5988
 8434SOL     OW27233   2.504   5.405   1.257 -0.1123  0.0223  0.7330
 8434SOL    HW127234   2.476   5.493   1.280  0.5170  0.6586 -0.8054
 8434SOL    HW227235   2.460   5.386   1.174  2.1790  0.1795 -0.6110
 8435SOL     OW27236   6.328   3.065   6.762  0.4148  0.4667 -0.3972
 8435SOL    HW127237   6.263   3.129   6.791  0.0408 -0.0700 -0.0350
 8435SOL    HW227238   6.402   3.077   6.820  0.5589  0.9372 -0.6761
 8436SOL     OW27239   1.805   3.016   7.368  0.0438 -0.0925  0.5775
 8436SOL    HW127240   1.896   3.043   7.380  0.3269  0.0013 -1.4630
 8436SOL    HW227241   1.801   2.928   7.407  2.3939 -2.3193 -3.4938
 8437SOL     OW27242   3.269   0.321   7.576 -0.2577 -0.6516  0.4188
 8437SOL    HW127243   3.193   0.366   7.538 -0.8769 -0.2921  2.0271
 8437SOL    HW227244   3.341   0.342   7.517 -0.9671  0.7694  0.0218
 8438SOL     OW27245   2.427   3.157   3.067 -0.1731 -0.1184 -0.1047
 8438SOL    HW127246   2.483   3.235   3.068  0.6582 -0.7018 -0.3539
 8438SOL    HW227247   2.369   3.168   3.143 -0.0169  0.7075 -0.1020
 8439SOL     OW27248   2.411   5.657   5.004 -0.0725  0.1016 -0.5427
 8439SOL    HW127249   2.370   5.642   4.918 -0.7356 -1.3833 -0.0171
 8439SOL    HW227250   2.338   5.651   5.066  0.1638  2.5650  0.0502
 8440SOL     OW27251   2.796   2.050   2.517  0.2605  0.3797  0.1595
 8440SOL    HW127252   2.810   1.955   2.519  0.0231  0.3193 -0.6287
 8440SOL    HW227253   2.824   2.077   2.430  0.3249  1.0405  0.3787
 8441SOL     OW27254   0.844   5.037   0.577  0.2830 -0.4185  0.8996
 8441SOL    HW127255   0.797   5.108   0.533  0.9696 -0.8354 -0.5665
 8441SOL    HW227256   0.902   5.081   0.639  0.3726  0.2698  0.3326
 8442SOL     OW27257   7.920   4.713   3.181 -0.2379  0.5544  0.0938
 8442SOL    HW127258   7.856   4.641   3.179  0.7873 -0.3635 -0.3783
 8442SOL    HW227259   8.003   4.672   3.156  0.1883  2.1017 -1.1465
 8443SOL     OW27260   3.018   3.715   2.763  0.1452 -0.2106 -0.4785
 8443SOL    HW127261   2.953   3.664   2.810 -0.6496  1.5136  0.3645
 8443SOL    HW227262   3.005   3.691   2.671 -2.9069  1.3472 -0.5590
 8444SOL     OW27263   7.802   8.273   7.254  0.7720  0.4537 -0.3143
 8444SOL    HW127264   7.811   8.361   7.216  0.3473  0.0200 -1.4419
 8444SOL    HW227265   7.708   8.259   7.260  0.8304 -0.2443 -0.9083
 8445SOL     OW27266   2.060   7.736   3.448  0.0929 -0.0292 -0.0842
 8445SOL    HW127267   1.984   7.687   3.415 -0.3590 -0.7014  1.8133
 8445SOL    HW227268   2.112   7.670   3.495  0.9491  0.7754  0.1212
 8446SOL     OW27269   2.572   0.876   7.871 -0.4173 -0.3057 -0.5748
 8446SOL    HW127270   2.564   0.926   7.952 -1.6287 -0.0040 -0.8625
 8446SOL    HW227271   2.530   0.792   7.890 -0.5472 -0.3004 -0.8314
 8447SOL     OW27272   5.607   3.561   7.125  0.1987  0.4819  0.0373
 8447SOL    HW127273   5.536   3.505   7.092  0.8646 -0.1223 -0.4058
 8447SOL    HW227274   5.635   3.611   7.049 -0.7132  1.8088  0.5357
 8448SOL     OW27275   7.799   3.437   0.799 -0.0508 -0.8888 -0.0551
 8448SOL    HW127276   7.742   3.382   0.853  0.6057 -1.6746 -0.1335
 8448SOL    HW227277   7.862   3.375   0.761 -0.5712 -0.3737 -1.8287
 8449SOL     OW27278   7.112   0.006   5.278 -0.3168 -0.1312  0.1741
 8449SOL    HW127279   7.033  -0.026   5.234 -0.9459 -0.2867  1.3679
 8449SOL    HW227280   7.091  -0.001   5.371  0.9523  0.2432  0.4977
 8450SOL     OW27281   1.437   5.827   8.321  0.4404 -0.6729 -0.1202
 8450SOL    HW127282   1.471   5.756   8.376 -0.2941 -1.3925 -0.5844
 8450SOL    HW227283   1.344   5.810   8.312  0.2425  0.3597 -0.2450
 8451SOL     OW27284   6.325   7.873   6.339 -0.0740  0.2239  0.1909
 8451SOL    HW127285   6.270   7.811   6.388 -0.3362 -1.4891 -2.0809
 8451SOL    HW227286   6.263   7.935   6.301 -0.2836 -0.4933 -0.6941
 8452SOL     OW27287   5.349   2.457   1.743  0.6114  0.2485 -0.2573
 8452SOL    HW127288   5.266   2.487   1.780  0.5456  0.7106 -0.7582
 8452SOL    HW227289   5.396   2.538   1.722  1.4246 -0.0046  0.5234
 8453SOL     OW27290   2.112   2.612   7.281  0.4421 -0.0455  0.1081
 8453SOL    HW127291   2.167   2.637   7.355  1.4347  0.7320 -0.8681
 8453SOL    HW227292   2.137   2.521   7.263 -0.2941 -0.4704  1.1305
 8454SOL     OW27293   5.582   3.275   1.099  0.3288  0.2006  0.4506
 8454SOL    HW127294   5.538   3.190   1.103 -1.4361  1.0346 -0.3585
 8454SOL    HW227295   5.644   3.268   1.027  1.6819 -1.0158  1.6580
 8455SOL     OW27296   3.989   7.090   5.559  0.4193 -0.2637 -0.6828
 8455SOL    HW127297   3.952   7.108   5.473  1.9584  3.3567 -0.7646
 8455SOL    HW227298   3.960   7.163   5.613  1.0976 -1.4343  1.3834
 8456SOL     OW27299   0.853   6.932   2.118 -0.1816 -0.4572 -0.2721
 8456SOL    HW127300   0.845   6.848   2.073 -0.0887 -0.9375  0.5860
 8456SOL    HW227301   0.773   6.979   2.097 -0.1625 -0.6891 -0.8863
 8457SOL     OW27302   6.685   2.469   5.223 -0.5997  0.0766  0.1890
 8457SOL    HW127303   6.601   2.438   5.255 -1.1827 -1.5029 -2.5827
 8457SOL    HW227304   6.666   2.507   5.137  1.4534 -0.0664 -0.3796
 8458SOL     OW27305   0.423   3.059   3.706 -0.5042 -0.5493  0.4530
 8458SOL    HW127306   0.336   3.092   3.728 -1.5310 -2.5506 -0.3359
 8458SOL    HW227307   0.426   3.062   3.611  0.0796 -0.9901  0.4539
 8459SOL     OW27308   5.794   2.884   5.802  0.1972  0.0237  0.4443
 8459SOL    HW127309   5.770   2.977   5.797 -1.5227 -0.3942  0.3429
 8459SOL    HW227310   5.754   2.845   5.725 -0.1431 -1.0138  1.1331
 8460SOL     OW27311   3.284   5.154   4.013  0.5722 -0.5584 -0.1321
 8460SOL    HW127312   3.315   5.065   3.996  0.9637 -0.8096  1.6720
 8460SOL    HW227313   3.233   5.177   3.936  1.0650 -2.0760 -0.9444
 8461SOL     OW27314   6.500   5.745   1.770 -0.5856 -0.5382 -0.0889
 8461SOL    HW127315   6.584   5.779   1.738 -0.6998  2.3431  2.2975
 8461SOL    HW227316   6.524   5.680   1.836 -0.2151 -0.0233  0.2919
 8462SOL     OW27317   8.296   7.105   0.495 -0.1237 -0.1370  0.2053
 8462SOL    HW127318   8.279   7.016   0.464  0.7926  0.2070 -1.3907
 8462SOL    HW227319   8.392   7.110   0.500 -0.1174  1.0545 -0.7027
 8463SOL     OW27320   7.786   2.161   4.255  0.0757  0.0110 -0.9458
 8463SOL    HW127321   7.792   2.222   4.181  2.8953  1.6146  0.4245
 8463SOL    HW227322   7.862   2.104   4.246  0.1271 -0.1681  0.3298
 8464SOL     OW27323   5.155   6.919   4.568 -0.3722 -0.2863 -0.3015
 8464SOL    HW127324   5.188   7.007   4.584 -1.5564  0.2445 -0.6958
 8464SOL    HW227325   5.149   6.880   4.656  1.2347 -0.3965 -0.2172
 8465SOL     OW27326   6.910   2.388   6.089 -0.5871  0.0652  0.3557
 8465SOL    HW127327   6.957   2.345   6.161 -1.2218  0.0125  0.7471
 8465SOL    HW227328   6.828   2.418   6.128 -0.9818 -0.0424 -0.3659
 8466SOL     OW27329   2.346   6.630   1.107 -0.4707  0.2726 -0.5732
 8466SOL    HW127330   2.353   6.647   1.201  0.7653 -1.6711 -0.2394
 8466SOL    HW227331   2.298   6.705   1.072  1.8732  2.7465  1.0843
 8467SOL     OW27332   0.734   8.724   1.759  0.0981  0.4945 -0.2659
 8467SOL    HW127333   0.811   8.702   1.708  0.4409  1.7522 -0.3347
 8467SOL    HW227334   0.703   8.641   1.794  1.7425  0.0089  0.1356
 8468SOL     OW27335   1.310   6.977   1.157 -0.1912 -0.1789  0.1488
 8468SOL    HW127336   1.349   6.956   1.242  0.2350 -0.9296 -0.2129
 8468SOL    HW227337   1.362   6.926   1.094 -1.7204 -1.2022 -0.3609
 8469SOL     OW27338   0.081   6.431   2.782 -0.0817  0.3809 -0.6500
 8469SOL    HW127339   0.006   6.488   2.798 -2.9707 -2.6262 -2.1320
 8469SOL    HW227340   0.121   6.419   2.868 -2.5521  0.6271  0.6453
 8470SOL     OW27341   3.551   1.675   1.676  0.5754  0.0380  0.3953
 8470SOL    HW127342   3.499   1.650   1.752 -0.9201  1.2585 -0.1856
 8470SOL    HW227343   3.562   1.593   1.627  0.7947 -0.5846  1.4293
 8471SOL     OW27344   7.021   7.665   3.486 -0.5757  0.6566  0.4134
 8471SOL    HW127345   6.948   7.717   3.453 -1.0385 -0.7770 -0.9370
 8471SOL    HW227346   7.087   7.670   3.417  0.0740  0.8230  1.0315
 8472SOL     OW27347   3.512   2.223   6.846 -0.0759  0.1404  0.3670
 8472SOL    HW127348   3.419   2.207   6.865 -0.3553  0.4152 -0.7057
 8472SOL    HW227349   3.540   2.281   6.917 -1.2865  1.7525 -0.4020
 8473SOL     OW27350   5.157   4.766   5.628 -0.3696  0.2126  0.3883
 8473SOL    HW127351   5.132   4.828   5.560 -1.3550  0.1131  0.6395
 8473SOL    HW227352   5.241   4.730   5.599  0.7644  2.4121  0.7522
 8474SOL     OW27353   5.471   5.152   6.604 -0.0294  0.4255 -0.4724
 8474SOL    HW127354   5.444   5.234   6.563 -0.4306 -0.1536 -1.4097
 8474SOL    HW227355   5.567   5.153   6.601 -0.0497  0.1116 -2.0656
 8475SOL     OW27356   4.808   8.589   5.676  0.7263 -0.0572 -0.0992
 8475SOL    HW127357   4.805   8.524   5.746 -0.9667  0.5143  0.4092
 8475SOL    HW227358   4.850   8.544   5.603 -1.5141 -2.1941 -0.1876
 8476SOL     OW27359   2.646   3.316   7.544 -0.1175  0.0724  0.0925
 8476SOL    HW127360   2.617   3.405   7.564  0.2768  0.5462 -1.3234
 8476SOL    HW227361   2.573   3.260   7.570 -1.8419  1.1235 -2.2191
 8477SOL     OW27362   8.853   2.478   1.272 -0.5450  0.2367  0.4108
 8477SOL    HW127363   8.799   2.529   1.212 -1.1442  0.0328  0.7594
 8477SOL    HW227364   8.936   2.467   1.227 -1.0397 -0.0527 -0.4525
 8478SOL     OW27365   2.104   7.020   3.751  0.2272 -0.2834 -0.3347
 8478SOL    HW127366   2.067   7.073   3.822 -0.2629 -0.5629 -0.3730
 8478SOL    HW227367   2.126   6.937   3.792  1.2870  0.0443 -0.2087
 8479SOL     OW27368   7.384   1.406   7.987  0.2554 -0.0513 -0.4679
 8479SOL    HW127369   7.388   1.426   7.894  2.4611  0.0499 -0.3922
 8479SOL    HW227370   7.472   1.422   8.020 -0.9811  2.2194  2.1542
 8480SOL     OW27371   3.291   1.191   6.005  0.2670 -0.2076  0.1755
 8480SOL    HW127372   3.328   1.196   5.917  1.6571  0.0594  0.7393
 8480SOL    HW227373   3.299   1.099   6.029  0.3935 -0.1841  0.2246
 8481SOL     OW27374   5.061   6.580   8.088 -0.3612 -0.1086 -0.2039
 8481SOL    HW127375   5.010   6.538   8.157  1.2633  1.5987  2.1634
 8481SOL    HW227376   5.151   6.551   8.102  0.0711  0.5281 -1.4210
 8482SOL     OW27377   2.703   7.269   7.642  0.1981 -0.3488  0.0771
 8482SOL    HW127378   2.761   7.193   7.646 -0.9163 -1.2138  0.5628
 8482SOL    HW227379   2.651   7.255   7.562 -0.7250 -0.6562  0.7140
 8483SOL     OW27380   1.174   3.170   0.811  0.3727  0.1330  0.3940
 8483SOL    HW127381   1.142   3.215   0.889  1.8685  1.4642  0.2696
 8483SOL    HW227382   1.136   3.218   0.738  1.8927  1.1889  0.2630
 8484SOL     OW27383   3.793   0.151   8.823 -0.3928 -0.0267  0.4949
 8484SOL    HW127384   3.879   0.139   8.864  0.5102  0.6535 -1.1174
 8484SOL    HW227385   3.753   0.064   8.827  0.0779 -0.2162  1.8467
 8485SOL     OW27386   7.977   2.026   4.592  0.4453  0.3319  0.5060
 8485SOL    HW127387   8.015   1.966   4.527  0.5136  1.1491 -0.2305
 8485SOL    HW227388   8.003   2.113   4.562 -0.8911  0.8325  0.7060
 8486SOL     OW27389   4.148   3.246   8.759  0.3946 -0.0056 -0.3845
 8486SOL    HW127390   4.178   3.281   8.843  0.1109  0.9920 -0.6920
 8486SOL    HW227391   4.151   3.151   8.771  0.2551  0.1210  0.7951
 8487SOL     OW27392   5.929   7.948   1.149 -0.2477  0.3350  0.0804
 8487SOL    HW127393   5.863   7.890   1.109 -2.7450  2.3952  0.9192
 8487SOL    HW227394   5.954   8.008   1.079 -0.7234  0.7143  0.2254
 8488SOL     OW27395   3.010   0.946   7.614  0.4732  0.1702  0.1221
 8488SOL    HW127396   2.966   0.965   7.531 -1.0570  1.1464  1.0944
 8488SOL    HW227397   2.942   0.903   7.666  1.5832 -0.9276  0.6890
 8489SOL     OW27398   8.147   1.476   1.624  0.2983  0.1739 -0.2909
 8489SOL    HW127399   8.118   1.459   1.713 -0.5356 -0.2186 -0.6243
 8489SOL    HW227400   8.227   1.424   1.614  0.5087  0.3838  0.2859
 8490SOL     OW27401   8.523   3.631   6.832  0.3254 -0.6910 -0.0593
 8490SOL    HW127402   8.482   3.608   6.749 -0.6780  1.9041 -0.3727
 8490SOL    HW227403   8.455   3.617   6.897 -1.0688  2.9488 -0.4979
 8491SOL     OW27404   0.995   0.488   5.024 -0.3307 -0.3928  0.6801
 8491SOL    HW127405   1.022   0.534   4.945 -0.5033 -1.3683  0.0416
 8491SOL    HW227406   0.951   0.410   4.993 -1.9210  0.0315  1.7235
 8492SOL     OW27407   7.992   5.710   7.710 -0.0814 -0.1671 -0.4802
 8492SOL    HW127408   8.077   5.670   7.695 -1.1428 -2.1168 -1.6938
 8492SOL    HW227409   7.990   5.729   7.804  2.3464  1.6643 -0.6979
 8493SOL     OW27410   3.902   6.486   3.201  0.5212 -0.0921  0.8389
 8493SOL    HW127411   3.846   6.533   3.263  0.3669 -0.1862  0.7715
 8493SOL    HW227412   3.940   6.555   3.147 -0.0037 -0.0647  0.4919
 8494SOL     OW27413   4.613   7.467   6.279 -0.0062 -0.1201  0.0174
 8494SOL    HW127414   4.687   7.463   6.340  1.7276  2.1763 -1.7385
 8494SOL    HW227415   4.559   7.540   6.311 -0.5190 -0.5888  0.2377
 8495SOL     OW27416   2.862   1.953   3.304  0.5394 -1.0915  0.2110
 8495SOL    HW127417   2.824   1.866   3.287  0.0600 -0.8591  0.0766
 8495SOL    HW227418   2.951   1.948   3.269  0.3028 -1.3248 -0.3634
 8496SOL     OW27419   2.312   2.994   5.853 -0.1325 -0.5273  0.7567
 8496SOL    HW127420   2.391   2.944   5.875  0.3191  0.1619  0.7571
 8496SOL    HW227421   2.249   2.929   5.824 -0.0799 -1.2606  2.2148
 8497SOL     OW27422   7.478   5.313   1.134 -0.0653 -0.0816 -0.3663
 8497SOL    HW127423   7.562   5.358   1.147  0.4110 -0.2896 -2.3578
 8497SOL    HW227424   7.497   5.221   1.153  0.3698 -0.2312 -1.4124
 8498SOL     OW27425   4.180   0.498   5.601 -1.1183  0.1170  0.4205
 8498SOL    HW127426   4.124   0.435   5.556 -0.5599  0.2763 -0.5297
 8498SOL    HW227427   4.125   0.533   5.671 -2.7675  1.3861 -1.3940
 8499SOL     OW27428   7.415   4.831   8.148 -0.6305 -0.3601 -0.1368
 8499SOL    HW127429   7.392   4.761   8.209 -0.4158 -0.0657  0.2840
 8499SOL    HW227430   7.373   4.909   8.184  1.3547  0.3037  0.9162
 8500SOL     OW27431   5.035   4.870   5.888  0.0427  0.0877 -0.3367
 8500SOL    HW127432   4.950   4.836   5.914 -0.1460  0.5686 -0.3077
 8500SOL    HW227433   5.056   4.825   5.807 -0.6956  0.6784 -0.8641
 8501SOL     OW27434   1.577   4.596   1.966  0.2384  0.5935  0.1398
 8501SOL    HW127435   1.510   4.664   1.966 -0.1144  0.2749 -0.9419
 8501SOL    HW227436   1.642   4.625   2.030 -1.9310 -0.1366  2.8547
 8502SOL     OW27437   7.360   1.182   5.368 -0.3066 -0.1951  0.1041
 8502SOL    HW127438   7.327   1.258   5.320 -1.5267 -0.3970  0.5772
 8502SOL    HW227439   7.426   1.143   5.310 -0.2042  0.7929 -0.4586
 8503SOL     OW27440   0.409   0.042   6.123  1.0251  0.1973  0.6049
 8503SOL    HW127441   0.397   0.083   6.037  1.8080  0.3447  0.5534
 8503SOL    HW227442   0.479  -0.023   6.108  1.6777  0.7262  1.2789
 8504SOL     OW27443   0.388   3.647   5.411 -0.0855  0.0430  0.4156
 8504SOL    HW127444   0.350   3.657   5.498 -0.1347  1.2403  0.2770
 8504SOL    HW227445   0.344   3.571   5.374 -1.2293  0.4751  0.8446
 8505SOL     OW27446   7.101   0.454   3.442 -0.5298 -0.2021 -0.4987
 8505SOL    HW127447   7.068   0.366   3.463  0.7849 -0.1516  2.2801
 8505SOL    HW227448   7.092   0.461   3.347 -1.3392 -3.0496 -0.7363
 8506SOL     OW27449   6.163   3.958   6.743 -0.6339 -0.4379  0.4299
 8506SOL    HW127450   6.182   3.978   6.652 -1.5819 -0.6075  0.1891
 8506SOL    HW227451   6.072   3.982   6.755 -1.3121 -2.8272  0.6215
 8507SOL     OW27452   0.032   7.833   2.882 -0.2746 -0.1889  0.0566
 8507SOL    HW127453   0.097   7.889   2.839 -0.0592 -0.3461  0.1739
 8507SOL    HW227454   0.022   7.758   2.824 -0.5349 -0.0490 -0.0815
 8508SOL     OW27455   7.251   0.601   7.514 -0.4006 -0.0150 -0.2518
 8508SOL    HW127456   7.279   0.685   7.551 -1.1878  0.2666 -0.2755
 8508SOL    HW227457   7.304   0.591   7.435  0.8118 -0.2946  0.5647
 8509SOL     OW27458   5.613   4.711   4.821 -0.5953 -0.0511  0.4671
 8509SOL    HW127459   5.692   4.727   4.873  0.5183  0.8375 -1.3623
 8509SOL    HW227460   5.646   4.701   4.731 -2.5929  0.6624 -0.3946
 8510SOL     OW27461   5.996   3.171   7.158 -0.6863 -0.4215 -0.5864
 8510SOL    HW127462   5.922   3.222   7.124 -0.8436 -0.0672  0.2514
 8510SOL    HW227463   6.014   3.106   7.090  0.1778  1.3708 -2.1698
 8511SOL     OW27464   7.228   6.831   7.518  0.2141  0.2197  0.3895
 8511SOL    HW127465   7.299   6.813   7.457  0.9245  0.1051  1.2164
 8511SOL    HW227466   7.212   6.925   7.510  0.0040  0.1270 -0.2764
 8512SOL     OW27467   3.608   3.478   2.025 -0.3600  0.5081 -0.9103
 8512SOL    HW127468   3.643   3.557   2.066  0.7590 -0.2832 -0.2814
 8512SOL    HW227469   3.518   3.501   2.000 -1.0032  1.1345  1.6935
 8513SOL     OW27470   4.709   5.323   6.332 -0.5725  0.0855 -0.0422
 8513SOL    HW127471   4.794   5.364   6.351 -0.8258  0.1148  1.0640
 8513SOL    HW227472   4.668   5.382   6.268 -0.8884  1.5352  1.4371
 8514SOL     OW27473   0.931   3.576   2.163 -0.5336  0.4457  0.2496
 8514SOL    HW127474   0.987   3.543   2.234 -0.0141 -1.8736 -1.1252
 8514SOL    HW227475   0.853   3.609   2.208  0.7241  1.1681  2.0252
 8515SOL     OW27476   4.754   4.569   1.999  0.2386 -0.0666 -0.4795
 8515SOL    HW127477   4.773   4.476   2.007 -0.4586 -0.3627 -1.9349
 8515SOL    HW227478   4.671   4.572   1.951  1.2500  1.3189 -2.2475
 8516SOL     OW27479   7.090   8.771   7.722 -0.7286 -0.0575  0.1989
 8516SOL    HW127480   7.062   8.858   7.753 -0.6946  0.6614 -1.6883
 8516SOL    HW227481   7.179   8.785   7.689  0.4515 -1.4788  2.5020
 8517SOL     OW27482   4.264   5.844   1.546  0.1322 -0.3688 -0.2106
 8517SOL    HW127483   4.198   5.883   1.489 -1.0925 -1.9149  0.1055
 8517SOL    HW227484   4.215   5.791   1.608  1.5713 -0.2373  1.1126
 8518SOL     OW27485   4.160   2.540   4.039  0.4767 -0.0711  0.3767
 8518SOL    HW127486   4.207   2.613   4.080  0.4771  0.5816 -0.7368
 8518SOL    HW227487   4.134   2.483   4.112 -0.0886  1.3719  1.3437
 8519SOL     OW27488   3.890   1.185   2.826  0.6813 -0.6538  0.1087
 8519SOL    HW127489   3.831   1.240   2.878 -0.6917 -0.6902 -1.3179
 8519SOL    HW227490   3.921   1.118   2.887  0.0100 -0.0351  1.1488
 8520SOL     OW27491   0.250   4.268   2.706 -0.1101 -0.2003  0.8315
 8520SOL    HW127492   0.161   4.253   2.737 -0.5857 -0.0448 -0.3948
 8520SOL    HW227493   0.260   4.207   2.633  0.8510 -0.3444  1.0784
 8521SOL     OW27494   7.711   5.962   4.099  0.0305  0.0535 -0.2299
 8521SOL    HW127495   7.773   6.027   4.130 -0.4606  0.7944 -0.7646
 8521SOL    HW227496   7.644   6.013   4.053 -0.4958 -0.8058 -0.4352
 8522SOL     OW27497   2.716   2.467   3.519  0.3943  0.4317  0.3045
 8522SOL    HW127498   2.786   2.408   3.548 -1.3127 -1.4812  0.7301
 8522SOL    HW227499   2.663   2.414   3.459 -2.9705  0.3957  3.0386
 8523SOL     OW27500   0.897   7.645   3.813 -0.3778  0.3566 -0.1930
 8523SOL    HW127501   0.852   7.582   3.869  1.3508 -2.6920 -1.9906
 8523SOL    HW227502   0.989   7.641   3.841  0.4752 -0.9845 -2.8142
 8524SOL     OW27503   6.947   7.951   7.573 -0.0088 -0.3432  0.5003
 8524SOL    HW127504   6.975   8.036   7.539 -0.1851  0.1410  1.5424
 8524SOL    HW227505   6.960   7.957   7.667  0.3050 -1.6046  0.5538
 8525SOL     OW27506   4.198   2.222   2.299 -0.4049  0.4880  0.1824
 8525SOL    HW127507   4.155   2.154   2.247  0.9445 -0.6244  0.4632
 8525SOL    HW227508   4.142   2.299   2.288 -1.3598 -0.3342 -1.0805
 8526SOL     OW27509   2.562   6.712   2.753  0.1341 -0.1344 -0.3110
 8526SOL    HW127510   2.640   6.664   2.729 -0.0059 -0.0802 -0.8776
 8526SOL    HW227511   2.590   6.771   2.823  0.6012 -0.0965 -0.5315
 8527SOL     OW27512   4.605   4.210   7.766  0.3959 -0.0275 -0.0374
 8527SOL    HW127513   4.682   4.253   7.728 -0.4926  1.7485  0.0618
 8527SOL    HW227514   4.548   4.282   7.792 -0.7899 -1.2806  0.9974
 8528SOL     OW27515   5.953   6.809   3.789 -0.4201  0.6979  0.0121
 8528SOL    HW127516   5.899   6.735   3.760  0.4709  0.5319 -1.3221
 8528SOL    HW227517   5.916   6.885   3.744 -0.6700  0.9037  0.5503
 8529SOL     OW27518   8.049   8.064   2.673 -0.5279 -0.0188  0.3442
 8529SOL    HW127519   7.970   8.117   2.658 -0.8217 -0.8615 -1.4650
 8529SOL    HW227520   8.073   8.033   2.585  1.3001 -0.5191  0.9854
 8530SOL     OW27521   1.020   3.782   2.981 -0.1495 -0.3313  0.2803
 8530SOL    HW127522   1.071   3.832   3.044  1.5834  0.6268 -1.7928
 8530SOL    HW227523   0.944   3.752   3.031  1.0764  0.4567  2.7710
 8531SOL     OW27524   0.394   3.272   8.117  0.0044  0.3188 -0.2297
 8531SOL    HW127525   0.317   3.222   8.143 -0.3355  0.0009 -1.7619
 8531SOL    HW227526   0.457   3.257   8.188 -0.1674 -2.1220 -0.5045
 8532SOL     OW27527   4.123   8.824   7.138  0.6692  0.6634  0.1887
 8532SOL    HW127528   4.075   8.762   7.194  1.6761  0.6458  1.0787
 8532SOL    HW227529   4.060   8.852   7.072 -0.2601 -0.1120  0.7296
 8533SOL     OW27530   7.987   4.060   0.816  0.5261  0.2732  0.0805
 8533SOL    HW127531   8.068   4.066   0.867  0.1599 -1.2915  0.9071
 8533SOL    HW227532   7.917   4.070   0.881  0.0533  0.4428 -0.4475
 8534SOL     OW27533   2.867   2.391   2.456  0.3820 -0.1695 -0.0782
 8534SOL    HW127534   2.908   2.468   2.417 -1.0885 -0.2366 -1.8963
 8534SOL    HW227535   2.853   2.331   2.383  0.7266 -1.8374  1.1601
 8535SOL     OW27536   3.980   8.473   4.019  0.8773  0.1593  0.1932
 8535SOL    HW127537   3.969   8.544   4.082  0.7756  0.6653 -0.3921
 8535SOL    HW227538   4.069   8.440   4.034  0.5704 -0.2758  1.1578
 8536SOL     OW27539   1.169   2.836   4.729  0.0686 -0.9883  0.3213
 8536SOL    HW127540   1.183   2.790   4.646 -0.7007  0.1303 -0.4500
 8536SOL    HW227541   1.074   2.846   4.734 -0.0020 -2.2110  1.9973
 8537SOL     OW27542   6.527   0.416   4.895 -0.2984  0.2118  0.0424
 8537SOL    HW127543   6.543   0.449   4.983  0.6626  0.7003 -0.2918
 8537SOL    HW227544   6.432   0.419   4.884 -0.7160 -2.5415  2.0598
 8538SOL     OW27545   2.670   6.388   3.280  0.7371 -0.3127 -0.2074
 8538SOL    HW127546   2.647   6.473   3.242 -0.2364 -0.3607  0.2405
 8538SOL    HW227547   2.759   6.373   3.251  0.7843  0.6738 -0.6416
 8539SOL     OW27548   0.539   7.814   3.995 -0.0546 -0.2610 -0.3119
 8539SOL    HW127549   0.614   7.756   3.984  0.3848 -0.4026  2.6909
 8539SOL    HW227550   0.463   7.759   3.974  0.5406  0.1260 -4.2531
 8540SOL     OW27551   3.558   0.385   3.969 -0.2794 -0.0735  0.2795
 8540SOL    HW127552   3.552   0.290   3.957  0.4131 -0.0505 -0.2685
 8540SOL    HW227553   3.544   0.421   3.881  2.2529  0.2028 -0.0637
 8541SOL     OW27554   7.829   1.989   3.285 -0.2643  0.3135 -0.4384
 8541SOL    HW127555   7.917   2.024   3.268 -1.6066  2.2867 -4.7019
 8541SOL    HW227556   7.832   1.899   3.251  0.1669  0.2778 -0.3113
 8542SOL     OW27557   7.996   1.252   5.394 -0.1719  0.0323  0.2838
 8542SOL    HW127558   7.911   1.288   5.422  0.2365 -0.1949  1.9382
 8542SOL    HW227559   7.975   1.164   5.364 -0.8312  0.7644 -1.5245
 8543SOL     OW27560   7.839   4.649   4.994  0.0685 -0.3717  0.0801
 8543SOL    HW127561   7.759   4.612   5.031  0.2140 -0.3581  0.4135
 8543SOL    HW227562   7.908   4.623   5.055  0.1943  0.3356  0.2523
 8544SOL     OW27563   5.907   5.191   5.764  0.2177  0.2118  0.7854
 8544SOL    HW127564   5.928   5.114   5.710  0.1607 -0.1142  1.2187
 8544SOL    HW227565   5.930   5.266   5.709  1.2632 -0.1187  0.7360
 8545SOL     OW27566   0.553   6.538   2.731  0.7048 -0.2774  0.1879
 8545SOL    HW127567   0.545   6.475   2.659 -0.7498 -1.8032  1.5892
 8545SOL    HW227568   0.548   6.623   2.689  1.1174 -1.0899 -1.6214
 8546SOL     OW27569   5.927   4.280   4.458  0.3752  0.2961 -0.3519
 8546SOL    HW127570   5.880   4.251   4.536 -0.4873  0.8707 -0.6352
 8546SOL    HW227571   5.860   4.286   4.390  1.0141  0.3165 -1.0018
 8547SOL     OW27572   0.098   8.382   7.993  0.0041 -0.0934 -0.2135
 8547SOL    HW127573   0.009   8.364   7.961  0.4491 -0.5235 -1.2421
 8547SOL    HW227574   0.096   8.473   8.020 -0.8818 -0.2288  0.2097
 8548SOL     OW27575   0.368   4.821   8.418  0.1154 -0.0461  0.1630
 8548SOL    HW127576   0.435   4.797   8.483  0.4062 -0.5661 -0.3226
 8548SOL    HW227577   0.396   4.776   8.338 -1.9093 -2.0097  0.4563
 8549SOL     OW27578   2.094   6.971   8.108  0.0528 -0.2215 -0.0616
 8549SOL    HW127579   2.140   6.887   8.101 -0.1047 -0.2655 -0.6556
 8549SOL    HW227580   2.104   7.010   8.021 -0.6647 -0.0367 -0.0656
 8550SOL     OW27581   5.105   5.424   5.219  0.0262  0.0117 -0.0855
 8550SOL    HW127582   5.184   5.466   5.183  0.4771  0.3713  1.2724
 8550SOL    HW227583   5.063   5.384   5.143  0.6454  1.2173 -1.1009
 8551SOL     OW27584   7.208   4.761   4.832 -0.3706 -0.1123  0.1915
 8551SOL    HW127585   7.224   4.737   4.741  1.1385  3.1745 -0.5407
 8551SOL    HW227586   7.287   4.732   4.878  0.2629  0.9518 -0.1861
 8552SOL     OW27587   3.915   6.273   8.575 -0.4703  0.3083  0.1362
 8552SOL    HW127588   3.996   6.290   8.526  1.0718 -2.1861  1.5969
 8552SOL    HW227589   3.902   6.178   8.567 -2.4330  0.4507  1.1723
 8553SOL     OW27590   0.167   7.982   2.488  0.2836  0.0385 -0.4070
 8553SOL    HW127591   0.111   7.959   2.413 -0.6993  2.0305 -0.3586
 8553SOL    HW227592   0.108   8.024   2.550  1.5336  0.6493  0.4086
 8554SOL     OW27593   2.869   8.800   4.730 -0.3448  0.5563 -0.0553
 8554SOL    HW127594   2.836   8.879   4.687 -1.9585  0.2837  0.6067
 8554SOL    HW227595   2.840   8.728   4.674 -0.4143  0.3285  0.2727
 8555SOL     OW27596   6.251   0.305   0.484 -0.9506 -0.1034  0.0471
 8555SOL    HW127597   6.238   0.211   0.472  0.2269 -0.2326 -0.3127
 8555SOL    HW227598   6.287   0.335   0.401  1.2716  0.1563  1.0399
 8556SOL     OW27599   3.520   0.975   3.510 -0.5621 -0.1832 -0.7807
 8556SOL    HW127600   3.541   1.060   3.471 -0.3116 -0.5995 -1.5767
 8556SOL    HW227601   3.426   0.978   3.526 -0.3449  0.7286  0.3965
 8557SOL     OW27602   2.941   5.724   3.389 -0.6226 -0.3557  0.3477
 8557SOL    HW127603   3.031   5.744   3.365 -0.8152 -0.4898 -0.5192
 8557SOL    HW227604   2.910   5.802   3.435  0.2997 -0.7634  1.7467
 8558SOL     OW27605   5.294   6.768   7.643 -0.5883  0.2791  0.0543
 8558SOL    HW127606   5.199   6.764   7.648 -0.5817 -0.3599 -0.1519
 8558SOL    HW227607   5.325   6.704   7.708 -0.3089  0.3955  0.0378
 8559SOL     OW27608   7.586   5.074   5.732 -0.7012 -0.3164 -0.5214
 8559SOL    HW127609   7.550   5.101   5.816 -0.0811  0.1186 -0.3907
 8559SOL    HW227610   7.531   5.119   5.667 -0.3256  0.4462 -0.3219
 8560SOL     OW27611   6.672   0.897   1.864 -0.3105 -0.5575 -0.4038
 8560SOL    HW127612   6.664   0.864   1.774  3.2749 -0.9380 -0.7415
 8560SOL    HW227613   6.764   0.883   1.886 -0.0904  3.1770  1.8839
 8561SOL     OW27614   8.178   3.318   3.943 -0.4156 -0.2410 -0.1744
 8561SOL    HW127615   8.096   3.294   3.899 -0.0038 -0.6274 -0.7421
 8561SOL    HW227616   8.166   3.286   4.033 -2.3142  2.8709  0.8116
 8562SOL     OW27617   2.530   2.720   2.995 -0.8588  0.0083 -0.1249
 8562SOL    HW127618   2.580   2.802   2.998 -0.8244 -0.0319  0.6083
 8562SOL    HW227619   2.530   2.689   3.085  0.8228 -1.8386 -0.6914
 8563SOL     OW27620   6.866   5.849   7.618  0.6571 -0.3072 -0.0201
 8563SOL    HW127621   6.840   5.937   7.591 -0.4515 -0.7757 -0.5356
 8563SOL    HW227622   6.933   5.824   7.555  1.1652  0.2620  0.2862
 8564SOL     OW27623   4.414   7.505   3.060 -0.2571  0.1179  0.6214
 8564SOL    HW127624   4.442   7.441   3.126  0.4838 -0.1932  0.0234
 8564SOL    HW227625   4.333   7.542   3.096  1.2213  1.5237  2.7387
 8565SOL     OW27626   5.948   2.740   0.176 -0.2045 -0.0500  0.1264
 8565SOL    HW127627   5.878   2.706   0.230 -0.8863  0.6662 -0.2949
 8565SOL    HW227628   5.915   2.732   0.086  0.3147  0.1580 -0.0876
 8566SOL     OW27629   0.081   4.586   4.966  0.4194  0.3382  0.6044
 8566SOL    HW127630  -0.008   4.559   4.945  0.6706 -0.2177  0.1998
 8566SOL    HW227631   0.122   4.507   5.002  0.5009  0.8203  1.5945
 8567SOL     OW27632   6.478   7.402   8.703 -0.3123  0.4573  0.1282
 8567SOL    HW127633   6.441   7.313   8.702 -1.5699  0.9100  1.6691
 8567SOL    HW227634   6.502   7.417   8.794  2.7397  0.6377 -0.6103
 8568SOL     OW27635   3.794   4.209   4.321  0.0715 -0.1150 -0.7074
 8568SOL    HW127636   3.709   4.241   4.290 -1.4021 -2.7313  0.3386
 8568SOL    HW227637   3.802   4.122   4.282  1.6959 -0.4244  0.2501
 8569SOL     OW27638   3.892   5.722   7.505 -0.4996 -0.3600  0.2120
 8569SOL    HW127639   3.974   5.732   7.457 -0.1281 -0.9556  0.7261
 8569SOL    HW227640   3.883   5.804   7.554 -0.4364 -0.1166 -0.1763
 8570SOL     OW27641   8.422   0.038   5.074  0.0576 -0.0729 -0.4927
 8570SOL    HW127642   8.475   0.116   5.059  0.3601 -0.4712 -1.5440
 8570SOL    HW227643   8.464  -0.030   5.022  1.5895 -1.7431  2.6753
 8571SOL     OW27644   4.058   0.540   8.834  0.6353 -0.6497 -0.1647
 8571SOL    HW127645   4.131   0.479   8.820 -0.2855 -2.0624  0.8418
 8571SOL    HW227646   4.003   0.530   8.756  2.8882  2.6498 -2.4103
 8572SOL     OW27647   5.983   7.688   5.864  0.3405  0.0167 -0.2125
 8572SOL    HW127648   5.906   7.633   5.850  0.4178 -0.5332  1.3719
 8572SOL    HW227649   5.957   7.773   5.829 -1.1001 -0.0898  0.4836
 8573SOL     OW27650   7.406   8.681   0.384  0.6121 -0.3026 -0.4287
 8573SOL    HW127651   7.401   8.622   0.459  0.5882  0.2977  0.0475
 8573SOL    HW227652   7.497   8.673   0.354  1.0399  0.5430  0.5696
 8574SOL     OW27653   4.125   5.294   1.739  0.4443  0.0249  0.4154
 8574SOL    HW127654   4.066   5.227   1.773  3.5748 -3.6307 -0.6857
 8574SOL    HW227655   4.113   5.292   1.644  1.6014 -0.0588  0.2548
 8575SOL     OW27656   6.663   2.603   5.783  0.0860 -0.1514  0.4819
 8575SOL    HW127657   6.606   2.550   5.838 -1.2266  0.3398 -0.3527
 8575SOL    HW227658   6.716   2.653   5.844 -2.2282  1.3646  1.4113
 8576SOL     OW27659   4.142   2.543   5.428  0.2429  0.1655  0.3298
 8576SOL    HW127660   4.064   2.490   5.421 -0.2160  0.7762  0.6972
 8576SOL    HW227661   4.201   2.509   5.361 -0.0206 -0.8203  0.5819
 8577SOL     OW27662   8.708   3.975   7.876  0.4008  0.1560  0.3504
 8577SOL    HW127663   8.753   3.902   7.918 -0.6628 -0.2834  0.7447
 8577SOL    HW227664   8.615   3.953   7.882 -0.0081  1.9921  1.3223
 8578SOL     OW27665   3.134   8.777   3.973 -0.0442 -0.1931  0.2026
 8578SOL    HW127666   3.172   8.774   3.885 -0.7348 -0.2322 -0.1016
 8578SOL    HW227667   3.041   8.757   3.960 -0.2515  0.2832  0.8879
 8579SOL     OW27668   6.575   8.030   1.496 -0.0585  0.1404  0.4688
 8579SOL    HW127669   6.647   8.077   1.455 -0.1911 -0.0044  0.0701
 8579SOL    HW227670   6.531   8.095   1.549  0.4884  0.1848  0.8815
 8580SOL     OW27671   5.779   7.177   4.086 -0.0624 -0.0068  0.2975
 8580SOL    HW127672   5.746   7.260   4.051 -0.1213  0.3365  1.1569
 8580SOL    HW227673   5.852   7.202   4.142 -1.2494 -0.3460  2.0679
 8581SOL     OW27674   5.764   4.842   1.485  0.0362  0.1248 -0.2820
 8581SOL    HW127675   5.779   4.882   1.571  0.6704  0.8453 -0.7077
 8581SOL    HW227676   5.670   4.827   1.482 -0.6628  3.6331 -0.8941
 8582SOL     OW27677   7.018   4.392   1.124  0.6244 -0.0392  0.7510
 8582SOL    HW127678   7.024   4.451   1.049  3.0177 -0.8166  0.2323
 8582SOL    HW227679   7.012   4.304   1.086  0.9032 -0.3800  1.4639
 8583SOL     OW27680   2.387   3.459   3.297  0.4262 -0.2707  0.0258
 8583SOL    HW127681   2.382   3.364   3.313 -0.5611 -0.1246  0.6656
 8583SOL    HW227682   2.335   3.473   3.218  1.7632 -0.4281 -0.9202
 8584SOL     OW27683   3.239   8.689   2.332  0.1416  0.1894 -0.7453
 8584SOL    HW127684   3.200   8.694   2.420  0.6640 -1.2619 -0.3954
 8584SOL    HW227685   3.331   8.669   2.348  0.0732 -0.9101 -1.6219
 8585SOL     OW27686   3.865   4.332   6.699  0.1948 -0.4785  0.3567
 8585SOL    HW127687   3.849   4.395   6.629  0.0270 -0.5304  0.3464
 8585SOL    HW227688   3.958   4.310   6.692  0.0835 -0.8134 -0.1325
 8586SOL     OW27689   7.476   2.086   6.267 -0.3056 -0.5508  0.4581
 8586SOL    HW127690   7.479   2.038   6.184  2.4575  0.7426 -0.3008
 8586SOL    HW227691   7.512   2.025   6.332  0.1968 -0.6043  0.1320
 8587SOL     OW27692   2.032   0.677   6.658  0.4761 -0.2165 -0.0248
 8587SOL    HW127693   2.051   0.732   6.734 -1.3201  1.3749 -0.6417
 8587SOL    HW227694   1.999   0.595   6.696  0.1011  0.3521  0.9338
 8588SOL     OW27695   7.577   7.983   0.697 -0.0593 -0.3290  0.2369
 8588SOL    HW127696   7.519   8.015   0.766 -1.6448 -2.0328 -0.2018
 8588SOL    HW227697   7.547   8.027   0.618  2.0669  1.9876  0.6188
 8589SOL     OW27698   6.959   8.762   5.793 -0.6937  0.2539  0.3248
 8589SOL    HW127699   6.948   8.792   5.884 -4.1067 -3.1397  1.3052
 8589SOL    HW227700   7.009   8.681   5.800 -2.5841 -1.0646 -0.4516
 8590SOL     OW27701   6.721   8.823   8.212 -0.4134  0.2952 -0.0740
 8590SOL    HW127702   6.655   8.788   8.272 -0.1706  0.1112  0.0839
 8590SOL    HW227703   6.745   8.908   8.251 -0.7113  0.4616 -0.2465
 8591SOL     OW27704   8.529   2.666   5.051  0.2956 -0.1858  0.0297
 8591SOL    HW127705   8.465   2.601   5.083 -0.1998  0.6626  0.8210
 8591SOL    HW227706   8.478   2.746   5.042  0.4319 -0.3114 -2.8337
 8592SOL     OW27707   4.855   5.292   7.744 -0.0147  0.2626 -0.1232
 8592SOL    HW127708   4.820   5.368   7.790 -0.8611  0.1590 -0.5888
 8592SOL    HW227709   4.949   5.310   7.735 -0.0732  0.8738  0.4863
 8593SOL     OW27710   3.942   2.187   1.408  0.4251  0.1599 -0.0205
 8593SOL    HW127711   3.941   2.196   1.503  0.6018  1.2472 -0.1103
 8593SOL    HW227712   3.915   2.272   1.375  0.6618 -0.1098 -0.9519
 8594SOL     OW27713   3.441   2.241   1.657  0.3666 -0.0219  0.1232
 8594SOL    HW127714   3.407   2.299   1.589 -0.4987  0.8895  1.2977
 8594SOL    HW227715   3.518   2.287   1.691 -0.2873  0.4506  1.0149
 8595SOL     OW27716   5.487   2.514   6.357  0.0661 -0.0767 -0.1043
 8595SOL    HW127717   5.539   2.532   6.435 -0.5832  1.5862 -0.0058
 8595SOL    HW227718   5.419   2.582   6.358  0.6928  0.7182 -2.6927
 8596SOL     OW27719   6.136   1.269   8.006  0.0314 -0.6852 -0.0635
 8596SOL    HW127720   6.178   1.268   8.092 -0.1278  0.2582  0.0376
 8596SOL    HW227721   6.045   1.244   8.023 -0.3589  0.8381  0.2725
 8597SOL     OW27722   5.038   8.770   4.346 -0.0627  0.6675 -0.1365
 8597SOL    HW127723   5.056   8.687   4.301  1.9274  1.5018 -1.0143
 8597SOL    HW227724   5.092   8.766   4.425 -0.4907  0.8565  0.1672
 8598SOL     OW27725   3.067   5.422   4.205 -0.0256 -0.7626 -0.5272
 8598SOL    HW127726   3.151   5.394   4.242 -1.4295 -0.5854  3.3259
 8598SOL    HW227727   3.025   5.342   4.175  0.9087 -1.0587 -1.0622
 8599SOL     OW27728   7.070   6.800   1.423 -0.0234  0.0357 -0.3928
 8599SOL    HW127729   6.992   6.758   1.385 -0.1533 -1.4647  1.4113
 8599SOL    HW227730   7.075   6.766   1.512  2.1918  0.8336 -0.1468
 8600SOL     OW27731   1.730   8.004   7.655  0.0578 -0.5785  0.0229
 8600SOL    HW127732   1.726   7.915   7.621 -2.7709 -0.5102 -0.1047
 8600SOL    HW227733   1.657   8.049   7.613  0.5746  1.4265  1.1118
 8601SOL     OW27734   0.753   8.185   0.807 -0.3581  0.2755 -0.2419
 8601SOL    HW127735   0.765   8.258   0.747  1.6002  0.7695  0.6628
 8601SOL    HW227736   0.804   8.210   0.885  2.6934 -3.1377 -0.8903
 8602SOL     OW27737   0.409   1.205   0.834 -0.0872  0.2929  0.1758
 8602SOL    HW127738   0.320   1.237   0.848 -0.6283 -0.7481 -0.6829
 8602SOL    HW227739   0.410   1.119   0.877  0.7625  0.6548  0.8885
 8603SOL     OW27740   4.134   5.555   0.888  0.2673 -0.0287 -0.7684
 8603SOL    HW127741   4.203   5.489   0.887 -0.4276 -0.8248  1.0552
 8603SOL    HW227742   4.178   5.635   0.859  1.5780 -0.8421 -1.1254
 8604SOL     OW27743   4.249   1.831   2.758  0.3405  0.2348 -0.3583
 8604SOL    HW127744   4.314   1.764   2.735  1.7422  1.7986 -1.1091
 8604SOL    HW227745   4.250   1.834   2.853  0.2684 -0.7759 -0.3135
 8605SOL     OW27746   7.475   5.993   2.494  0.1999 -0.1674  0.2229
 8605SOL    HW127747   7.525   5.999   2.413  1.1090 -0.6540  0.7233
 8605SOL    HW227748   7.510   5.915   2.538 -2.1676 -1.5142 -0.1496
 8606SOL     OW27749   7.524   3.125   5.507 -0.2933 -0.1101 -1.0398
 8606SOL    HW127750   7.524   3.123   5.603  0.5991 -0.0928 -1.0295
 8606SOL    HW227751   7.463   3.057   5.481  0.7331 -1.2862 -0.4665
 8607SOL     OW27752   6.402   5.343   6.540  0.2810 -0.8408  0.2999
 8607SOL    HW127753   6.313   5.361   6.570 -0.0674 -2.4135  0.3072
 8607SOL    HW227754   6.458   5.374   6.611 -0.2670 -0.2240  0.4772
 8608SOL     OW27755   0.175   8.831   4.159  0.8249  0.6786 -0.4499
 8608SOL    HW127756   0.155   8.815   4.067  0.9272 -0.8380 -0.2330
 8608SOL    HW227757   0.270   8.818   4.165  0.6958 -0.0477  0.0227
 8609SOL     OW27758   0.990   2.020   2.534 -0.0210  0.2996  0.1896
 8609SOL    HW127759   1.070   1.985   2.494  0.0594  0.3674  0.2885
 8609SOL    HW227760   1.012   2.027   2.627 -0.1964  0.1713  0.2392
 8610SOL     OW27761   1.592   5.224   0.221 -0.6312  0.9353 -0.1935
 8610SOL    HW127762   1.577   5.246   0.313 -0.4190  0.4028 -0.0280
 8610SOL    HW227763   1.681   5.189   0.219 -1.3095 -0.8512 -0.2728
 8611SOL     OW27764   2.098   2.907   4.065 -0.8006  0.5891  0.4866
 8611SOL    HW127765   2.099   2.987   4.119 -0.0216  1.2176 -0.4168
 8611SOL    HW227766   2.157   2.928   3.992 -0.7428 -0.7536  0.1379
 8612SOL     OW27767   3.178   4.300   1.507  0.3678  0.6600 -0.9961
 8612SOL    HW127768   3.199   4.276   1.417  0.8415 -0.2608 -0.6529
 8612SOL    HW227769   3.095   4.256   1.525  0.3359  0.7423 -0.9365
 8613SOL     OW27770   2.871   8.820   2.136 -0.8029  0.2562 -0.4207
 8613SOL    HW127771   2.819   8.844   2.060 -1.3790 -0.1767 -0.1747
 8613SOL    HW227772   2.820   8.751   2.179 -0.0102 -0.2036 -0.1910
 8614SOL     OW27773   5.384   8.847   2.682  0.0324 -0.2382 -0.5072
 8614SOL    HW127774   5.444   8.913   2.648  0.1431 -0.2341 -0.3055
 8614SOL    HW227775   5.395   8.772   2.624 -1.0829  0.3730 -1.5680
 8615SOL     OW27776   5.982   0.258   0.244 -0.0180 -0.9661 -0.3585
 8615SOL    HW127777   5.924   0.318   0.198 -0.5454 -0.4112  0.9755
 8615SOL    HW227778   6.070   0.285   0.217 -0.2894 -0.2641 -0.5677
 8616SOL     OW27779   0.753   7.727   4.426  0.5894 -0.2237  0.2439
 8616SOL    HW127780   0.713   7.806   4.463 -0.9825 -0.1935 -1.3675
 8616SOL    HW227781   0.834   7.758   4.386 -0.2315  0.6907 -0.7638
 8617SOL     OW27782   3.166   0.336   0.151 -0.2172 -0.2074  0.3646
 8617SOL    HW127783   3.253   0.325   0.190 -0.4952 -2.7764  0.4531
 8617SOL    HW227784   3.170   0.284   0.071 -1.7568 -0.5723  0.5009
 8618SOL     OW27785   7.454   4.317   3.703  0.1647 -0.2277 -0.4145
 8618SOL    HW127786   7.391   4.266   3.653 -0.7093 -0.2607  0.6887
 8618SOL    HW227787   7.401   4.378   3.754  1.1289  1.0580 -0.8886
 8619SOL     OW27788   0.136   0.947   3.415 -0.7017  0.0739 -0.4770
 8619SOL    HW127789   0.214   0.937   3.469 -0.3702  0.1439 -0.9382
 8619SOL    HW227790   0.095   1.027   3.447 -0.3907  0.2337 -0.4756
 8620SOL     OW27791   5.978   4.092   1.160 -0.4215 -0.0152  0.1142
 8620SOL    HW127792   5.915   4.158   1.131 -0.7791 -0.8847 -1.1829
 8620SOL    HW227793   5.925   4.023   1.197 -0.2660 -0.7257 -0.9249
 8621SOL     OW27794   0.715   7.271   1.113  0.0649  0.4356 -0.0426
 8621SOL    HW127795   0.725   7.179   1.138 -2.1207  0.0091 -0.5226
 8621SOL    HW227796   0.789   7.288   1.055  0.1339 -1.2417 -0.5167
 8622SOL     OW27797   1.534   6.079   0.767  0.1467  0.1024  0.3137
 8622SOL    HW127798   1.557   5.987   0.783  0.7896  0.2535  0.2955
 8622SOL    HW227799   1.443   6.086   0.795 -0.0944 -0.6831 -0.2267
 8623SOL     OW27800   3.345   0.422   3.480  0.1766 -0.3598 -0.0794
 8623SOL    HW127801   3.376   0.340   3.442  1.6610  0.2042 -0.1544
 8623SOL    HW227802   3.318   0.475   3.405 -1.4602 -1.0072  0.0114
 8624SOL     OW27803   2.968   6.480   8.443 -0.3839 -0.0517 -0.2532
 8624SOL    HW127804   3.017   6.446   8.518 -0.1139  2.0912  0.5956
 8624SOL    HW227805   2.927   6.402   8.405 -0.0051 -1.2938  1.7140
 8625SOL     OW27806   4.239   4.335   7.683  0.2641  0.1177 -0.6437
 8625SOL    HW127807   4.252   4.419   7.639  1.0309  0.0607 -0.5424
 8625SOL    HW227808   4.312   4.329   7.745  1.2745 -1.4213 -1.8980
 8626SOL     OW27809   1.683   0.905   4.976 -0.2830  0.5989 -0.0657
 8626SOL    HW127810   1.641   0.820   4.980 -0.2235  0.5996  0.7203
 8626SOL    HW227811   1.613   0.966   4.951 -1.0542  0.7740  2.2668
 8627SOL     OW27812   7.247   1.837   5.264 -0.1682 -0.0150  0.3964
 8627SOL    HW127813   7.179   1.902   5.249  0.9340  1.2062  0.4590
 8627SOL    HW227814   7.325   1.875   5.224  0.5542 -1.2172  0.6137
 8628SOL     OW27815   8.679   1.675   3.977  0.1107 -0.1041  0.1004
 8628SOL    HW127816   8.773   1.691   3.988  0.6892 -2.8621 -0.2093
 8628SOL    HW227817   8.659   1.603   4.037 -2.0730  1.0635  0.8887
 8629SOL     OW27818   4.475   4.582   2.407 -0.0382  0.1815  0.3283
 8629SOL    HW127819   4.508   4.576   2.496 -1.1043  1.4896  0.8545
 8629SOL    HW227820   4.547   4.619   2.357  0.7349 -1.0246  0.5175
 8630SOL     OW27821   4.457   7.286   0.894  0.5783  0.2357 -0.4731
 8630SOL    HW127822   4.444   7.200   0.855  0.8986  1.3778 -3.3376
 8630SOL    HW227823   4.462   7.269   0.988 -0.1506 -2.7443 -0.8689
 8631SOL     OW27824   7.581   4.101   8.782 -0.3840  0.5343  0.0025
 8631SOL    HW127825   7.507   4.148   8.743 -2.0879 -1.4442  0.6615
 8631SOL    HW227826   7.541   4.029   8.830  1.9212  0.2127  1.6128
 8632SOL     OW27827   2.212   8.039   6.463 -0.6294  0.2736 -0.4026
 8632SOL    HW127828   2.197   8.012   6.372  0.5764 -0.6915 -0.3334
 8632SOL    HW227829   2.284   8.102   6.457 -0.6137  0.2822 -0.1219
 8633SOL     OW27830   4.933   5.019   4.367 -0.4007  0.4751 -0.5244
 8633SOL    HW127831   4.978   5.097   4.334 -0.6914  0.8882  0.0330
 8633SOL    HW227832   4.926   5.034   4.461 -0.6500 -0.1328 -0.4419
 8634SOL     OW27833   3.335   1.808   3.422 -0.5417  0.2149  0.2368
 8634SOL    HW127834   3.408   1.866   3.440 -1.7334  1.3315  1.6789
 8634SOL    HW227835   3.371   1.720   3.432  0.3786  0.7491  1.9063
 8635SOL     OW27836   7.058   7.086   5.151  0.1781  0.4592  0.2521
 8635SOL    HW127837   7.060   7.181   5.136  0.5588  0.0799 -2.5871
 8635SOL    HW227838   7.149   7.063   5.169  0.3086  0.4755 -0.3644
 8636SOL     OW27839   0.614   4.450   7.491 -0.3909 -0.4474  0.1893
 8636SOL    HW127840   0.642   4.373   7.540 -1.6348 -0.6410  0.6380
 8636SOL    HW227841   0.521   4.459   7.511 -0.5833  0.3679 -0.9526
 8637SOL     OW27842   2.476   6.339   2.724 -0.1324  0.2458  0.1206
 8637SOL    HW127843   2.556   6.379   2.690  0.4457  0.6292  1.8138
 8637SOL    HW227844   2.412   6.349   2.653  1.7159 -1.5687 -1.9594
 8638SOL     OW27845   6.245   3.146   1.416  0.3604 -0.3642 -0.0853
 8638SOL    HW127846   6.235   3.204   1.340 -1.8663  2.4641  2.1536
 8638SOL    HW227847   6.326   3.174   1.458  0.6188 -0.6573 -0.3818
 8639SOL     OW27848   4.522   6.490   1.749 -1.0592 -0.5553  0.5958
 8639SOL    HW127849   4.430   6.462   1.748 -1.7844  1.6227  0.6277
 8639SOL    HW227850   4.550   6.478   1.658 -1.9025  0.3039  0.2035
 8640SOL     OW27851   2.824   7.368   2.629 -0.2724 -0.7678 -0.8450
 8640SOL    HW127852   2.853   7.292   2.578  0.4574 -0.8701 -0.3006
 8640SOL    HW227853   2.730   7.371   2.615 -0.4568 -2.2930 -0.2203
 8641SOL     OW27854   4.790   7.899   1.829 -0.1779 -0.1093  0.6545
 8641SOL    HW127855   4.860   7.892   1.764 -0.6151 -0.6873  0.2302
 8641SOL    HW227856   4.834   7.925   1.910  0.5852 -0.8794  0.5007
 8642SOL     OW27857   0.492   3.367   1.014 -0.0569  0.2899 -0.4367
 8642SOL    HW127858   0.406   3.410   1.011 -0.7673 -0.9917  0.6998
 8642SOL    HW227859   0.538   3.400   0.937 -1.1298  1.9016 -0.4316
 8643SOL     OW27860   8.005   7.400   8.633 -0.0669  0.2566 -0.4640
 8643SOL    HW127861   7.976   7.405   8.542 -0.8381  0.4831 -0.2092
 8643SOL    HW227862   8.050   7.483   8.648 -1.0091  0.7482 -0.2846
 8644SOL     OW27863   4.372   7.105   6.842 -0.5589 -0.5999  0.5277
 8644SOL    HW127864   4.313   7.135   6.773  1.2570 -1.6489 -1.5845
 8644SOL    HW227865   4.408   7.185   6.879 -1.4808 -0.0200  0.2293
 8645SOL     OW27866   6.086   0.934   0.406 -0.3643 -0.2778 -0.0099
 8645SOL    HW127867   6.161   0.876   0.411  1.0796  1.5515  0.5844
 8645SOL    HW227868   6.039   0.920   0.488  0.1777 -0.3496  0.2914
 8646SOL     OW27869   8.028   8.228   4.492 -0.1504  0.0502 -0.2987
 8646SOL    HW127870   7.998   8.280   4.567 -1.9824 -1.7653  0.3148
 8646SOL    HW227871   8.026   8.288   4.418 -1.4647  1.0528  0.5171
 8647SOL     OW27872   4.354   6.839   1.967 -0.0330  0.0157 -0.6232
 8647SOL    HW127873   4.435   6.832   1.916 -1.4881  2.0098 -3.5121
 8647SOL    HW227874   4.345   6.933   1.985 -0.6285 -0.4230  1.6594
 8648SOL     OW27875   7.417   3.531   5.849 -0.2308 -0.1568  0.0506
 8648SOL    HW127876   7.398   3.581   5.769 -0.5314  0.4170  0.4735
 8648SOL    HW227877   7.376   3.582   5.919 -0.3570 -0.8896  0.5174
 8649SOL     OW27878   7.020   7.601   1.509  0.5430  0.4087  0.0653
 8649SOL    HW127879   7.110   7.570   1.512 -0.1003 -1.5182  0.7164
 8649SOL    HW227880   7.012   7.643   1.424  1.8378 -0.0552 -0.3055
 8650SOL     OW27881   7.196   0.062   6.795 -0.4522 -0.2584 -0.7641
 8650SOL    HW127882   7.105   0.037   6.814 -0.1751 -0.5230  0.2637
 8650SOL    HW227883   7.224   0.109   6.874  0.6818 -1.2061 -0.5800
 8651SOL     OW27884   1.889   2.421   8.618  0.1812 -0.1125 -0.2738
 8651SOL    HW127885   1.915   2.352   8.680 -0.6482  0.7573  1.0818
 8651SOL    HW227886   1.961   2.423   8.554  0.1488 -2.3348 -0.4747
 8652SOL     OW27887   5.795   7.018   1.149 -0.2120  0.1403 -1.0837
 8652SOL    HW127888   5.802   7.107   1.181  1.6259 -0.1535 -0.6056
 8652SOL    HW227889   5.885   6.990   1.131 -0.8395 -1.1263 -2.6176
 8653SOL     OW27890   3.489   6.576   7.594 -0.1395 -0.0104 -0.8315
 8653SOL    HW127891   3.464   6.495   7.550 -1.1918  0.2570 -0.7568
 8653SOL    HW227892   3.584   6.571   7.602  0.0070 -0.3539 -2.5348
 8654SOL     OW27893   8.827   1.014   4.063 -0.0513  0.1993  0.1816
 8654SOL    HW127894   8.785   1.043   3.982 -0.3452 -1.3341 -0.2305
 8654SOL    HW227895   8.843   1.095   4.111 -1.3322  1.0078 -0.6954
 8655SOL     OW27896   6.612   5.461   4.337  0.1095 -0.2231  0.0993
 8655SOL    HW127897   6.640   5.403   4.267  0.5567  1.0530 -0.8044
 8655SOL    HW227898   6.547   5.410   4.386 -1.0447 -0.7758 -1.8824
 8656SOL     OW27899   6.116   1.497   5.908  0.1813 -0.5156 -0.3168
 8656SOL    HW127900   6.083   1.529   5.824  1.0352 -1.1567 -0.9077
 8656SOL    HW227901   6.043   1.510   5.969 -0.0849  0.9312 -0.9166
 8657SOL     OW27902   7.974   4.969   8.076 -0.1508  0.3172 -0.3813
 8657SOL    HW127903   8.042   5.018   8.122 -1.0281  2.5170 -1.3037
 8657SOL    HW227904   8.017   4.933   7.999 -0.0057  1.6537 -0.9357
 8658SOL     OW27905   6.122   1.071   7.412 -0.0290  0.0082 -0.0464
 8658SOL    HW127906   6.138   1.044   7.503 -0.4290 -1.4527 -0.3876
 8658SOL    HW227907   6.029   1.054   7.399  0.0962 -0.0816 -0.8332
 8659SOL     OW27908   0.386   4.313   7.059  0.3025  0.2835 -0.2167
 8659SOL    HW127909   0.430   4.234   7.091  0.5027  0.3171 -0.4039
 8659SOL    HW227910   0.422   4.326   6.971 -0.3272  0.1280 -0.5053
 8660SOL     OW27911   2.969   4.004   2.897  0.2234 -0.0729  0.7027
 8660SOL    HW127912   3.049   3.966   2.934  0.1088  0.9384  2.0867
 8660SOL    HW227913   2.914   4.023   2.973 -0.6417  0.7614 -0.1016
 8661SOL     OW27914   6.636   3.089   0.381  0.5510 -0.3809 -0.3879
 8661SOL    HW127915   6.607   3.083   0.472  1.4182 -1.1100 -0.1433
 8661SOL    HW227916   6.658   3.181   0.370  2.4563 -0.6375  0.8138
 8662SOL     OW27917   6.433   2.212   0.994 -0.1568 -0.5373 -0.2213
 8662SOL    HW127918   6.448   2.190   1.086 -0.6314 -0.4550 -0.1200
 8662SOL    HW227919   6.511   2.180   0.949  0.6994  0.6316  0.3772
 8663SOL     OW27920   5.644   8.585   2.734  1.0749 -0.3467 -0.0357
 8663SOL    HW127921   5.575   8.590   2.669 -0.7231 -0.1244  1.7821
 8663SOL    HW227922   5.704   8.518   2.701 -1.1219 -2.1005 -0.6880
 8664SOL     OW27923   6.884   6.827   6.665  0.4100  0.3207 -0.7303
 8664SOL    HW127924   6.900   6.903   6.721  1.2246  0.3601 -1.0047
 8664SOL    HW227925   6.970   6.804   6.630  0.2173 -0.9093 -0.4347
 8665SOL     OW27926   2.609   6.246   8.078  0.0637 -0.4132  0.2980
 8665SOL    HW127927   2.569   6.308   8.017  0.6301 -1.3677 -1.0738
 8665SOL    HW227928   2.536   6.217   8.133 -0.7677 -0.6587 -0.8976
 8666SOL     OW27929   0.160   7.483   1.032  0.0942  0.8152  0.1247
 8666SOL    HW127930   0.183   7.396   1.065  1.3178  0.3090 -1.8675
 8666SOL    HW227931   0.088   7.467   0.971  1.2317  0.9367 -1.3107
 8667SOL     OW27932   4.317   1.370   0.037  0.3730 -0.3858 -0.1526
 8667SOL    HW127933   4.358   1.421  -0.033  1.0874 -1.2967 -0.4072
 8667SOL    HW227934   4.360   1.400   0.117 -0.7985  1.0300  0.0092
 8668SOL     OW27935   2.041   8.540   0.029 -0.1184  0.6788 -0.5434
 8668SOL    HW127936   2.129   8.556  -0.005 -0.3549 -0.8507 -2.0321
 8668SOL    HW227937   2.053   8.530   0.123  0.9910  2.3298 -0.4746
 8669SOL     OW27938   4.718   0.132   7.456 -0.4924  0.2933 -0.0707
 8669SOL    HW127939   4.790   0.076   7.424  0.5608  0.7375  1.4102
 8669SOL    HW227940   4.752   0.221   7.447 -1.0408  0.5362  0.2310
 8670SOL     OW27941   4.340   3.895   2.557  0.1484 -0.4103  0.1881
 8670SOL    HW127942   4.356   3.986   2.532 -2.7437  0.6472  1.7771
 8670SOL    HW227943   4.367   3.890   2.649  0.3616 -1.1984  0.0897
 8671SOL     OW27944   2.330   3.494   5.040  0.1248 -0.2260  0.0351
 8671SOL    HW127945   2.422   3.523   5.035 -0.0763  0.5881  0.7311
 8671SOL    HW227946   2.309   3.498   5.134 -0.2306 -1.6986  0.0277
 8672SOL     OW27947   6.728   4.128   1.876  0.1260  0.1317  0.6064
 8672SOL    HW127948   6.662   4.147   1.943  1.1452 -0.9389  1.9776
 8672SOL    HW227949   6.691   4.163   1.795 -2.8306 -1.7600  0.9898
 8673SOL     OW27950   3.676   2.280   3.953 -0.2053  0.0644 -0.0341
 8673SOL    HW127951   3.751   2.228   3.922 -0.1916  0.4157 -0.6219
 8673SOL    HW227952   3.716   2.356   3.996 -0.2247 -0.3120  0.6452
 8674SOL     OW27953   4.489   7.957   7.860  0.6488  0.1112  0.5017
 8674SOL    HW127954   4.512   7.873   7.821  1.6185  1.0920 -1.1849
 8674SOL    HW227955   4.511   7.947   7.953  0.5558 -1.5383  0.3770
 8675SOL     OW27956   8.827   3.367   5.395  0.3695  0.1884 -0.0709
 8675SOL    HW127957   8.763   3.353   5.325 -1.2546  0.6314  1.2676
 8675SOL    HW227958   8.777   3.357   5.476  1.9117  0.9742  1.0256
 8676SOL     OW27959   4.640   3.547   2.923 -0.8115  0.4044 -0.1205
 8676SOL    HW127960   4.670   3.459   2.901  0.9869  0.8054  0.5152
 8676SOL    HW227961   4.594   3.577   2.845 -0.0322 -0.5171 -0.9666
 8677SOL     OW27962   4.335   8.573   4.304  0.2942  0.1241  0.2427
 8677SOL    HW127963   4.404   8.518   4.341  0.2530 -0.4804 -0.5279
 8677SOL    HW227964   4.254   8.538   4.341  0.2049 -0.8274 -0.7591
 8678SOL     OW27965   6.809   7.520   7.320  0.2890 -0.0343  0.3629
 8678SOL    HW127966   6.783   7.549   7.232 -1.3250 -1.8839  0.1490
 8678SOL    HW227967   6.901   7.495   7.311  0.8388  2.0351 -0.1700
 8679SOL     OW27968   2.334   0.212   5.709  0.1928 -0.1267  0.2815
 8679SOL    HW127969   2.411   0.240   5.660 -0.9852  1.2509 -0.8948
 8679SOL    HW227970   2.287   0.154   5.649 -1.2525  1.5483 -0.2923
 8680SOL     OW27971   1.055   8.722   6.235  0.7961 -0.6859  0.2616
 8680SOL    HW127972   1.142   8.707   6.274  0.1435  0.7613  2.5179
 8680SOL    HW227973   1.017   8.790   6.290 -1.4751 -0.6893 -1.1973
 8681SOL     OW27974   6.338   4.063   8.386 -0.0741  0.1589  0.3445
 8681SOL    HW127975   6.335   4.020   8.301  3.5226 -1.8841  1.0240
 8681SOL    HW227976   6.256   4.038   8.428 -0.2832 -2.0493 -1.1581
 8682SOL     OW27977   5.958   3.258   3.121  0.1731  0.2596 -0.1231
 8682SOL    HW127978   5.930   3.349   3.132  3.9826  1.6268 -0.3710
 8682SOL    HW227979   5.961   3.246   3.026 -4.0642 -1.6193 -0.2359
 8683SOL     OW27980   5.094   0.942   1.432  0.2684  0.2335 -0.2554
 8683SOL    HW127981   5.149   1.020   1.437 -0.7675  0.9006  1.8112
 8683SOL    HW227982   5.006   0.975   1.414  0.0269 -0.5690 -0.6070
 8684SOL     OW27983   7.853   5.100   4.618 -0.4370 -0.4859 -0.9218
 8684SOL    HW127984   7.926   5.158   4.637 -1.3404 -0.0805  1.7113
 8684SOL    HW227985   7.839   5.051   4.698 -2.4502 -1.2361 -1.6527
 8685SOL     OW27986   1.921   3.890   2.507 -0.7291 -0.2304  0.1619
 8685SOL    HW127987   1.942   3.835   2.583  0.1364  1.0996  0.9265
 8685SOL    HW227988   1.829   3.914   2.519 -0.1673  1.3584  1.7636
 8686SOL     OW27989   7.051   4.579   6.977 -0.1010  0.5401 -0.5459
 8686SOL    HW127990   7.044   4.647   7.044 -2.9023 -0.9616  0.8443
 8686SOL    HW227991   7.114   4.516   7.013 -1.3708 -0.1088  0.5930
 8687SOL     OW27992   6.931   0.112   7.771 -0.8237  0.2078  0.4919
 8687SOL    HW127993   6.874   0.104   7.695 -2.8024  0.6416  1.8478
 8687SOL    HW227994   6.871   0.114   7.846  0.9648  1.1690  1.9844
 8688SOL     OW27995   5.572   7.276   1.415 -0.1627 -1.0439 -0.4709
 8688SOL    HW127996   5.665   7.281   1.391  0.1180  0.6871  0.8054
 8688SOL    HW227997   5.572   7.276   1.510 -1.4842 -0.3575 -0.4465
 8689SOL     OW27998   0.794   6.481   3.652 -0.2192  0.2343 -0.0697
 8689SOL    HW127999   0.796   6.573   3.680 -0.3042  0.3287 -0.3759
 8689SOL    HW228000   0.886   6.458   3.640 -0.2529  0.9000 -2.0160
 8690SOL     OW28001   7.104   5.893   7.061  0.0836 -0.1788 -0.7646
 8690SOL    HW128002   7.081   5.831   6.992  0.6588 -0.8886 -0.3246
 8690SOL    HW228003   7.135   5.839   7.133  1.1109  0.6493 -0.5649
 8691SOL     OW28004   4.584   6.023   2.375 -0.3580 -0.2097 -0.7727
 8691SOL    HW128005   4.639   6.091   2.338  0.4241  0.6823  1.8231
 8691SOL    HW228006   4.594   5.949   2.315  1.8348  0.6836 -1.6200
 8692SOL     OW28007   0.466   0.382   5.744  0.5697  0.3725 -0.4971
 8692SOL    HW128008   0.533   0.334   5.793 -1.9542 -2.7332  0.2075
 8692SOL    HW228009   0.454   0.463   5.794  2.8094  0.4372  0.0508
 8693SOL     OW28010   6.395   8.083   5.783  0.6059  0.2458 -0.3218
 8693SOL    HW128011   6.417   8.172   5.758 -1.0545  1.4373  2.0665
 8693SOL    HW228012   6.306   8.070   5.749  1.1071 -0.8123 -1.2973
 8694SOL     OW28013   0.224   5.678   6.879 -0.5161 -0.3036 -0.1900
 8694SOL    HW128014   0.186   5.752   6.927 -0.2247  0.0735 -0.5336
 8694SOL    HW228015   0.266   5.625   6.947  1.0645  0.9340 -0.1579
 8695SOL     OW28016   7.520   7.338   1.468  0.3494  0.7780 -0.1746
 8695SOL    HW128017   7.567   7.257   1.492  1.2848  1.4044  0.1549
 8695SOL    HW228018   7.525   7.341   1.373 -3.3409 -1.7029 -0.6799
 8696SOL     OW28019   0.496   2.540   2.964 -1.1262  0.3865 -0.4454
 8696SOL    HW128020   0.508   2.473   3.031  0.0911  0.9647 -0.0661
 8696SOL    HW228021   0.457   2.492   2.890 -0.9865 -0.5774  0.0847
 8697SOL     OW28022   1.251   0.314   0.047  0.5898  0.2209 -0.0909
 8697SOL    HW128023   1.214   0.246   0.104  3.4610 -0.9666  0.5401
 8697SOL    HW228024   1.230   0.396   0.091 -1.3815 -0.3429  0.1043
 8698SOL     OW28025   3.383   3.583   1.904 -0.0143  0.0256 -0.0224
 8698SOL    HW128026   3.304   3.546   1.865  0.2430  0.7558 -1.2937
 8698SOL    HW228027   3.351   3.653   1.961 -0.3542 -0.5940  0.5618
 8699SOL     OW28028   7.952   2.698   7.677  0.1549  0.2816  0.1525
 8699SOL    HW128029   8.034   2.716   7.630  0.3229 -1.7318 -0.4287
 8699SOL    HW228030   7.883   2.717   7.614  0.3481 -1.5270 -0.6571
 8700SOL     OW28031   3.120   0.616   2.864  0.3356  0.3477 -1.0051
 8700SOL    HW128032   3.174   0.677   2.814  1.6978 -0.2549 -0.3454
 8700SOL    HW228033   3.183   0.566   2.916 -0.6487 -1.9782 -1.9093
 8701SOL     OW28034   2.199   0.714   1.276  0.2489  0.0071 -0.3649
 8701SOL    HW128035   2.238   0.633   1.241 -0.3717 -0.2275 -0.5177
 8701SOL    HW228036   2.135   0.683   1.340 -0.2819  0.3667 -0.7198
 8702SOL     OW28037   3.709   8.101   8.211  0.0634  0.8161  0.0338
 8702SOL    HW128038   3.762   8.030   8.248  0.1413  0.6131 -0.4650
 8702SOL    HW228039   3.763   8.179   8.221  0.9738  0.4182 -1.5540
 8703SOL     OW28040   8.762   0.393   3.246 -0.3277  0.6155 -0.0967
 8703SOL    HW128041   8.841   0.359   3.287 -1.2402 -0.6101  0.7298
 8703SOL    HW228042   8.768   0.365   3.154  0.2791  0.6901 -0.0787
 8704SOL     OW28043   5.125   7.462   2.680  0.2798 -0.3231 -0.8640
 8704SOL    HW128044   5.162   7.529   2.737 -2.2961  0.9640 -0.5822
 8704SOL    HW228045   5.200   7.410   2.653  2.0231  1.0613  1.0194
 8705SOL     OW28046   6.426   8.158   8.171 -0.3641  0.0115 -0.6975
 8705SOL    HW128047   6.473   8.076   8.185 -0.3208 -0.0037 -0.9330
 8705SOL    HW228048   6.481   8.225   8.213 -1.4089 -0.3332  1.3774
 8706SOL     OW28049   6.793   2.928   1.428 -0.2084 -0.0469  0.4100
 8706SOL    HW128050   6.715   2.972   1.396  0.9373  2.4729  0.8229
 8706SOL    HW228051   6.774   2.910   1.520  0.1508  1.8289  0.8881
 8707SOL     OW28052   8.118   4.217   2.355 -0.0954 -0.2202  0.8579
 8707SOL    HW128053   8.206   4.182   2.369 -0.4889 -0.3637  3.4308
 8707SOL    HW228054   8.060   4.141   2.367 -0.6433 -0.1149 -0.7379
 8708SOL     OW28055   2.630   7.221   1.891 -0.3575 -0.5406  0.1595
 8708SOL    HW128056   2.567   7.166   1.845  1.2560 -1.3422 -1.2216
 8708SOL    HW228057   2.701   7.162   1.915  0.7608  0.6540 -0.0725
 8709SOL     OW28058   5.938   4.504   0.363 -0.5153  0.0484 -0.0064
 8709SOL    HW128059   5.863   4.466   0.408 -0.3473 -0.2574  0.0214
 8709SOL    HW228060   5.984   4.429   0.325  0.1023  0.1690  0.4788
 8710SOL     OW28061   4.009   7.722   2.650  0.4796 -0.3666  0.0943
 8710SOL    HW128062   3.967   7.763   2.726  1.5868 -0.8223  0.9874
 8710SOL    HW228063   4.103   7.734   2.665  0.8289 -2.5168  0.0258
 8711SOL     OW28064   7.387   0.710   8.152  0.4097 -0.2759 -0.0951
 8711SOL    HW128065   7.436   0.673   8.078  0.8597 -1.0140  0.5487
 8711SOL    HW228066   7.455   0.750   8.208  0.0316  0.6364 -0.2716
 8712SOL     OW28067   1.295   7.384   4.701 -0.3020 -0.0701  0.7091
 8712SOL    HW128068   1.205   7.368   4.672  0.3458  0.3599 -1.7458
 8712SOL    HW228069   1.349   7.336   4.638  1.2199  0.8419  1.2819
 8713SOL     OW28070   0.385   2.970   5.859  0.5266  0.3514 -0.1825
 8713SOL    HW128071   0.347   2.882   5.861  1.2279  0.0489  1.1643
 8713SOL    HW228072   0.318   3.025   5.819 -0.8549 -0.3760  1.0469
 8714SOL     OW28073   1.135   4.815   3.348 -0.2454  0.1571 -0.1013
 8714SOL    HW128074   1.046   4.786   3.327 -0.1027 -1.4693  1.3091
 8714SOL    HW228075   1.175   4.740   3.393  0.9843  1.7466  1.6057
 8715SOL     OW28076   2.951   5.868   6.981 -0.0689  0.2538 -0.3273
 8715SOL    HW128077   2.867   5.829   6.957 -0.1960  1.4198 -1.9305
 8715SOL    HW228078   2.962   5.845   7.073 -2.3106  0.3490  0.0358
 8716SOL     OW28079   1.789   3.683   1.894  0.0756  0.0829  0.2473
 8716SOL    HW128080   1.782   3.592   1.922  1.9182 -0.3215 -0.4608
 8716SOL    HW228081   1.785   3.679   1.798  0.2342  0.7400  0.2100
 8717SOL     OW28082   6.536   6.471   2.053 -0.2995  0.0864  0.4261
 8717SOL    HW128083   6.582   6.553   2.074 -0.1716  0.0578  0.2559
 8717SOL    HW228084   6.452   6.500   2.017 -0.9532  0.1426  1.8934
 8718SOL     OW28085   1.364   0.216   4.059 -0.4981  0.2324  0.1755
 8718SOL    HW128086   1.272   0.239   4.064 -0.5671  0.0088 -0.0720
 8718SOL    HW228087   1.375   0.176   3.973 -0.4448 -0.9128  0.6937
 8719SOL     OW28088   4.680   3.681   3.393  0.2899  0.1704 -0.2078
 8719SOL    HW128089   4.695   3.650   3.304  0.8034 -0.1000 -0.0322
 8719SOL    HW228090   4.595   3.726   3.389  0.2156 -0.0123 -0.7841
 8720SOL     OW28091   8.361   0.744   0.545 -0.1099  0.6702  0.4978
 8720SOL    HW128092   8.433   0.790   0.588 -0.6694  1.4499  0.6180
 8720SOL    HW228093   8.380   0.751   0.451  0.5046 -0.0318  0.5599
 8721SOL     OW28094   6.206   8.281   1.555 -0.4940 -0.1410  0.0473
 8721SOL    HW128095   6.205   8.374   1.576 -1.8442 -0.0385 -0.3791
 8721SOL    HW228096   6.205   8.278   1.459 -3.8931 -0.5103 -0.0407
 8722SOL     OW28097   0.509   3.125   7.271  0.1903 -0.1732  0.7275
 8722SOL    HW128098   0.573   3.135   7.200  0.5050 -0.6475  0.9371
 8722SOL    HW228099   0.450   3.199   7.261  0.4947  0.0078  0.2373
 8723SOL     OW28100   8.659   3.488   2.192  0.3367  0.5707  0.5453
 8723SOL    HW128101   8.583   3.545   2.208 -0.4945 -0.3336 -0.0650
 8723SOL    HW228102   8.701   3.526   2.115 -1.1562 -0.5055 -0.8875
 8724SOL     OW28103   5.159   7.630   3.630 -0.4044  0.0248  0.0301
 8724SOL    HW128104   5.161   7.539   3.660  1.2087 -0.1719 -0.5901
 8724SOL    HW228105   5.181   7.681   3.708 -1.4568 -0.0879  0.4157
 8725SOL     OW28106   8.208   5.254   2.857 -0.4636  0.4083 -0.2110
 8725SOL    HW128107   8.174   5.336   2.893 -0.5046 -0.0914  0.8938
 8725SOL    HW228108   8.166   5.185   2.907  3.1661 -0.2481  2.3173
 8726SOL     OW28109   1.024   7.831   4.954  0.0946  0.2866 -0.2215
 8726SOL    HW128110   1.001   7.801   4.867 -1.0016 -0.1736  0.2126
 8726SOL    HW228111   0.949   7.882   4.983 -0.8738 -1.9908  1.5767
 8727SOL     OW28112   2.108   5.043   2.886 -0.3921  0.3031  0.0348
 8727SOL    HW128113   2.187   5.044   2.940 -0.5101 -1.4667  0.3065
 8727SOL    HW228114   2.057   5.118   2.916  1.2239  1.5734 -0.2511
 8728SOL     OW28115   2.368   8.116   1.942 -0.1578 -0.3297  0.0352
 8728SOL    HW128116   2.306   8.079   1.878  0.1524  1.3180 -1.2881
 8728SOL    HW228117   2.313   8.164   2.004 -0.2631  0.9325 -1.0009
 8729SOL     OW28118   2.539   4.267   8.089 -0.3785  0.1475 -0.1117
 8729SOL    HW128119   2.585   4.326   8.148  0.0826 -0.4163  0.0989
 8729SOL    HW228120   2.574   4.287   8.002  0.0713 -0.0791  0.0110
 8730SOL     OW28121   0.796   5.347   0.972  0.3361  0.3885  0.2128
 8730SOL    HW128122   0.717   5.335   1.024 -1.4845  3.1733 -1.6064
 8730SOL    HW228123   0.858   5.390   1.031  0.2539 -1.1145  1.4371
 8731SOL     OW28124   7.682   1.361   4.528  0.5898 -0.1418 -0.0837
 8731SOL    HW128125   7.712   1.417   4.599  1.0062 -0.1787 -0.2298
 8731SOL    HW228126   7.621   1.300   4.570 -1.0468  1.3553 -0.1751
 8732SOL     OW28127   3.425   8.764   5.322  0.3624 -0.1679  0.1908
 8732SOL    HW128128   3.487   8.832   5.345  0.7851 -0.9985  1.6659
 8732SOL    HW228129   3.371   8.753   5.400 -0.4760 -0.7018 -0.4375
 8733SOL     OW28130   3.912   0.512   8.592  0.9644  0.7387  0.2869
 8733SOL    HW128131   3.873   0.596   8.570  0.3238  0.2236 -0.6314
 8733SOL    HW228132   3.960   0.486   8.514 -0.4821 -0.6370 -0.2170
 8734SOL     OW28133   3.608   5.947   4.974 -0.0470 -0.3361  0.0673
 8734SOL    HW128134   3.608   5.888   5.050  0.3222 -0.5515 -0.0992
 8734SOL    HW228135   3.645   6.029   5.008  0.0596 -0.4113  0.1338
 8735SOL     OW28136   4.446   5.082   1.242  0.8548  0.0527  0.7278
 8735SOL    HW128137   4.474   5.162   1.286  0.6571  0.0254  0.9008
 8735SOL    HW228138   4.391   5.037   1.306 -0.9428  0.8662 -0.1623
 8736SOL     OW28139   3.805   2.667   2.748  0.4739  0.0666  0.2024
 8736SOL    HW128140   3.729   2.631   2.701  0.4853 -1.5683  1.3533
 8736SOL    HW228141   3.774   2.751   2.782  0.2986  1.0633 -2.1934
 8737SOL     OW28142   2.963   8.209   5.281  0.6859  0.0985  0.0275
 8737SOL    HW128143   2.975   8.250   5.367  1.9376 -1.5776  0.7335
 8737SOL    HW228144   3.039   8.237   5.230  0.5542  0.1674 -0.1317
 8738SOL     OW28145   3.771   0.752   8.534 -0.4360 -0.5148  0.3292
 8738SOL    HW128146   3.820   0.827   8.501 -1.7612  0.1743 -0.1159
 8738SOL    HW228147   3.707   0.732   8.466 -0.4944 -1.6927  0.6967
 8739SOL     OW28148   8.708   2.352   6.597  0.4728 -0.4051  0.2363
 8739SOL    HW128149   8.762   2.277   6.621 -0.9866 -1.2483  0.9877
 8739SOL    HW228150   8.707   2.351   6.501  3.8391  1.1737  0.0424
 8740SOL     OW28151   2.478   4.828   6.725  0.2536  0.5034 -0.0062
 8740SOL    HW128152   2.491   4.769   6.651  0.7735 -1.3459  1.4914
 8740SOL    HW228153   2.422   4.898   6.690 -1.6602 -1.6415 -1.4918
 8741SOL     OW28154   5.817   0.139   3.422  0.3217  0.1211  0.0191
 8741SOL    HW128155   5.814   0.234   3.410  0.8452  0.1859  0.3548
 8741SOL    HW228156   5.862   0.127   3.506 -0.3631 -0.4046  0.3238
 8742SOL     OW28157   5.916   7.650   6.766 -0.0910 -0.2987  0.3046
 8742SOL    HW128158   5.854   7.720   6.745  1.5531  1.1056 -0.1308
 8742SOL    HW228159   5.861   7.574   6.786 -1.9763  1.2677  1.4650
 8743SOL     OW28160   0.507   4.196   3.085 -0.0657 -0.3052 -0.6940
 8743SOL    HW128161   0.427   4.181   3.136  0.9646 -1.3141  0.6713
 8743SOL    HW228162   0.567   4.237   3.147  0.0803  1.6897 -2.0629
 8744SOL     OW28163   6.609   2.497   3.872  0.2291  0.1444 -0.7649
 8744SOL    HW128164   6.609   2.538   3.959  2.9808 -0.6227 -0.3029
 8744SOL    HW228165   6.548   2.425   3.880  1.2787 -0.6324  0.9847
 8745SOL     OW28166   1.562   7.165   6.781  0.0637  0.2199  0.8443
 8745SOL    HW128167   1.646   7.120   6.794 -0.5485 -1.3001 -0.1710
 8745SOL    HW228168   1.580   7.230   6.713  0.4307 -0.0741  0.6563
 8746SOL     OW28169   0.059   2.563   1.539 -0.1206 -0.1455  0.3756
 8746SOL    HW128170   0.042   2.532   1.450 -3.1799  1.2977  0.3283
 8746SOL    HW228171   0.080   2.656   1.529 -0.8842  0.1271  1.1332
 8747SOL     OW28172   0.928   4.377   6.132 -0.1070 -0.0196 -0.3854
 8747SOL    HW128173   0.951   4.293   6.093 -0.3440 -0.5962  0.6999
 8747SOL    HW228174   0.868   4.356   6.203  0.8404  0.9536  0.7363
 8748SOL     OW28175   2.582   7.270   6.070  0.0124  0.6528  0.2572
 8748SOL    HW128176   2.655   7.302   6.123 -0.5248  0.7654  0.9280
 8748SOL    HW228177   2.538   7.349   6.039 -0.8279  0.5946  1.2468
 8749SOL     OW28178   0.139   5.764   6.442 -0.4660 -0.5484 -0.2473
 8749SOL    HW128179   0.174   5.705   6.508  0.0445 -0.2886 -0.2844
 8749SOL    HW228180   0.166   5.852   6.470 -1.8031 -0.2521  0.1745
 8750SOL     OW28181   0.333   2.246   7.445  0.4069  0.1019 -0.3673
 8750SOL    HW128182   0.320   2.179   7.512 -2.6759 -0.0092 -0.9128
 8750SOL    HW228183   0.360   2.324   7.494  0.7278 -0.6467  0.6793
 8751SOL     OW28184   7.585   3.496   8.244 -0.5352  0.2217 -0.7465
 8751SOL    HW128185   7.561   3.420   8.298  0.1511  0.2437 -0.3996
 8751SOL    HW228186   7.526   3.566   8.273 -0.2314  0.2096 -0.0782
 8752SOL     OW28187   3.989   0.977   0.459  0.7337  0.6397 -0.1936
 8752SOL    HW128188   4.037   1.010   0.383  0.0039 -0.3687 -1.1279
 8752SOL    HW228189   3.961   0.889   0.434 -0.4585  0.6988  0.8202
 8753SOL     OW28190   4.416   5.767   6.572 -0.3420  0.0373 -1.1393
 8753SOL    HW128191   4.342   5.706   6.572 -0.1610 -0.3876  2.2266
 8753SOL    HW228192   4.391   5.835   6.633  1.2439  1.0029 -1.5104
 8754SOL     OW28193   5.359   8.352   7.979 -0.6227  0.3453 -0.2664
 8754SOL    HW128194   5.312   8.364   7.897 -0.9093 -0.5135 -0.2438
 8754SOL    HW228195   5.390   8.439   8.003 -3.6992  1.2880  0.6541
 8755SOL     OW28196   2.876   6.354   2.300 -0.4133 -0.4314  0.0072
 8755SOL    HW128197   2.848   6.289   2.235  0.6860 -1.8396  0.8893
 8755SOL    HW228198   2.912   6.425   2.248 -0.7932 -0.9228 -0.9650
 8756SOL     OW28199   3.794   6.037   3.840 -0.4208  0.1825 -0.1231
 8756SOL    HW128200   3.807   6.131   3.848 -2.2819  0.3652  1.1113
 8756SOL    HW228201   3.851   6.011   3.767  0.4807  2.1598 -0.1670
 8757SOL     OW28202   2.365   2.043   1.889 -0.0576  0.0961  1.0920
 8757SOL    HW128203   2.448   2.037   1.840 -1.0555 -0.9436 -0.5744
 8757SOL    HW228204   2.387   2.011   1.976  0.8105 -2.6343 -0.0162
 8758SOL     OW28205   5.901   2.245   1.568  0.4623 -0.6941 -0.1822
 8758SOL    HW128206   5.965   2.304   1.527 -1.1223  0.3636 -1.2125
 8758SOL    HW228207   5.880   2.287   1.651 -1.2979  0.6993 -1.2875
 8759SOL     OW28208   4.495   3.084   3.013 -0.0546 -0.1749  0.2967
 8759SOL    HW128209   4.428   3.020   2.986 -1.0662  0.4820  1.1806
 8759SOL    HW228210   4.475   3.161   2.960  0.1963 -0.0696  0.3585
 8760SOL     OW28211   6.219   5.533   1.035  0.2032 -0.3435 -0.2848
 8760SOL    HW128212   6.299   5.575   1.067 -0.3083 -0.4233  1.1700
 8760SOL    HW228213   6.238   5.512   0.944  1.9176 -0.5310  0.0830
 8761SOL     OW28214   3.296   2.208   6.023 -0.1873 -0.1581 -0.6122
 8761SOL    HW128215   3.379   2.172   5.993 -0.2167 -1.0779  0.3259
 8761SOL    HW228216   3.298   2.300   5.998  0.9952 -0.2343 -0.8389
 8762SOL     OW28217   2.704   6.899   5.213 -0.5419 -0.2189  0.3556
 8762SOL    HW128218   2.663   6.983   5.232 -2.2363 -0.6901 -0.9630
 8762SOL    HW228219   2.798   6.915   5.226 -0.3977  2.8039 -2.8354
 8763SOL     OW28220   6.724   7.797   1.534  0.6598  0.5065  1.1553
 8763SOL    HW128221   6.744   7.741   1.609  1.2878  0.9272  1.3110
 8763SOL    HW228222   6.783   7.872   1.544 -1.8654  2.5292  2.4017
 8764SOL     OW28223   8.206   2.753   6.931  0.6579 -0.0519 -0.2848
 8764SOL    HW128224   8.178   2.662   6.932  0.2136  0.0820  1.0365
 8764SOL    HW228225   8.275   2.758   6.998  2.1906  0.1486 -1.7955
 8765SOL     OW28226   5.394   0.404   6.280  0.0778  0.2094  0.6692
 8765SOL    HW128227   5.328   0.407   6.349 -1.7583 -1.1231 -0.9332
 8765SOL    HW228228   5.346   0.382   6.200  2.6325 -2.7546 -0.2939
 8766SOL     OW28229   0.685   3.877   4.907 -0.2866  0.0622 -0.9056
 8766SOL    HW128230   0.594   3.897   4.886 -1.0365 -1.7653  0.4288
 8766SOL    HW228231   0.682   3.795   4.956  1.8883  1.0197  1.0254
 8767SOL     OW28232   0.766   7.874   2.736  0.2272 -0.0117 -0.1185
 8767SOL    HW128233   0.691   7.827   2.702  0.4654 -1.3222  1.0977
 8767SOL    HW228234   0.795   7.930   2.663 -3.5469  2.7078  0.1703
 8768SOL     OW28235   0.931   7.470   8.327  0.0884  0.0993  0.1358
 8768SOL    HW128236   1.018   7.446   8.296 -0.0619 -0.8885  0.4625
 8768SOL    HW228237   0.947   7.524   8.405  0.4303  1.4436 -0.8333
 8769SOL     OW28238   6.148   0.237   8.230  0.7212  0.0417  0.4801
 8769SOL    HW128239   6.226   0.289   8.210  0.6005 -0.5308 -1.6706
 8769SOL    HW228240   6.179   0.147   8.231 -0.2474 -0.4330 -2.8243
 8770SOL     OW28241   5.507   4.784   3.837 -0.4496 -0.6021  0.4988
 8770SOL    HW128242   5.444   4.712   3.824 -1.6125  0.2651  1.1263
 8770SOL    HW228243   5.530   4.779   3.930 -0.5063 -0.1962  0.5365
 8771SOL     OW28244   0.434   5.054   6.670 -0.3667 -0.0968  0.0879
 8771SOL    HW128245   0.518   5.060   6.715 -0.9575  0.5051  1.1355
 8771SOL    HW228246   0.409   4.962   6.677 -1.0292  0.1962  2.1193
 8772SOL     OW28247   0.396   4.503   2.475  0.1168 -0.1551 -0.0907
 8772SOL    HW128248   0.490   4.513   2.490  0.2161 -0.5847 -0.4221
 8772SOL    HW228249   0.387   4.419   2.432 -0.3470  0.2407 -0.7846
 8773SOL     OW28250   6.599   5.893   5.122 -0.0702 -0.0823 -0.3464
 8773SOL    HW128251   6.506   5.908   5.106 -0.1420 -0.3677 -0.2104
 8773SOL    HW228252   6.618   5.937   5.205 -0.0354  0.1504 -0.4769
 8774SOL     OW28253   4.223   3.110   7.980  0.2827  0.3905 -0.2019
 8774SOL    HW128254   4.218   3.071   7.893  0.7008 -0.1548  0.0177
 8774SOL    HW228255   4.210   3.037   8.040  1.0872  0.5732  0.2091
 8775SOL     OW28256   8.132   3.634   3.196 -0.3145 -0.1701 -0.3164
 8775SOL    HW128257   8.142   3.542   3.173 -2.0785 -0.6873  0.7658
 8775SOL    HW228258   8.173   3.682   3.123  1.2845 -1.7770 -0.5456
 8776SOL     OW28259   5.336   0.467   0.426 -0.7261 -0.5577  0.1990
 8776SOL    HW128260   5.423   0.468   0.466 -0.0900 -1.0758 -1.1392
 8776SOL    HW228261   5.283   0.523   0.484  0.7233  0.5733  0.4985
 8777SOL     OW28262   0.791   3.384   2.668 -0.2646  0.1660  0.5002
 8777SOL    HW128263   0.773   3.437   2.746 -1.4247  0.1752  0.2433
 8777SOL    HW228264   0.785   3.445   2.595  1.8811  0.3827  0.4490
 8778SOL     OW28265   7.342   5.815   7.323 -0.7061  0.2543  0.0096
 8778SOL    HW128266   7.360   5.886   7.260  0.9685 -0.0119  0.1304
 8778SOL    HW228267   7.365   5.735   7.275  2.2033  0.1343  1.3918
 8779SOL     OW28268   2.872   5.349   1.666  1.0667 -0.1054  0.1148
 8779SOL    HW128269   2.816   5.329   1.591 -0.0728 -0.5902  1.0594
 8779SOL    HW228270   2.902   5.264   1.696 -0.7143 -0.2082  1.8350
 8780SOL     OW28271   5.666   0.763   1.035  0.2727 -0.2943  0.5063
 8780SOL    HW128272   5.669   0.720   1.120  0.6346  1.5899  1.4943
 8780SOL    HW228273   5.592   0.823   1.041 -0.1179 -0.6042 -0.7836
 8781SOL     OW28274   3.727   0.412   0.419  0.2817 -0.1693  0.3945
 8781SOL    HW128275   3.770   0.448   0.497 -0.8380  0.8627  0.5544
 8781SOL    HW228276   3.648   0.465   0.409 -2.0190 -3.1892  1.2173
 8782SOL     OW28277   4.727   4.354   2.465  0.5789 -0.1292 -0.1534
 8782SOL    HW128278   4.726   4.321   2.555 -0.5463 -1.3248 -0.5759
 8782SOL    HW228279   4.751   4.447   2.473 -1.2035  0.2470  1.5432
 8783SOL     OW28280   6.115   7.123   4.378  0.0183  0.0531 -0.5021
 8783SOL    HW128281   6.027   7.145   4.346 -1.1004 -1.4230  1.3014
 8783SOL    HW228282   6.124   7.171   4.460 -0.0595 -1.5013  0.4577
 8784SOL     OW28283   6.989   6.067   2.317  0.6805 -0.1358  0.0166
 8784SOL    HW128284   7.047   6.000   2.355  1.6704  0.1313 -0.9687
 8784SOL    HW228285   6.993   6.139   2.379  1.2109 -0.2228  0.0942
 8785SOL     OW28286   8.528   0.224   1.377  0.1419 -0.0182  0.0298
 8785SOL    HW128287   8.601   0.242   1.436  0.7456 -1.7530 -0.1023
 8785SOL    HW228288   8.568   0.176   1.304 -0.9269  0.2123 -0.7348
 8786SOL     OW28289   2.714   6.803   7.205 -0.1032 -0.4800  0.3437
 8786SOL    HW128290   2.784   6.762   7.257 -1.4210  0.7102  3.2566
 8786SOL    HW228291   2.634   6.784   7.253 -1.3209  1.4682 -0.7971
 8787SOL     OW28292   4.164   5.838   5.767 -0.3727  0.3173 -0.5766
 8787SOL    HW128293   4.139   5.898   5.838  0.4322  0.8493 -0.7337
 8787SOL    HW228294   4.161   5.751   5.807 -1.5567  0.4442 -0.3463
 8788SOL     OW28295   2.399   8.820   2.811 -0.1361  0.0291  0.4695
 8788SOL    HW128296   2.405   8.895   2.753 -2.0804 -0.8103 -0.9107
 8788SOL    HW228297   2.342   8.849   2.883  0.0427  0.2121  0.5389
 8789SOL     OW28298   6.643   4.510   0.933 -0.4882 -0.3121  0.0713
 8789SOL    HW128299   6.720   4.479   0.885  0.5235 -1.6518  2.3781
 8789SOL    HW228300   6.588   4.431   0.943 -1.5351  0.3330 -0.3616
 8790SOL     OW28301   0.476   0.666   6.792 -0.5806  0.0201 -0.0898
 8790SOL    HW128302   0.405   0.713   6.748  0.1716  0.9316 -0.3643
 8790SOL    HW228303   0.555   0.717   6.771  0.3124 -1.5353 -0.6530
 8791SOL     OW28304   4.248   3.069   0.229 -0.5366  0.1159  0.1017
 8791SOL    HW128305   4.338   3.055   0.261 -1.0450 -2.0832  0.7567
 8791SOL    HW228306   4.247   3.160   0.200  1.4581  0.6844  1.5691
 8792SOL     OW28307   3.978   4.588   6.136 -0.2055 -0.5217 -0.4186
 8792SOL    HW128308   4.045   4.633   6.085  1.0188 -3.4532 -1.6184
 8792SOL    HW228309   3.901   4.645   6.130  0.7234  0.6079 -3.1613
 8793SOL     OW28310   5.246   7.152   4.632  0.7985 -0.0023  0.4355
 8793SOL    HW128311   5.278   7.131   4.720  0.9073  0.7080  0.5685
 8793SOL    HW228312   5.312   7.210   4.595 -0.3769  1.6228  0.7849
 8794SOL     OW28313   8.602   2.267   4.746  0.0554 -0.3614 -0.8032
 8794SOL    HW128314   8.543   2.201   4.711  0.8807 -1.1163 -0.8182
 8794SOL    HW228315   8.582   2.270   4.840 -0.1675 -0.4472 -0.8473
 8795SOL     OW28316   8.577   0.519   7.409  0.4074  0.5264 -0.2700
 8795SOL    HW128317   8.588   0.428   7.434 -0.4976  0.3831 -0.3667
 8795SOL    HW228318   8.574   0.519   7.313 -2.4074  0.2680 -0.2610
 8796SOL     OW28319   5.533   4.313   6.091  0.3121  0.7624 -0.1328
 8796SOL    HW128320   5.515   4.405   6.113  1.1067  0.7181  0.7537
 8796SOL    HW228321   5.454   4.283   6.047 -0.5267  1.4628  0.8508
 8797SOL     OW28322   1.660   8.798   8.424  0.1903  0.2899  0.4316
 8797SOL    HW128323   1.729   8.803   8.490  2.3070 -4.3423 -1.0138
 8797SOL    HW228324   1.584   8.764   8.472  0.8284 -0.3530  1.0146
 8798SOL     OW28325   1.603   3.025   4.747 -0.2498 -0.0481 -0.3374
 8798SOL    HW128326   1.526   3.029   4.804 -1.0170  0.6241 -1.3674
 8798SOL    HW228327   1.654   3.102   4.770 -0.0353 -0.3191  0.1201
 8799SOL     OW28328   0.352   1.685   6.981 -0.5274 -0.2520 -0.4807
 8799SOL    HW128329   0.323   1.649   6.897 -0.7987 -0.3860 -0.3346
 8799SOL    HW228330   0.317   1.624   7.046 -1.5367  0.6037 -0.1893
 8800SOL     OW28331   7.757   6.394   4.856  0.0381 -0.2446  0.0720
 8800SOL    HW128332   7.728   6.323   4.913  2.0338  0.0793  1.6081
 8800SOL    HW228333   7.715   6.376   4.772  0.2150 -3.0634  0.4756
 8801SOL     OW28334   4.839   5.936   4.085  0.0721  0.5607 -0.1135
 8801SOL    HW128335   4.904   5.890   4.137 -1.4272 -0.0484  1.3162
 8801SOL    HW228336   4.880   6.019   4.063  1.9033 -0.4265 -0.6306
 8802SOL     OW28337   6.975   5.387   1.907  0.2004  0.1134 -0.1564
 8802SOL    HW128338   7.033   5.445   1.957 -1.6693  1.4671  0.5391
 8802SOL    HW228339   6.960   5.434   1.825 -1.4357  0.7615  0.4669
 8803SOL     OW28340   4.433   1.897   2.417  0.3643  0.6090 -0.0195
 8803SOL    HW128341   4.368   1.832   2.390  0.7760  0.0916  0.2146
 8803SOL    HW228342   4.390   1.944   2.488  1.1621 -1.4779  1.9720
 8804SOL     OW28343   2.103   4.699   7.364  0.8132 -0.5844  0.2145
 8804SOL    HW128344   2.183   4.702   7.417 -0.0485 -1.1007  1.5851
 8804SOL    HW228345   2.075   4.607   7.369  0.1141 -0.4011 -0.2286
 8805SOL     OW28346   0.990   5.706   2.109  0.0243 -0.0981  0.1104
 8805SOL    HW128347   1.014   5.651   2.035  0.7750  0.6625 -0.2355
 8805SOL    HW228348   0.912   5.752   2.080 -0.4096 -0.7198  0.2746
 8806SOL     OW28349   6.920   8.817   3.996  0.0933 -0.2958  0.3850
 8806SOL    HW128350   6.909   8.723   4.014  0.9627 -0.3065  0.8870
 8806SOL    HW228351   7.010   8.837   4.023  0.4781  0.3319 -1.2273
 8807SOL     OW28352   2.175   1.917   5.866  0.5510  0.0662 -0.2130
 8807SOL    HW128353   2.252   1.919   5.810  1.6045  0.3075  1.1812
 8807SOL    HW228354   2.130   2.000   5.849  0.3961 -0.2206 -1.2683
 8808SOL     OW28355   7.060   3.161   4.842 -0.1401 -0.2152 -0.3033
 8808SOL    HW128356   7.105   3.148   4.926 -0.7292 -2.3226 -0.2646
 8808SOL    HW228357   7.130   3.159   4.777  0.0916 -0.8430 -0.0411
 8809SOL     OW28358   1.623   0.169   0.635 -0.1041 -0.0764 -0.5337
 8809SOL    HW128359   1.654   0.252   0.671 -0.3272  0.9329 -2.5141
 8809SOL    HW228360   1.650   0.171   0.543  0.6564 -2.6145 -0.4285
 8810SOL     OW28361   5.171   6.951   2.956  0.4323  0.0762 -0.1552
 8810SOL    HW128362   5.242   6.985   3.009  0.7490  0.7422 -0.9875
 8810SOL    HW228363   5.099   6.937   3.018  1.2497 -0.5289  0.6748
 8811SOL     OW28364   2.984   7.747   0.536  0.4765  1.2387 -0.0526
 8811SOL    HW128365   2.973   7.800   0.458  1.8357 -1.5646 -2.3278
 8811SOL    HW228366   3.078   7.749   0.554  0.6323 -0.5821 -0.4467
 8812SOL     OW28367   7.460   5.124   7.497  0.3471 -0.2961 -0.1512
 8812SOL    HW128368   7.535   5.073   7.527 -0.4911 -0.1058  2.6026
 8812SOL    HW228369   7.385   5.066   7.509 -0.4766  1.0530  1.9388
 8813SOL     OW28370   6.772   3.047   6.319 -0.1194 -0.6989 -0.0727
 8813SOL    HW128371   6.699   3.011   6.369 -0.5756  1.1231  0.6588
 8813SOL    HW228372   6.815   3.107   6.379  1.2794 -0.8434 -0.8832
 8814SOL     OW28373   7.498   3.994   6.320  0.7173 -0.2241 -0.1089
 8814SOL    HW128374   7.483   3.969   6.229 -2.0236  0.1634  0.1720
 8814SOL    HW228375   7.435   3.943   6.370  1.2880  0.5296  1.4437
 8815SOL     OW28376   1.061   4.368   7.114 -0.6367 -0.1951 -0.5809
 8815SOL    HW128377   1.124   4.302   7.144 -1.9308 -1.0447  0.3737
 8815SOL    HW228378   1.090   4.391   7.026  0.5465 -1.1436 -0.4610
 8816SOL     OW28379   1.769   5.432   5.675  0.2954 -0.0734  0.2357
 8816SOL    HW128380   1.798   5.480   5.752 -0.9253  1.4296 -0.1866
 8816SOL    HW228381   1.676   5.455   5.666  0.2798 -0.6252 -1.3789
 8817SOL     OW28382   5.203   3.666   4.799  0.0948 -0.2547  0.0790
 8817SOL    HW128383   5.258   3.591   4.772 -1.0988 -1.5477  1.1017
 8817SOL    HW228384   5.250   3.705   4.872  1.2001  0.6129 -1.0598
 8818SOL     OW28385   0.558   5.888   4.233  0.1360 -0.4262 -0.2606
 8818SOL    HW128386   0.631   5.851   4.183  0.9370 -0.3868  0.8584
 8818SOL    HW228387   0.558   5.981   4.210  0.8156 -0.3107  0.1709
 8819SOL     OW28388   5.569   5.381   5.177  0.3881  0.1990  0.1711
 8819SOL    HW128389   5.650   5.369   5.126  0.0763  0.0330 -0.2967
 8819SOL    HW228390   5.596   5.370   5.268  0.6150 -1.5452 -0.0681
 8820SOL     OW28391   7.460   7.426   7.295  0.2123  0.9696 -0.3136
 8820SOL    HW128392   7.457   7.374   7.375  1.4978  0.0842 -0.8063
 8820SOL    HW228393   7.553   7.447   7.283 -0.1229  2.2848 -0.8329
 8821SOL     OW28394   5.413   3.491   4.772  0.4430  0.1419 -0.2270
 8821SOL    HW128395   5.462   3.453   4.845 -0.0811  1.2754  0.7492
 8821SOL    HW228396   5.479   3.510   4.706  0.7161 -2.6514 -0.9124
 8822SOL     OW28397   6.439   5.959   6.512  0.0791 -0.3959  0.1228
 8822SOL    HW128398   6.444   5.873   6.553  0.4459 -0.3124  0.2529
 8822SOL    HW228399   6.479   5.946   6.426  1.7194  0.0372  0.7862
 8823SOL     OW28400   0.462   4.345   6.789  0.1126  0.1148 -0.8437
 8823SOL    HW128401   0.439   4.287   6.716  1.3016 -1.3603 -0.1187
 8823SOL    HW228402   0.557   4.354   6.783 -0.0347  1.9052 -0.8333
 8824SOL     OW28403   1.065   8.720   2.628  0.2945 -0.1032  0.0396
 8824SOL    HW128404   1.135   8.759   2.577  1.7833  0.0450  2.0999
 8824SOL    HW228405   0.995   8.705   2.564  1.5509  1.2559 -1.7611
 8825SOL     OW28406   5.397   0.401   3.711  0.6578 -0.2281 -0.4783
 8825SOL    HW128407   5.389   0.309   3.735  0.9985 -0.0355  0.3868
 8825SOL    HW228408   5.402   0.400   3.615  1.9136 -1.2099 -0.4273
 8826SOL     OW28409   3.280   8.736   7.326 -0.3466  0.5226 -0.3184
 8826SOL    HW128410   3.299   8.816   7.375  1.0692  1.1222 -1.7357
 8826SOL    HW228411   3.200   8.701   7.366  0.8027  0.8679  2.4516
 8827SOL     OW28412   2.639   0.515   5.757  0.5849  0.6433  0.3025
 8827SOL    HW128413   2.703   0.497   5.688 -1.1028  2.2982 -1.8443
 8827SOL    HW228414   2.587   0.588   5.723 -1.3709  0.4827  2.6673
 8828SOL     OW28415   2.838   4.470   5.131  0.3002 -0.3797  0.0119
 8828SOL    HW128416   2.828   4.447   5.224  1.1486  0.8799  0.4386
 8828SOL    HW228417   2.930   4.453   5.112  0.1617 -0.4856 -0.5745
 8829SOL     OW28418   7.226   3.638   8.123 -0.0009  0.5017 -0.0702
 8829SOL    HW128419   7.316   3.608   8.141  0.0216  1.0488  0.7873
 8829SOL    HW228420   7.212   3.617   8.031  0.8177 -0.0875 -0.0756
 8830SOL     OW28421   1.636   2.210   6.955  0.7073  0.5690  0.0574
 8830SOL    HW128422   1.633   2.195   6.861  0.6136  0.0326  0.1444
 8830SOL    HW228423   1.616   2.303   6.965  0.1084  0.4948 -0.4138
 8831SOL     OW28424   4.560   5.708   8.619  0.3796 -0.2881 -0.1456
 8831SOL    HW128425   4.504   5.669   8.551 -1.2411  0.6237  0.5982
 8831SOL    HW228426   4.586   5.634   8.674  1.0939 -0.9270 -1.3242
 8832SOL     OW28427   0.601   0.378   2.274  0.3802  0.4546  0.0683
 8832SOL    HW128428   0.595   0.459   2.325 -0.4332  0.4417  0.0034
 8832SOL    HW228429   0.537   0.389   2.204 -0.1689 -0.5024  0.4123
 8833SOL     OW28430   3.165   7.363   7.268  0.4379  0.2008  0.1556
 8833SOL    HW128431   3.213   7.318   7.199 -0.0907 -0.3825  0.1648
 8833SOL    HW228432   3.189   7.455   7.258  1.7515 -0.1130  0.3222
 8834SOL     OW28433   7.310   8.113   4.916  0.6689 -0.0349  0.1593
 8834SOL    HW128434   7.332   8.085   4.827 -1.7249  2.8354 -1.5365
 8834SOL    HW228435   7.362   8.192   4.929 -0.1522  0.4507  0.6036
 8835SOL     OW28436   7.432   3.743   8.388  0.2676 -0.1425  0.4155
 8835SOL    HW128437   7.443   3.834   8.361  0.3192  0.5556  2.5737
 8835SOL    HW228438   7.374   3.748   8.464  0.0351 -1.9504  0.3880
 8836SOL     OW28439   3.439   7.108   1.686  0.4123 -0.3053  0.2157
 8836SOL    HW128440   3.530   7.096   1.658  0.0386  0.6055 -1.5859
 8836SOL    HW228441   3.444   7.170   1.759  1.2774 -0.6097  0.4223
 8837SOL     OW28442   3.108   5.935   8.427 -0.0167 -0.8273 -0.2454
 8837SOL    HW128443   3.111   5.974   8.339 -0.0902 -2.1156 -0.8442
 8837SOL    HW228444   3.173   5.984   8.477 -1.0881  1.0203 -0.5305
 8838SOL     OW28445   3.066   6.715   4.702 -0.2166  0.7668  0.4265
 8838SOL    HW128446   3.078   6.809   4.686  2.7241  0.5710  0.7858
 8838SOL    HW228447   3.146   6.675   4.667 -1.5875 -1.6943 -0.1353
 8839SOL     OW28448   7.316   7.764   0.503 -0.6532  0.0875  0.4932
 8839SOL    HW128449   7.230   7.795   0.474 -1.3875 -3.4898 -1.7343
 8839SOL    HW228450   7.298   7.717   0.585 -1.3324 -2.4191 -0.9988
 8840SOL     OW28451   3.076   8.061   5.053 -1.3130  0.0923 -0.3536
 8840SOL    HW128452   3.051   8.146   5.020 -2.0573 -0.4183 -1.1325
 8840SOL    HW228453   3.021   7.999   5.006 -1.0946 -0.7933  0.5129
 8841SOL     OW28454   5.480   2.430   5.690 -0.7103  0.1431  0.1463
 8841SOL    HW128455   5.444   2.437   5.602 -1.8000 -1.9174  0.3724
 8841SOL    HW228456   5.414   2.471   5.747 -0.5418  0.4346  0.1373
 8842SOL     OW28457   3.076   8.653   8.859  0.1119 -0.3168  0.1919
 8842SOL    HW128458   3.081   8.716   8.931  0.3713 -0.4358  0.2776
 8842SOL    HW228459   2.990   8.612   8.869 -1.1364  1.7336 -1.2976
 8843SOL     OW28460   4.512   3.727   0.232 -0.3238  0.3935  0.0551
 8843SOL    HW128461   4.601   3.741   0.266 -0.5844 -0.6979  1.2515
 8843SOL    HW228462   4.502   3.632   0.230 -1.0542  0.4789 -1.2164
 8844SOL     OW28463   8.020   1.630   0.735  0.1817  0.7570 -0.2480
 8844SOL    HW128464   7.945   1.651   0.791 -0.4786 -2.2181  0.1129
 8844SOL    HW228465   8.005   1.681   0.655 -0.9620  2.0076  0.7182
 8845SOL     OW28466   6.713   4.408   6.388 -0.0658  0.2438  0.1090
 8845SOL    HW128467   6.643   4.456   6.432  0.2377  0.0134  0.8525
 8845SOL    HW228468   6.784   4.405   6.452 -0.1599 -1.4058  0.1676
 8846SOL     OW28469   5.947   6.761   8.179  0.1968 -0.1091  0.5741
 8846SOL    HW128470   5.936   6.846   8.222 -0.2099 -0.6012  1.4844
 8846SOL    HW228471   5.866   6.714   8.198 -0.0985 -0.2632 -0.9697
 8847SOL     OW28472   7.524   6.222   4.932  0.3560  0.2031 -0.0221
 8847SOL    HW128473   7.478   6.281   4.874  1.6074  1.2607  0.0199
 8847SOL    HW228474   7.471   6.142   4.933 -0.9600  1.0436 -0.6704
 8848SOL     OW28475   2.416   1.535   5.508  0.3466 -0.0518  0.2395
 8848SOL    HW128476   2.365   1.474   5.561  0.9788 -1.1970 -0.4455
 8848SOL    HW228477   2.507   1.511   5.523  0.5930  0.5084 -0.2929
 8849SOL     OW28478   8.545   7.082   5.727  0.1993 -0.2803  0.4864
 8849SOL    HW128479   8.529   7.172   5.699  0.9350  0.7223  2.9677
 8849SOL    HW228480   8.464   7.036   5.708  0.1205  0.6497 -1.6692
 8850SOL     OW28481   4.198   0.975   7.358  0.5372  0.0969 -0.1231
 8850SOL    HW128482   4.109   1.010   7.362 -0.1262 -1.4357 -0.7831
 8850SOL    HW228483   4.199   0.921   7.280  1.7675 -0.6878  0.4112
 8851SOL     OW28484   8.427   5.427   4.210 -0.0684 -0.9526 -0.4014
 8851SOL    HW128485   8.401   5.519   4.215  0.1187 -0.8812 -0.7472
 8851SOL    HW228486   8.501   5.420   4.271 -0.1740 -0.9077 -0.2667
 8852SOL     OW28487   2.699   3.767   0.790 -0.2561 -0.0081  0.3721
 8852SOL    HW128488   2.609   3.737   0.797  0.1101 -0.9248  1.5051
 8852SOL    HW228489   2.713   3.820   0.868  0.2243 -0.0052  0.2911
 8853SOL     OW28490   7.059   8.154   1.605 -0.1091 -0.3253  0.0954
 8853SOL    HW128491   7.003   8.186   1.676 -0.6032  0.6677 -0.7252
 8853SOL    HW228492   7.048   8.218   1.535 -1.5894 -2.5711 -1.8513
 8854SOL     OW28493   8.370   1.347   2.411  0.4009 -0.0262 -0.4884
 8854SOL    HW128494   8.326   1.432   2.408 -0.1728 -0.3322 -2.5002
 8854SOL    HW228495   8.409   1.337   2.324  0.4806 -1.7996 -0.2945
 8855SOL     OW28496   0.901   7.143   0.462  0.4397 -0.8838 -0.1136
 8855SOL    HW128497   0.806   7.140   0.473  0.4427 -0.5462 -0.0084
 8855SOL    HW228498   0.926   7.230   0.490  0.3849  0.2759 -3.2782
 8856SOL     OW28499   8.263   5.348   1.088 -0.7061 -0.5621 -0.4654
 8856SOL    HW128500   8.319   5.308   1.021  0.2610 -0.9033  0.5211
 8856SOL    HW228501   8.255   5.282   1.156  0.9495  0.8729  1.2204
 8857SOL     OW28502   1.413   6.574   2.109  0.0798 -0.3689 -0.2400
 8857SOL    HW128503   1.453   6.586   2.195 -0.5482  2.4175 -0.2425
 8857SOL    HW228504   1.339   6.634   2.108 -2.3088 -3.0968 -1.3916
 8858SOL     OW28505   3.396   8.731   3.405  0.2960 -0.4893  0.1382
 8858SOL    HW128506   3.427   8.716   3.494 -0.1249  0.2892  0.4232
 8858SOL    HW228507   3.453   8.677   3.350  0.7263 -0.7677  0.8493
 8859SOL     OW28508   7.591   5.895   5.000  0.2920 -0.6210 -0.1540
 8859SOL    HW128509   7.611   5.884   5.093  1.7216  0.0956 -0.3519
 8859SOL    HW228510   7.611   5.987   4.982 -0.0322 -0.7365 -1.1544
 8860SOL     OW28511   4.312   8.130   4.228  0.2418 -0.1962 -0.4891
 8860SOL    HW128512   4.284   8.141   4.319  0.3023 -0.4215 -0.4425
 8860SOL    HW228513   4.408   8.124   4.233  0.1938 -1.1895 -0.4622
 8861SOL     OW28514   8.600   7.481   5.505  0.3756 -0.3187  0.5600
 8861SOL    HW128515   8.586   7.426   5.428 -0.2135 -0.3593  0.6953
 8861SOL    HW228516   8.636   7.562   5.469  0.0807 -0.3282  0.2359
 8862SOL     OW28517   3.560   1.020   0.760 -0.0845 -0.2772  0.2554
 8862SOL    HW128518   3.599   1.107   0.773  0.4826 -0.2801 -1.2399
 8862SOL    HW228519   3.483   1.037   0.704  2.4700 -1.0880 -3.9520
 8863SOL     OW28520   5.959   6.851   7.634 -0.2589 -0.2382 -0.2153
 8863SOL    HW128521   5.925   6.895   7.556 -3.8896 -0.3393  1.1569
 8863SOL    HW228522   5.913   6.768   7.637  0.4967 -0.6287  1.5539
 8864SOL     OW28523   3.106   1.191   2.072  0.2962  0.0496 -0.2826
 8864SOL    HW128524   3.160   1.263   2.039  0.3892 -0.6218 -1.6992
 8864SOL    HW228525   3.085   1.215   2.162  0.8401  1.5359 -0.5308
 8865SOL     OW28526   1.913   8.261   8.136 -0.2410 -0.4299 -0.7768
 8865SOL    HW128527   1.940   8.346   8.101 -0.5116  0.0526  0.1568
 8865SOL    HW228528   1.943   8.263   8.227 -1.1672 -0.9139 -0.4592
 8866SOL     OW28529   1.657   6.818   1.686 -0.1765 -0.2281  0.2732
 8866SOL    HW128530   1.617   6.902   1.668  0.9798  0.2926  0.0524
 8866SOL    HW228531   1.695   6.828   1.774 -0.6228 -0.7456  0.5283
 8867SOL     OW28532   4.301   8.766   4.634  0.1596  0.2128  0.5649
 8867SOL    HW128533   4.389   8.729   4.629  0.7436  1.5392  0.5931
 8867SOL    HW228534   4.296   8.825   4.559 -0.8178 -0.0788  0.3945
 8868SOL     OW28535   1.299   3.603   6.669 -0.9047  0.2608 -0.3850
 8868SOL    HW128536   1.244   3.657   6.725 -0.2450 -0.1828  0.7207
 8868SOL    HW228537   1.344   3.544   6.729  0.6689  0.5110 -1.2597
 8869SOL     OW28538   0.248   3.382   6.466 -0.1877  0.1040  0.7489
 8869SOL    HW128539   0.202   3.426   6.395  1.3411  0.8318  0.1617
 8869SOL    HW228540   0.197   3.303   6.482  0.4613 -1.1616 -2.5519
 8870SOL     OW28541   4.211   0.013   7.527 -0.2234 -0.0652 -0.4615
 8870SOL    HW128542   4.302  -0.006   7.508  0.2688  1.4268  0.2260
 8870SOL    HW228543   4.213   0.096   7.574 -1.9331 -0.0339 -0.3641
 8871SOL     OW28544   6.286   7.741   7.242 -0.1747 -0.4975  0.0120
 8871SOL    HW128545   6.261   7.716   7.331 -0.1260  1.7469  0.7206
 8871SOL    HW228546   6.212   7.791   7.209 -0.1666 -1.2578 -1.2173
 8872SOL     OW28547   3.526   0.905   2.795  0.0161  0.2049 -0.3926
 8872SOL    HW128548   3.596   0.860   2.748 -0.5940 -0.2938 -0.8431
 8872SOL    HW228549   3.551   0.997   2.794  0.1422  0.1730 -1.4947
 8873SOL     OW28550   2.706   0.587   2.933  0.3055 -0.1877 -0.4299
 8873SOL    HW128551   2.792   0.555   2.906  0.6581  0.2793  0.0987
 8873SOL    HW228552   2.698   0.561   3.025  0.0770  0.1659 -0.3445
 8874SOL     OW28553   6.608   6.288   1.607  0.0219 -0.0885  0.1644
 8874SOL    HW128554   6.648   6.259   1.689  0.1968 -0.9109 -0.2061
 8874SOL    HW228555   6.527   6.237   1.601 -0.2498  0.3433  0.0676
 8875SOL     OW28556   6.128   0.360   3.581  0.0947  0.2745  0.1673
 8875SOL    HW128557   6.192   0.410   3.631  0.0848 -0.6527  1.1218
 8875SOL    HW228558   6.044   0.399   3.604 -0.0242 -0.8532  1.7709
 8876SOL     OW28559   4.031   1.806   4.059  0.4428  0.4578 -0.1443
 8876SOL    HW128560   3.998   1.886   4.100 -1.3492  0.3079 -1.1615
 8876SOL    HW228561   4.110   1.833   4.012  0.8911  1.2189  1.0010
 8877SOL     OW28562   4.632   1.069   4.444 -0.1729  0.1494  0.1562
 8877SOL    HW128563   4.705   1.033   4.494  0.7269 -0.1701 -1.3133
 8877SOL    HW228564   4.591   1.132   4.503  2.3965  1.7100  0.4569
 8878SOL     OW28565   5.439   0.031   8.075 -0.4113  0.0780  0.0348
 8878SOL    HW128566   5.397   0.096   8.019 -0.4423  0.4256  0.4636
 8878SOL    HW228567   5.533   0.046   8.063 -0.4199  0.6154  0.6124
 8879SOL     OW28568   4.998   4.853   0.645 -0.3418 -0.3551  0.1520
 8879SOL    HW128569   4.932   4.783   0.644 -1.0664  0.2852  1.3958
 8879SOL    HW228570   5.021   4.866   0.553  0.7263 -3.0670 -0.0622
 8880SOL     OW28571   6.570   8.044   3.721  0.6765 -0.7030 -0.0238
 8880SOL    HW128572   6.558   8.073   3.811  0.8020  0.5235 -0.3810
 8880SOL    HW228573   6.562   7.948   3.725 -0.6402 -0.5822  1.0697
 8881SOL     OW28574   1.802   0.909   1.433 -0.0411 -0.2133  0.0876
 8881SOL    HW128575   1.873   0.931   1.373  0.8197  0.9616  1.4826
 8881SOL    HW228576   1.730   0.882   1.375  0.3872  1.8823 -1.5656
 8882SOL     OW28577   3.458   4.295   6.293  0.2143 -0.6497 -0.0278
 8882SOL    HW128578   3.398   4.351   6.342  0.4381 -1.1211  0.8106
 8882SOL    HW228579   3.531   4.351   6.270  0.5420 -0.6362  0.9975
 8883SOL     OW28580   6.214   6.530   5.129  0.0507  0.0365 -0.5718
 8883SOL    HW128581   6.120   6.521   5.145 -0.0063  0.4588 -0.6712
 8883SOL    HW228582   6.224   6.522   5.034  0.1417 -0.2174 -0.5429
 8884SOL     OW28583   1.918   7.306   5.293 -0.1108  0.0595  0.0216
 8884SOL    HW128584   1.859   7.379   5.277  0.2587  0.1663 -0.8752
 8884SOL    HW228585   1.998   7.347   5.326 -0.6281 -0.1078  1.5614
 8885SOL     OW28586   0.602   1.422   0.923  0.3508 -0.4572 -0.0050
 8885SOL    HW128587   0.531   1.428   0.987  0.4674  1.3487 -0.0123
 8885SOL    HW228588   0.591   1.335   0.884 -1.4633 -0.4630  0.4343
 8886SOL     OW28589   2.079   1.043   5.690 -0.6545  0.6535 -0.7033
 8886SOL    HW128590   2.077   0.962   5.741 -2.1725  2.0374  1.5798
 8886SOL    HW228591   2.092   1.013   5.599  2.2601 -1.9054  0.3637
 8887SOL     OW28592   1.331   5.578   5.790 -0.5371 -0.3787 -0.7312
 8887SOL    HW128593   1.266   5.623   5.844  0.7955 -1.0820  1.6198
 8887SOL    HW228594   1.291   5.493   5.771 -0.7648 -0.3915 -0.2287
 8888SOL     OW28595   5.403   7.428   4.247  0.0902 -0.5218 -0.2606
 8888SOL    HW128596   5.343   7.381   4.189 -0.7548  0.4869 -0.2218
 8888SOL    HW228597   5.401   7.518   4.217 -0.0611 -0.0556  1.0615
 8889SOL     OW28598   7.783   6.057   0.892 -0.3842  0.3746 -0.2472
 8889SOL    HW128599   7.696   6.095   0.904  0.0049  1.0097  0.7971
 8889SOL    HW228600   7.823   6.064   0.979 -0.0362 -1.8588 -0.1864
 8890SOL     OW28601   3.077   7.054   3.561  0.3515 -0.4081  0.3930
 8890SOL    HW128602   3.043   7.097   3.639 -0.1519 -0.9893  0.4994
 8890SOL    HW228603   3.172   7.062   3.568  0.2782  0.3515  0.5950
 8891SOL     OW28604   7.524   7.867   4.083  0.6319 -0.1321  0.0046
 8891SOL    HW128605   7.511   7.955   4.050 -0.3301  1.0748  3.2151
 8891SOL    HW228606   7.436   7.830   4.090  0.7869 -0.3517  1.0122
 8892SOL     OW28607   7.437   7.610   2.579  0.2963 -0.0605  0.3666
 8892SOL    HW128608   7.416   7.658   2.659  1.0105 -0.1343  0.6037
 8892SOL    HW228609   7.449   7.678   2.513  0.4280  0.0432  0.4958
 8893SOL     OW28610   6.794   0.576   6.692  0.4630  0.0818  0.2677
 8893SOL    HW128611   6.839   0.650   6.651 -0.7383  0.7107  0.0437
 8893SOL    HW228612   6.723   0.616   6.743  1.5878 -0.7020  2.5984
 8894SOL     OW28613   4.179   1.228   4.498  0.0713 -0.5013  0.5695
 8894SOL    HW128614   4.179   1.135   4.478 -2.7367 -0.2297 -1.2461
 8894SOL    HW228615   4.234   1.268   4.430  0.4237 -0.7138  0.7264
 8895SOL     OW28616   8.776   8.303   4.662  0.3773 -0.5367  0.1374
 8895SOL    HW128617   8.810   8.328   4.747 -1.1628  0.1735  0.5847
 8895SOL    HW228618   8.812   8.368   4.601 -1.1737  1.0116  0.8103
 8896SOL     OW28619   3.742   0.075   7.254 -0.0570 -0.0042 -0.0178
 8896SOL    HW128620   3.695   0.001   7.215  2.2416 -1.4140 -0.2547
 8896SOL    HW228621   3.805   0.036   7.314 -0.5431  1.9300  1.9226
 8897SOL     OW28622   7.574   1.889   2.266  0.7659 -0.0752  0.0089
 8897SOL    HW128623   7.619   1.826   2.322  0.6156 -0.8052 -0.6652
 8897SOL    HW228624   7.629   1.967   2.268 -0.5877  0.9760  3.3293
 8898SOL     OW28625   5.531   5.873   6.176  0.3246 -0.0893 -0.1565
 8898SOL    HW128626   5.556   5.955   6.219  0.7129  0.5277 -1.4947
 8898SOL    HW228627   5.600   5.811   6.200  0.7989  0.3822 -0.2794
 8899SOL     OW28628   1.226   5.334   5.715  0.4729 -0.6808 -0.1670
 8899SOL    HW128629   1.192   5.277   5.646  2.3731 -0.7167 -1.1383
 8899SOL    HW228630   1.217   5.282   5.795  1.5949 -2.1701 -0.9391
 8900SOL     OW28631   4.894   8.177   5.633  0.2634 -0.0941 -0.1953
 8900SOL    HW128632   4.898   8.088   5.666  0.4355  0.5821  1.7442
 8900SOL    HW228633   4.948   8.228   5.695 -2.4554  1.9013  0.7310
 8901SOL     OW28634   2.260   4.424   4.533 -0.2342 -0.0960 -0.0252
 8901SOL    HW128635   2.346   4.451   4.564  0.0029 -0.0012 -0.7546
 8901SOL    HW228636   2.260   4.328   4.539  0.8266 -0.3017 -2.2716
 8902SOL     OW28637   2.263   3.231   6.719  0.5863  0.1563  0.2228
 8902SOL    HW128638   2.243   3.271   6.634  0.7305  0.6048  0.3954
 8902SOL    HW228639   2.193   3.260   6.776  0.7126  0.1921  0.3600
 8903SOL     OW28640   4.753   5.812   6.803 -0.4976 -0.1789 -0.0363
 8903SOL    HW128641   4.793   5.830   6.888 -1.2511  1.0562  0.0793
 8903SOL    HW228642   4.701   5.733   6.818  1.1101 -1.2627  0.0440
 8904SOL     OW28643   6.720   6.742   7.415  0.3312 -0.2938 -0.3677
 8904SOL    HW128644   6.655   6.796   7.370  0.3617 -0.9810 -1.2806
 8904SOL    HW228645   6.746   6.677   7.349 -0.2997 -1.9225  0.8973
 8905SOL     OW28646   6.468   0.359   4.407 -0.5330 -0.1400 -0.3085
 8905SOL    HW128647   6.541   0.311   4.368 -1.2582 -0.0807 -1.8393
 8905SOL    HW228648   6.487   0.362   4.500  0.6709 -1.4094 -0.4860
 8906SOL     OW28649   6.433   1.116   0.581  0.6306 -0.7859  0.3998
 8906SOL    HW128650   6.476   1.040   0.542 -1.4467 -1.4122 -0.8446
 8906SOL    HW228651   6.390   1.160   0.508  0.6330  0.8274  1.3163
 8907SOL     OW28652   5.389   3.391   8.214 -0.3006  0.1647 -0.2012
 8907SOL    HW128653   5.386   3.429   8.125  2.7664 -1.7070 -1.2279
 8907SOL    HW228654   5.463   3.434   8.256  1.1561 -2.1557 -0.2348
 8908SOL     OW28655   7.668   8.237   0.905  0.5661  0.3433  0.0403
 8908SOL    HW128656   7.714   8.159   0.936  0.1675  0.4211  0.8429
 8908SOL    HW228657   7.590   8.204   0.862  2.5625  0.0122 -3.7677
 8909SOL     OW28658   2.557   0.809   2.111  0.1062 -0.1206  0.1603
 8909SOL    HW128659   2.646   0.838   2.134 -0.1058 -0.9350  2.2919
 8909SOL    HW228660   2.504   0.888   2.115  0.3542  0.0087  1.2041
 8910SOL     OW28661   1.869   1.140   2.554  0.5110  0.3525 -0.2326
 8910SOL    HW128662   1.818   1.159   2.633  1.4443 -0.2558  0.5378
 8910SOL    HW228663   1.804   1.133   2.484 -0.5274 -1.0215  0.8328
 8911SOL     OW28664   2.321   0.309   3.874 -0.3039 -0.0571 -0.0894
 8911SOL    HW128665   2.384   0.322   3.804  0.3460  1.1928  0.6986
 8911SOL    HW228666   2.360   0.241   3.929 -0.7703 -0.9705 -0.8482
 8912SOL     OW28667   2.085   6.103   0.075  0.0198  0.1594  0.0862
 8912SOL    HW128668   2.107   6.175   0.133 -1.0217 -0.4725  1.3329
 8912SOL    HW228669   2.057   6.033   0.134 -0.3367 -0.7774 -1.1542
 8913SOL     OW28670   8.067   8.360   5.934 -0.1989 -0.1099  0.5473
 8913SOL    HW128671   7.988   8.338   5.884 -0.8521  0.7273  1.1721
 8913SOL    HW228672   8.133   8.299   5.903 -0.6099  0.2894 -1.2395
 8914SOL     OW28673   6.208   3.451   0.929  0.3951 -0.5594  0.4393
 8914SOL    HW128674   6.148   3.378   0.913  0.7890 -0.8933  0.4569
 8914SOL    HW228675   6.172   3.495   1.006 -0.7408  0.2386 -0.5223
 8915SOL     OW28676   5.925   0.033   8.813 -0.1647  0.3115 -0.1010
 8915SOL    HW128677   5.891   0.012   8.900  1.3913 -0.5182  0.3273
 8915SOL    HW228678   6.001   0.089   8.829  0.9682 -0.9523 -0.8285
 8916SOL     OW28679   7.168   6.206   2.786  0.0385  0.8352 -0.5981
 8916SOL    HW128680   7.235   6.201   2.718  3.6403 -1.9646  2.6956
 8916SOL    HW228681   7.132   6.118   2.792  0.6150  0.6806  1.6939
 8917SOL     OW28682   1.098   7.873   3.736 -0.5943  0.1818 -0.0557
 8917SOL    HW128683   1.064   7.801   3.789  1.1037 -1.8730 -1.6258
 8917SOL    HW228684   1.032   7.942   3.745 -2.4495 -1.6414  1.2630
 8918SOL     OW28685   2.872   3.404   5.627 -0.5535 -0.9720 -0.0849
 8918SOL    HW128686   2.955   3.451   5.630 -1.4238  0.6008  0.3022
 8918SOL    HW228687   2.836   3.427   5.541 -0.9232 -1.0408  0.0527
 8919SOL     OW28688   5.442   0.160   1.216 -0.6079 -0.7097  0.6711
 8919SOL    HW128689   5.420   0.105   1.141 -0.2039 -2.0551  1.5114
 8919SOL    HW228690   5.368   0.221   1.223  1.2386  2.4965 -3.4622
 8920SOL     OW28691   4.985   6.555   5.780 -0.0865 -0.4918  0.1455
 8920SOL    HW128692   4.954   6.635   5.737 -0.6577 -0.0607  1.3348
 8920SOL    HW228693   4.949   6.484   5.726 -1.6258  0.0278  0.4371
 8921SOL     OW28694   3.862   7.536   6.983  0.2489  0.0615  0.4091
 8921SOL    HW128695   3.846   7.467   7.047  1.4185 -1.9468 -1.3687
 8921SOL    HW228696   3.957   7.544   6.979  0.1636  2.5301  1.2564
 8922SOL     OW28697   4.599   6.667   6.960 -0.1203  0.0068  0.2072
 8922SOL    HW128698   4.646   6.748   6.941 -0.0950  0.0613  0.4959
 8922SOL    HW228699   4.614   6.612   6.883  0.5745 -0.0488  0.3723
 8923SOL     OW28700   5.795   8.657   7.151 -0.3208  0.2992  0.1697
 8923SOL    HW128701   5.817   8.676   7.243 -1.7895 -1.3664  0.9212
 8923SOL    HW228702   5.795   8.743   7.108 -0.2455  1.1934  1.8712
 8924SOL     OW28703   4.277   1.046   1.952  0.1455 -0.2039 -0.2720
 8924SOL    HW128704   4.278   1.121   1.893 -1.4658  0.4497  0.4452
 8924SOL    HW228705   4.216   0.984   1.911  0.2187 -0.4109 -0.0711
 8925SOL     OW28706   4.894   0.701   1.341  0.3383  0.0502 -0.1389
 8925SOL    HW128707   4.909   0.695   1.435 -1.9863 -0.6025  0.2487
 8925SOL    HW228708   4.947   0.631   1.303 -0.3586 -1.0814  0.9227
 8926SOL     OW28709   1.369   6.698   6.270 -0.2946  0.2612  0.4545
 8926SOL    HW128710   1.455   6.658   6.258 -0.0275  0.5321  1.3516
 8926SOL    HW228711   1.312   6.651   6.209  0.4717  0.0489 -0.1252
 8927SOL     OW28712   5.167   5.717   1.093  0.2931 -0.4646 -0.4928
 8927SOL    HW128713   5.081   5.753   1.115  0.3507 -0.8582  0.4402
 8927SOL    HW228714   5.218   5.793   1.064  0.3502  0.2142  1.2475
 8928SOL     OW28715   5.371   4.505   0.320 -0.9154 -0.5068  0.0375
 8928SOL    HW128716   5.351   4.459   0.401 -1.0139 -1.5271 -0.5523
 8928SOL    HW228717   5.441   4.454   0.280  0.1058  0.7551  0.1230
 8929SOL     OW28718   8.533   0.189   4.140  0.6220  0.2796  0.3050
 8929SOL    HW128719   8.452   0.199   4.090  1.5127  0.3437 -1.1996
 8929SOL    HW228720   8.595   0.152   4.077  1.4197 -1.0078  1.7728
 8930SOL     OW28721   7.663   0.842   4.364 -0.1613  0.1832 -0.0824
 8930SOL    HW128722   7.613   0.899   4.307 -1.0754 -1.3107 -0.8291
 8930SOL    HW228723   7.736   0.811   4.310  1.1302  1.6660  0.7348
 8931SOL     OW28724   3.896   6.861   3.620  0.1875  0.3243  0.1833
 8931SOL    HW128725   3.884   6.781   3.672 -0.1432 -0.3018 -0.8139
 8931SOL    HW228726   3.819   6.914   3.640  0.4207  0.4077  0.8743
 8932SOL     OW28727   5.841   5.223   0.340  0.2000  0.1376  0.3546
 8932SOL    HW128728   5.915   5.282   0.355  0.1739 -0.0218  1.1471
 8932SOL    HW228729   5.774   5.252   0.402  0.3124 -0.9270  1.0058
 8933SOL     OW28730   6.862   8.596   2.206 -0.2269  0.3461  0.2088
 8933SOL    HW128731   6.797   8.644   2.154  0.1540 -0.2242 -0.8271
 8933SOL    HW228732   6.827   8.507   2.212 -0.9108  0.6869  2.0881
 8934SOL     OW28733   8.655   5.180   4.872 -0.3598  0.2442  0.5708
 8934SOL    HW128734   8.670   5.270   4.902 -1.3723  0.1920  1.2925
 8934SOL    HW228735   8.730   5.131   4.906  0.0466  0.7483  0.4260
 8935SOL     OW28736   6.300   1.554   7.380 -0.2775 -0.2477 -0.0845
 8935SOL    HW128737   6.271   1.544   7.471  0.2027 -1.7504 -0.0708
 8935SOL    HW228738   6.221   1.547   7.328 -0.3847 -0.7395  0.1439
 8936SOL     OW28739   7.933   5.249   7.302  0.1891 -0.0823  0.1552
 8936SOL    HW128740   7.889   5.325   7.340  2.7559  1.8061 -0.4661
 8936SOL    HW228741   7.951   5.192   7.377  0.4161  1.0748  1.0001
 8937SOL     OW28742   1.737   7.744   3.034 -0.2758 -0.1831 -0.0144
 8937SOL    HW128743   1.817   7.738   3.087  0.3301  0.7517 -0.8091
 8937SOL    HW228744   1.670   7.706   3.090  0.6176 -0.5149  0.8787
 8938SOL     OW28745   2.083   3.897   0.319  0.7190 -0.0241  0.3169
 8938SOL    HW128746   2.106   3.805   0.317  1.5109  0.0761  2.3419
 8938SOL    HW228747   2.043   3.914   0.234 -2.9222 -3.0774  1.1584
 8939SOL     OW28748   6.909   7.827   2.922 -0.0349 -0.1633  0.0737
 8939SOL    HW128749   6.846   7.884   2.879  0.0228 -1.2137 -1.4847
 8939SOL    HW228750   6.994   7.856   2.889  0.1143 -0.2777  0.3455
 8940SOL     OW28751   6.600   1.216   2.083  0.0200 -0.0282 -0.5890
 8940SOL    HW128752   6.542   1.197   2.009  0.2090  0.5987 -0.9005
 8940SOL    HW228753   6.688   1.211   2.046  0.0751  2.0818 -0.8561
 8941SOL     OW28754   3.426   0.498   0.383 -0.2664  0.5086  0.5889
 8941SOL    HW128755   3.422   0.497   0.479 -0.1322 -2.1640  0.6367
 8941SOL    HW228756   3.441   0.406   0.359 -0.7251  1.0556 -2.0203
 8942SOL     OW28757   7.857   5.769   0.868  0.2246  0.5365 -0.3027
 8942SOL    HW128758   7.853   5.854   0.912 -0.5035  0.2494  0.2061
 8942SOL    HW228759   7.909   5.785   0.790  1.7518  1.0160  0.7689
 8943SOL     OW28760   7.276   3.805   5.823 -0.2253 -0.0522 -0.4272
 8943SOL    HW128761   7.214   3.769   5.886  0.0718 -2.1855 -1.2916
 8943SOL    HW228762   7.226   3.873   5.776 -0.9236  0.4328  0.9693
 8944SOL     OW28763   8.004   6.325   1.624 -0.2644  0.4602 -0.1234
 8944SOL    HW128764   7.973   6.364   1.706 -0.0614 -1.7321  1.0750
 8944SOL    HW228765   8.093   6.359   1.614 -1.7166  4.4244 -2.0206
 8945SOL     OW28766   8.220   5.575   7.744 -0.5273 -0.0772  0.1399
 8945SOL    HW128767   8.207   5.499   7.799  0.2340  0.6282  1.3335
 8945SOL    HW228768   8.278   5.632   7.794 -2.2722  1.9851 -0.0250
 8946SOL     OW28769   4.850   5.160   2.278 -0.1976  0.1811 -0.6201
 8946SOL    HW128770   4.867   5.248   2.246  0.3670  0.1013 -0.5430
 8946SOL    HW228771   4.770   5.169   2.331 -1.0981  0.3317 -1.9532
 8947SOL     OW28772   0.028   0.631   5.016 -0.0004  0.7375 -0.2703
 8947SOL    HW128773   0.053   0.692   5.085 -1.0292 -0.4038  1.1870
 8947SOL    HW228774   0.085   0.653   4.942  1.2327  1.9167  0.9722
 8948SOL     OW28775   3.246   8.305   8.789 -0.0523  0.0017 -0.6426
 8948SOL    HW128776   3.332   8.265   8.806 -1.2510 -3.5722 -1.9116
 8948SOL    HW228777   3.192   8.276   8.862  0.0079  3.6088  1.0580
 8949SOL     OW28778   8.219   6.581   7.528 -0.5018 -0.0653  0.2456
 8949SOL    HW128779   8.148   6.644   7.535  0.2195  0.8193 -0.1238
 8949SOL    HW228780   8.266   6.588   7.611  1.1294  1.8585 -0.7463
 8950SOL     OW28781   0.115   1.371   5.153  0.2862 -0.4138  0.3472
 8950SOL    HW128782   0.045   1.397   5.093  0.3131  0.2059  0.5774
 8950SOL    HW228783   0.171   1.313   5.101  0.4201  0.2742 -0.2970
 8951SOL     OW28784   2.049   7.390   3.711 -0.3088 -0.0219 -0.2597
 8951SOL    HW128785   2.122   7.447   3.732  0.4196 -1.2006  0.5507
 8951SOL    HW228786   1.986   7.405   3.781  0.8341 -1.7577  1.2428
 8952SOL     OW28787   5.620   3.716   2.372  0.5068  0.4371 -0.4033
 8952SOL    HW128788   5.630   3.626   2.342 -0.4109 -0.0985  0.8146
 8952SOL    HW228789   5.526   3.733   2.365  0.2136  0.2633  2.0753
 8953SOL     OW28790   0.467   6.941   5.203  0.8697 -0.0435  0.2988
 8953SOL    HW128791   0.409   6.890   5.259  0.8145 -1.4698 -0.9937
 8953SOL    HW228792   0.429   7.029   5.201 -1.2995 -0.9536 -0.5591
 8954SOL     OW28793   5.089   2.159   1.754 -0.3476  0.3173  0.1175
 8954SOL    HW128794   5.069   2.167   1.847  0.2850 -0.7092  0.3550
 8954SOL    HW228795   5.013   2.199   1.710 -0.9531  0.2389  1.0578
 8955SOL     OW28796   7.674   8.081   1.759  0.0904 -0.0194  0.1400
 8955SOL    HW128797   7.594   8.091   1.811 -0.0821 -1.7556  0.2639
 8955SOL    HW228798   7.664   7.997   1.715  0.7103  0.9254 -1.9208
 8956SOL     OW28799   6.356   3.520   0.566 -0.6264  0.3979 -0.2649
 8956SOL    HW128800   6.369   3.508   0.472  0.1998  0.2019 -0.1263
 8956SOL    HW228801   6.281   3.580   0.572 -0.9141  0.1247 -1.0359
 8957SOL     OW28802   7.285   5.420   1.325  0.0397 -0.0286 -0.2136
 8957SOL    HW128803   7.367   5.421   1.375 -0.1239 -0.3387  0.0630
 8957SOL    HW228804   7.309   5.380   1.241  0.0257 -0.7686  0.1279
 8958SOL     OW28805   0.080   3.962   4.649 -0.4990 -0.5545 -0.1056
 8958SOL    HW128806  -0.008   3.943   4.682 -1.3745  0.2982 -1.7996
 8958SOL    HW228807   0.069   3.965   4.554  1.2151  0.3576 -0.3031
 8959SOL     OW28808   8.652   3.886   2.796 -0.2544  0.4529  1.1576
 8959SOL    HW128809   8.672   3.925   2.881 -1.0637 -0.0408  1.5846
 8959SOL    HW228810   8.558   3.900   2.784 -0.3973 -0.6203  0.9380
 8960SOL     OW28811   7.459   4.843   2.847  0.7373 -0.6260 -0.5064
 8960SOL    HW128812   7.406   4.799   2.781  0.2038 -0.0380 -0.4890
 8960SOL    HW228813   7.435   4.936   2.839  0.6228 -0.5515  0.5387
 8961SOL     OW28814   4.276   5.327   2.026  0.2356 -0.6013  0.6497
 8961SOL    HW128815   4.263   5.362   1.938  0.3299 -0.5906  0.6395
 8961SOL    HW228816   4.268   5.232   2.016  2.1172 -0.7645  0.2792
 8962SOL     OW28817   2.329   0.069   7.791 -0.1074 -0.4152 -0.3648
 8962SOL    HW128818   2.368   0.084   7.705  0.7688  0.2881  0.1327
 8962SOL    HW228819   2.280   0.149   7.810 -0.2161 -0.5264 -0.1738
 8963SOL     OW28820   1.866   5.762   2.146 -0.0799 -0.3399  0.0890
 8963SOL    HW128821   1.831   5.836   2.096 -0.4465 -1.2999 -1.1237
 8963SOL    HW228822   1.811   5.688   2.121  0.3029 -1.0478  1.2532
 8964SOL     OW28823   0.194   2.725   2.762 -0.1550  0.4880  0.1730
 8964SOL    HW128824   0.284   2.710   2.791 -0.7651 -2.8684  0.6822
 8964SOL    HW228825   0.145   2.740   2.842 -0.5515 -1.1185  0.2713
 8965SOL     OW28826   0.091   8.287   5.351  0.1550 -0.1357 -0.0342
 8965SOL    HW128827   0.076   8.235   5.430 -0.4499 -0.2434 -0.2161
 8965SOL    HW228828   0.025   8.257   5.289  0.5350  0.0474 -0.5378
 8966SOL     OW28829   3.348   6.930   2.683 -0.0672 -0.4577  0.2583
 8966SOL    HW128830   3.392   7.015   2.689 -1.2243  0.0633  2.1647
 8966SOL    HW228831   3.416   6.870   2.652  1.5034  0.6475  1.4025
 8967SOL     OW28832   7.280   7.183   8.835 -0.0077 -0.7231 -0.5093
 8967SOL    HW128833   7.255   7.093   8.855  1.1359 -0.6187  1.6359
 8967SOL    HW228834   7.278   7.228   8.919 -0.3226  1.2270 -1.4985
 8968SOL     OW28835   5.157   1.892   0.493  0.2885  0.0975 -0.3925
 8968SOL    HW128836   5.186   1.969   0.446  3.0277 -1.6869 -1.9128
 8968SOL    HW228837   5.061   1.897   0.491  0.3567  3.2548 -0.5929
 8969SOL     OW28838   1.130   2.304   6.249 -0.2489 -0.4242  0.0071
 8969SOL    HW128839   1.153   2.337   6.336 -1.0680  2.0938 -0.6483
 8969SOL    HW228840   1.048   2.258   6.262 -0.8431  0.7261  0.4536
 8970SOL     OW28841   3.559   3.997   1.975 -0.0260 -0.1072  0.0173
 8970SOL    HW128842   3.558   4.092   1.974  0.5705 -0.0967  0.3356
 8970SOL    HW228843   3.498   3.973   2.044  0.6538  0.0663  0.6850
 8971SOL     OW28844   6.533   7.328   3.058 -0.7661 -0.1700  0.1595
 8971SOL    HW128845   6.500   7.418   3.057  0.2573  0.3705 -3.9459
 8971SOL    HW228846   6.613   7.332   3.109 -0.5678  1.3695 -0.2177
 8972SOL     OW28847   7.475   3.230   2.055  0.0930 -1.0190 -0.0355
 8972SOL    HW128848   7.380   3.219   2.048  0.2793 -2.6730 -0.4354
 8972SOL    HW228849   7.508   3.216   1.967  0.6031  1.4638 -0.3087
 8973SOL     OW28850   6.471   5.452   6.764 -0.0672  0.2556  0.3467
 8973SOL    HW128851   6.399   5.481   6.821 -0.0691 -1.7247  1.4618
 8973SOL    HW228852   6.510   5.378   6.811  2.2993  0.8397 -0.5510
 8974SOL     OW28853   0.350   3.834   7.181  0.3662 -1.1594  0.2614
 8974SOL    HW128854   0.334   3.835   7.087 -2.0573  1.1450  0.5722
 8974SOL    HW228855   0.274   3.788   7.217 -2.6136  3.8598  1.3639
 8975SOL     OW28856   2.910   2.288   6.293  0.4745 -0.0152 -0.2123
 8975SOL    HW128857   2.950   2.202   6.303  0.9012  0.1974 -0.0587
 8975SOL    HW228858   2.840   2.275   6.230  0.1032 -0.6188  0.3090
 8976SOL     OW28859   5.884   1.988   1.921 -0.4015  0.0830  0.3254
 8976SOL    HW128860   5.954   1.996   1.857  1.0425  0.4734  1.8931
 8976SOL    HW228861   5.824   2.060   1.899  0.1589  0.3333 -0.4503
 8977SOL     OW28862   4.552   5.410   5.332  0.2512  0.3118 -0.0272
 8977SOL    HW128863   4.629   5.361   5.303 -0.3302 -0.6282 -0.0362
 8977SOL    HW228864   4.572   5.435   5.423 -0.5115 -2.3605  0.9805
 8978SOL     OW28865   3.973   6.998   1.601 -0.6882 -0.0446  0.7074
 8978SOL    HW128866   4.038   6.964   1.662 -0.8889 -0.2111  0.8300
 8978SOL    HW228867   4.016   7.073   1.559  0.2666 -1.2571 -0.5689
 8979SOL     OW28868   6.117   0.833   7.029 -0.4450 -0.4377 -0.3118
 8979SOL    HW128869   6.097   0.786   7.110 -0.1739  2.0733  1.2885
 8979SOL    HW228870   6.032   0.850   6.989 -0.5383 -2.5781 -1.1975
 8980SOL     OW28871   1.257   2.350   1.403 -0.3979 -0.2004 -0.0236
 8980SOL    HW128872   1.284   2.422   1.460 -1.5045 -0.0429  0.3243
 8980SOL    HW228873   1.243   2.277   1.463  0.9043 -0.7859 -0.3939
 8981SOL     OW28874   0.341   6.675   3.033  0.1650  0.3871  0.2868
 8981SOL    HW128875   0.271   6.716   2.983 -0.1877 -1.3976 -0.7479
 8981SOL    HW228876   0.422   6.713   2.997 -0.1477  0.1977 -0.6229
 8982SOL     OW28877   7.734   7.252   0.659 -0.4921  0.0434 -0.2959
 8982SOL    HW128878   7.802   7.303   0.702  0.7190  0.4231 -2.4933
 8982SOL    HW228879   7.771   7.164   0.651 -0.3573  0.1745 -1.2248
 8983SOL     OW28880   8.640   0.164   1.823 -0.3716 -0.7005  0.0973
 8983SOL    HW128881   8.643   0.075   1.788  1.8300 -0.2491 -1.0581
 8983SOL    HW228882   8.553   0.172   1.862 -0.3108 -3.6557  1.0825
 8984SOL     OW28883   0.369   5.900   3.445 -0.3980 -0.4179 -0.1931
 8984SOL    HW128884   0.407   5.823   3.487 -1.4948 -0.2016  1.2489
 8984SOL    HW228885   0.370   5.968   3.512 -0.5315  0.4980 -1.0820
 8985SOL     OW28886   0.742   8.321   3.131  0.6280 -0.1600 -0.0341
 8985SOL    HW128887   0.781   8.302   3.046 -0.7581  0.8406 -0.9382
 8985SOL    HW228888   0.802   8.382   3.173  1.2043 -0.4882 -0.3746
 8986SOL     OW28889   3.634   3.817   6.565 -0.1077  0.2972 -0.3645
 8986SOL    HW128890   3.678   3.735   6.545  1.6887  1.3363 -0.9295
 8986SOL    HW228891   3.627   3.818   6.661  0.9674 -0.0071 -0.2662
 8987SOL     OW28892   0.611   1.981   6.589 -0.0994  0.0887 -0.0212
 8987SOL    HW128893   0.515   1.976   6.590 -0.1478  0.9098  0.1421
 8987SOL    HW228894   0.638   1.911   6.529 -0.6793 -1.5753  1.5935
 8988SOL     OW28895   8.241   6.777   5.349  0.1314 -0.0958 -0.5194
 8988SOL    HW128896   8.282   6.742   5.427 -0.3356  1.4675  0.4851
 8988SOL    HW228897   8.314   6.807   5.294  0.4382 -0.7680 -0.4884
 8989SOL     OW28898   3.554   6.474   4.081  1.2678 -0.3334  0.0049
 8989SOL    HW128899   3.565   6.499   4.173  1.7339 -1.5591  0.3032
 8989SOL    HW228900   3.558   6.556   4.033  1.8786  0.2457  1.0073
 8990SOL     OW28901   0.783   3.977   1.662 -0.3770 -0.3527 -0.4297
 8990SOL    HW128902   0.799   3.884   1.677 -0.4648 -0.1961  0.7276
 8990SOL    HW228903   0.866   4.012   1.631  0.1264 -0.5013  0.7303
 8991SOL     OW28904   0.932   1.485   7.063 -0.3981  0.4091  0.3081
 8991SOL    HW128905   1.027   1.499   7.058 -0.4865  0.8390 -0.3142
 8991SOL    HW228906   0.902   1.550   7.127 -0.1958 -0.1541  0.9830
 8992SOL     OW28907   2.977   6.861   7.936 -0.4123  0.4587  0.2042
 8992SOL    HW128908   3.053   6.897   7.889 -0.2340 -0.8385 -0.5570
 8992SOL    HW228909   2.914   6.933   7.939  0.2165  1.0633 -0.6055
 8993SOL     OW28910   5.010   0.035   7.701  0.6188 -0.1178  0.4562
 8993SOL    HW128911   5.042   0.091   7.630  0.3379 -1.5198 -0.8182
 8993SOL    HW228912   5.062   0.062   7.777  0.3468  1.9972 -0.0368
 8994SOL     OW28913   7.429   2.391   4.042 -0.2036 -0.3971  0.2780
 8994SOL    HW128914   7.336   2.377   4.027  0.2241 -2.3367 -0.8672
 8994SOL    HW228915   7.466   2.304   4.057  1.4470  0.3072  0.6297
 8995SOL     OW28916   2.860   3.614   5.960  0.3974 -0.1266  0.7734
 8995SOL    HW128917   2.861   3.703   5.993 -1.1045  0.1928  0.0479
 8995SOL    HW228918   2.952   3.596   5.937  0.5668  1.6642 -0.1736
 8996SOL     OW28919   3.353   0.743   7.851 -0.1999 -0.2588  0.1650
 8996SOL    HW128920   3.382   0.724   7.940 -0.2766  0.1646  0.2793
 8996SOL    HW228921   3.260   0.721   7.851 -0.4802  0.8875  0.5261
 8997SOL     OW28922   8.478   5.261   7.121 -0.1928 -0.4197  0.4359
 8997SOL    HW128923   8.411   5.312   7.165 -1.3771 -1.5476 -0.0019
 8997SOL    HW228924   8.531   5.325   7.075  0.1703  0.6499  2.2673
 8998SOL     OW28925   0.130   3.109   6.349 -0.0717  0.4047  0.0138
 8998SOL    HW128926   0.047   3.153   6.331 -0.7414 -1.1157 -0.8130
 8998SOL    HW228927   0.119   3.070   6.435 -0.8715 -1.1227 -0.7286
 8999SOL     OW28928   7.253   4.659   8.450 -0.4111  0.5885 -0.2357
 8999SOL    HW128929   7.237   4.650   8.356 -1.2988  0.1377 -0.0516
 8999SOL    HW228930   7.300   4.580   8.474 -1.6333 -0.0933 -0.0087
 9000SOL     OW28931   5.878   6.030   8.159  0.0215 -0.4922  0.3002
 9000SOL    HW128932   5.939   6.077   8.102  0.3978  0.1478  1.1986
 9000SOL    HW228933   5.929   5.955   8.190  0.5115  0.2329  1.3295
 9001SOL     OW28934   3.869   3.850   2.810 -0.2423  0.0049 -0.1717
 9001SOL    HW128935   3.783   3.891   2.795 -0.2993 -0.3463 -0.8359
 9001SOL    HW228936   3.913   3.856   2.725  0.0098 -0.6938 -0.0931
 9002SOL     OW28937   4.897   5.815   1.429  0.2386  0.1115  0.2366
 9002SOL    HW128938   4.824   5.753   1.417  0.3985 -0.2494  1.0549
 9002SOL    HW228939   4.913   5.815   1.523  1.1016  0.4165  0.1000
 9003SOL     OW28940   7.884   6.269   6.455 -0.3985 -0.8245 -0.5088
 9003SOL    HW128941   7.802   6.285   6.503  0.8789 -0.5451  1.6896
 9003SOL    HW228942   7.944   6.337   6.486  0.8912 -1.4183 -1.5989
 9004SOL     OW28943   3.440   3.905   3.221 -0.1285 -0.0612  0.1717
 9004SOL    HW128944   3.478   3.983   3.182  0.6531 -1.0350 -1.0732
 9004SOL    HW228945   3.489   3.893   3.302 -0.6809  1.0659  0.6990
 9005SOL     OW28946   3.078   4.476   7.827 -0.0587 -0.2819 -0.0238
 9005SOL    HW128947   3.081   4.422   7.907  0.9209 -0.0708  0.0979
 9005SOL    HW228948   3.021   4.428   7.768 -2.2215  0.3773  1.3821
 9006SOL     OW28949   5.605   1.637   4.731  0.2100 -0.6862 -0.1429
 9006SOL    HW128950   5.593   1.552   4.774 -0.6808 -0.3140  0.3466
 9006SOL    HW228951   5.629   1.697   4.801 -1.7239  0.0286 -0.0418
 9007SOL     OW28952   7.668   1.386   0.675  0.0678  0.2774  0.1730
 9007SOL    HW128953   7.671   1.481   0.685 -0.0485  0.2926  0.0740
 9007SOL    HW228954   7.689   1.352   0.761  0.8724  0.3839  0.0278
 9008SOL     OW28955   7.553   8.426   2.421 -0.1292  0.0186 -0.1295
 9008SOL    HW128956   7.608   8.391   2.351  0.0186  0.2180 -0.1133
 9008SOL    HW228957   7.605   8.496   2.460 -1.3341  1.8691 -1.6832
 9009SOL     OW28958   2.792   8.465   5.837  0.4093 -0.5272  0.3080
 9009SOL    HW128959   2.883   8.436   5.836 -0.0912 -2.2201 -0.3455
 9009SOL    HW228960   2.764   8.459   5.746  0.6752  3.7091 -0.2415
 9010SOL     OW28961   4.091   1.698   1.059  0.1838  0.0653  0.2917
 9010SOL    HW128962   4.018   1.741   1.103 -0.7688 -1.3437  0.1568
 9010SOL    HW228963   4.062   1.690   0.968  0.5244 -0.4395  0.2226
 9011SOL     OW28964   0.708   4.885   3.481 -0.4365 -0.7078 -0.0906
 9011SOL    HW128965   0.756   4.904   3.561  1.1508  3.2560 -1.6937
 9011SOL    HW228966   0.641   4.954   3.478  0.0533 -0.2506 -2.4355
 9012SOL     OW28967   7.599   1.008   2.296  0.4277 -0.2610  0.4678
 9012SOL    HW128968   7.612   1.015   2.201  4.8713 -2.1197  0.7102
 9012SOL    HW228969   7.567   1.094   2.322  1.8652  1.3029 -2.3882
 9013SOL     OW28970   3.687   5.224   6.515 -0.6898 -0.3967 -0.0816
 9013SOL    HW128971   3.703   5.267   6.431  1.9770 -1.0744 -0.0105
 9013SOL    HW228972   3.661   5.295   6.573  1.0112  0.7379 -0.6164
 9014SOL     OW28973   2.511   0.861   7.598  0.4488 -0.0970  0.4802
 9014SOL    HW128974   2.428   0.846   7.642 -0.0107  0.6188 -0.1229
 9014SOL    HW228975   2.574   0.876   7.669 -0.5292  2.3286  0.9289
 9015SOL     OW28976   1.352   1.922   6.391  0.2325  0.5244 -0.4347
 9015SOL    HW128977   1.351   1.990   6.458  0.0222  0.2390 -0.1462
 9015SOL    HW228978   1.314   1.963   6.314 -0.8687  0.4301  0.0428
 9016SOL     OW28979   4.436   3.470   8.174 -0.1178 -0.3838 -0.7397
 9016SOL    HW128980   4.477   3.552   8.147  1.2052 -1.0700 -0.9092
 9016SOL    HW228981   4.509   3.408   8.181 -0.8665 -1.1550  0.9152
 9017SOL     OW28982   8.692   6.754   8.610 -0.1648 -0.1256  0.3216
 9017SOL    HW128983   8.747   6.786   8.682  0.3186  0.8915 -0.4760
 9017SOL    HW228984   8.754   6.738   8.539 -0.6254 -1.2304  0.1471
 9018SOL     OW28985   7.860   8.659   4.535  0.0971  0.3015  0.8301
 9018SOL    HW128986   7.781   8.688   4.488 -0.1662 -1.1898  0.3068
 9018SOL    HW228987   7.892   8.738   4.578 -2.3136  0.7501  1.9829
 9019SOL     OW28988   0.691   0.371   5.163 -0.2346  0.8571 -0.2963
 9019SOL    HW128989   0.741   0.355   5.243 -1.0261  1.5098  0.3470
 9019SOL    HW228990   0.655   0.286   5.141 -1.2559  0.9467  0.9140
 9020SOL     OW28991   1.726   3.813   7.790 -0.2956 -0.3191  0.8104
 9020SOL    HW128992   1.657   3.763   7.834 -0.6754 -0.7182 -0.2165
 9020SOL    HW228993   1.749   3.760   7.714 -0.6099  1.0043 -0.2341
 9021SOL     OW28994   7.066   3.388   5.403 -0.4801  0.1671 -0.1067
 9021SOL    HW128995   7.034   3.440   5.476  1.7694 -0.0235  1.1157
 9021SOL    HW228996   7.133   3.332   5.441 -0.9184 -1.7085 -1.8912
 9022SOL     OW28997   0.399   3.155   8.806  0.1289  0.0962  0.5869
 9022SOL    HW128998   0.345   3.098   8.750 -1.2999  1.0359  0.9645
 9022SOL    HW228999   0.337   3.194   8.867  1.0757  2.0431  0.3641
 9023SOL     OW29000   7.664   7.014   3.016 -0.0237 -0.7894  0.4478
 9023SOL    HW129001   7.612   6.956   2.961  1.2991 -0.5307 -1.1159
 9023SOL    HW229002   7.737   7.042   2.961  0.8673  0.1931  2.0452
 9024SOL     OW29003   5.192   5.074   4.528  0.1017 -0.2979 -0.2807
 9024SOL    HW129004   5.181   4.988   4.568  1.0063 -0.1489  0.3280
 9024SOL    HW229005   5.285   5.078   4.504 -0.2608 -0.1055 -1.7718
 9025SOL     OW29006   5.691   4.878   7.445  0.2882  0.1901 -0.3494
 9025SOL    HW129007   5.665   4.919   7.527 -0.6243 -1.5908  0.3106
 9025SOL    HW229008   5.640   4.923   7.378 -1.9220 -0.8386  0.5263
 9026SOL     OW29009   6.732   1.083   5.424 -0.8708  0.1369  0.0200
 9026SOL    HW129010   6.790   1.073   5.500 -0.2306  0.3261 -0.4402
 9026SOL    HW229011   6.644   1.067   5.459 -0.5329 -0.2960  0.6955
 9027SOL     OW29012   6.697   1.517   3.104  0.2981  0.2420 -0.1137
 9027SOL    HW129013   6.718   1.433   3.063 -0.1234 -1.4333  2.7935
 9027SOL    HW229014   6.776   1.540   3.153 -0.4763  0.0519  1.2954
 9028SOL     OW29015   0.168   5.794   8.546 -0.4133 -0.1628 -0.2859
 9028SOL    HW129016   0.252   5.775   8.588  1.0918  0.6789 -2.7335
 9028SOL    HW229017   0.122   5.710   8.547  1.2547 -1.1267 -0.5375
 9029SOL     OW29018   7.138   6.535   3.167  0.1322 -0.3726  0.4482
 9029SOL    HW129019   7.167   6.498   3.084  0.3911  2.5883 -0.8765
 9029SOL    HW229020   7.043   6.541   3.160  0.2203  0.6775 -0.0398
 9030SOL     OW29021   2.120   2.154   6.162  0.5120  0.3589  0.3050
 9030SOL    HW129022   2.074   2.070   6.169 -0.4088  0.9334  1.3098
 9030SOL    HW229023   2.154   2.170   6.249  2.2496  0.1927 -0.3055
 9031SOL     OW29024   2.532   0.352   5.442  0.3248 -0.0801  0.0929
 9031SOL    HW129025   2.560   0.306   5.521  0.0390 -1.7380 -0.7147
 9031SOL    HW229026   2.512   0.282   5.380 -1.8056  1.1010 -0.6572
 9032SOL     OW29027   7.517   4.068   0.992 -0.0775 -0.1248 -0.8062
 9032SOL    HW129028   7.546   3.999   1.052  0.1157  0.3491 -0.3399
 9032SOL    HW229029   7.465   4.023   0.926 -0.2319 -0.6701 -0.3202
 9033SOL     OW29030   2.295   7.904   4.208  0.2074 -0.0228 -0.1110
 9033SOL    HW129031   2.294   8.000   4.204  1.9718 -0.0140 -0.8898
 9033SOL    HW229032   2.221   7.878   4.152  0.4345  0.8773 -0.8661
 9034SOL     OW29033   3.392   7.867   5.048  0.5064  0.0179  0.0947
 9034SOL    HW129034   3.332   7.910   4.988  0.6876 -1.0782 -0.9224
 9034SOL    HW229035   3.471   7.921   5.047  0.2544  0.3842 -0.0998
 9035SOL     OW29036   0.075   0.494   8.624 -0.3068  0.0940 -0.4119
 9035SOL    HW129037   0.157   0.449   8.601 -1.2962 -1.9419 -0.1521
 9035SOL    HW229038   0.064   0.477   8.717 -1.0091  0.3774 -0.4395
 9036SOL     OW29039   8.213   5.972   2.635 -0.1585 -1.0970  0.1130
 9036SOL    HW129040   8.206   5.935   2.547 -1.7117 -0.0203 -0.2563
 9036SOL    HW229041   8.303   5.953   2.662 -0.3246 -3.4600 -0.7792
 9037SOL     OW29042   2.476   5.356   6.366 -0.1823 -0.0464  0.0615
 9037SOL    HW129043   2.540   5.310   6.312  0.1339 -0.0775  0.4559
 9037SOL    HW229044   2.480   5.312   6.451 -0.8928 -0.1961  0.0219
 9038SOL     OW29045   2.732   3.231   3.821  0.9450  0.4121 -0.5518
 9038SOL    HW129046   2.723   3.302   3.886 -0.3968 -0.7193  0.5512
 9038SOL    HW229047   2.642   3.213   3.793  1.0512 -1.8485  0.3349
 9039SOL     OW29048   7.546   4.257   2.466  0.1759 -0.0490  0.0345
 9039SOL    HW129049   7.573   4.244   2.375  0.5028  1.1574 -0.0543
 9039SOL    HW229050   7.451   4.269   2.461  0.2955  0.8327 -0.2500
 9040SOL     OW29051   6.891   4.401   6.610 -0.1550 -0.4369 -0.4758
 9040SOL    HW129052   6.975   4.358   6.624  0.5078  0.0683 -2.5096
 9040SOL    HW229053   6.889   4.471   6.676  0.6511 -0.9568  0.1245
 9041SOL     OW29054   8.206   3.070   1.631 -0.9653 -0.2072 -0.3648
 9041SOL    HW129055   8.288   3.024   1.647 -0.7728  0.3443  0.2803
 9041SOL    HW229056   8.138   3.012   1.667 -0.7967 -0.3381 -0.2561
 9042SOL     OW29057   3.814   1.238   4.833 -0.2027  0.3709 -0.6635
 9042SOL    HW129058   3.878   1.231   4.904  0.1543  1.5334 -0.8545
 9042SOL    HW229059   3.866   1.250   4.754 -0.6406  1.2740 -0.8252
 9043SOL     OW29060   8.831   2.800   4.897 -0.4845 -0.4551 -0.0970
 9043SOL    HW129061   8.793   2.745   4.829  0.4082 -1.8523  0.4951
 9043SOL    HW229062   8.874   2.739   4.957 -0.3416  0.8102  1.1554
 9044SOL     OW29063   6.187   8.844   1.904  0.8417 -0.1441  0.5837
 9044SOL    HW129064   6.203   8.920   1.960  0.9362 -0.2210  0.6608
 9044SOL    HW229065   6.127   8.789   1.954 -0.7442  0.7649 -0.2495
 9045SOL     OW29066   0.449   0.724   0.518 -0.1614  0.7058  0.1480
 9045SOL    HW129067   0.537   0.692   0.542 -0.6506 -1.6515 -0.8726
 9045SOL    HW229068   0.391   0.650   0.538 -1.7259  1.7248 -0.4719
 9046SOL     OW29069   3.175   8.095   2.387 -0.0190  0.4332  0.3179
 9046SOL    HW129070   3.190   8.152   2.463 -1.0071  1.2577 -0.0946
 9046SOL    HW229071   3.098   8.132   2.344 -1.0626 -1.5502  0.3631
 9047SOL     OW29072   7.443   7.715   2.100 -0.1949  0.2809 -0.3099
 9047SOL    HW129073   7.373   7.781   2.095 -1.1145 -0.6883 -0.6143
 9047SOL    HW229074   7.476   7.709   2.010 -1.9983 -1.6121 -0.9197
 9048SOL     OW29075   2.553   3.119   7.078  0.2817  0.2767 -0.1653
 9048SOL    HW129076   2.538   3.038   7.029  0.8861 -2.7703  4.1394
 9048SOL    HW229077   2.639   3.108   7.117  0.5285  3.2274  0.3605
 9049SOL     OW29078   3.836   0.641   6.459 -0.1358 -0.5140 -0.3337
 9049SOL    HW129079   3.890   0.590   6.400 -0.5605 -0.2536 -0.9541
 9049SOL    HW229080   3.894   0.708   6.495  0.2704 -1.0498  0.0197
 9050SOL     OW29081   2.119   2.220   6.908 -0.3705  0.0940  0.2700
 9050SOL    HW129082   2.026   2.240   6.895 -0.0733  0.0936 -2.2507
 9050SOL    HW229083   2.162   2.306   6.907 -0.4177  0.2257  2.8812
 9051SOL     OW29084   8.726   1.886   3.066  0.1977  0.1915  0.0452
 9051SOL    HW129085   8.729   1.932   2.983 -0.1922  0.7892  0.3528
 9051SOL    HW229086   8.780   1.808   3.053 -1.1664 -0.5763 -1.2842
 9052SOL     OW29087   5.500   0.119   2.251  0.1493  0.0054 -0.3903
 9052SOL    HW129088   5.505   0.132   2.346  0.2428 -1.9247 -0.0800
 9052SOL    HW229089   5.531   0.201   2.214 -4.5646  2.8857  1.1213
 9053SOL     OW29090   7.430   2.366   6.732  0.5418  0.2294  0.3621
 9053SOL    HW129091   7.505   2.335   6.783  1.1765  0.1302 -0.6134
 9053SOL    HW229092   7.463   2.444   6.687  0.4980 -0.5852 -1.1389
 9054SOL     OW29093   5.706   0.429   7.825 -0.2864  0.1172 -0.0951
 9054SOL    HW129094   5.742   0.341   7.833 -1.1643 -0.4047 -1.5211
 9054SOL    HW229095   5.763   0.483   7.880  0.6126 -1.2253  0.3566
 9055SOL     OW29096   0.036   0.653   6.754  0.7110  0.7320 -0.3885
 9055SOL    HW129097   0.089   0.732   6.744  0.7671  0.7268 -0.1534
 9055SOL    HW229098  -0.053   0.681   6.734  0.7526  0.8198 -0.4521
 9056SOL     OW29099   7.328   0.750   3.746 -0.2656  0.5035 -0.2340
 9056SOL    HW129100   7.310   0.708   3.662 -0.3592  1.6197 -0.7966
 9056SOL    HW229101   7.261   0.818   3.753  0.0590  0.7610  0.5043
 9057SOL     OW29102   2.995   7.086   7.571 -0.0479 -0.4301 -0.1767
 9057SOL    HW129103   3.004   7.112   7.663 -0.1868  1.6185 -0.6916
 9057SOL    HW229104   3.051   7.009   7.562  0.7669 -0.0664  1.3902
 9058SOL     OW29105   6.808   0.090   4.547  0.4237  0.1644  0.1342
 9058SOL    HW129106   6.719   0.070   4.577  0.9425 -0.7736  1.1118
 9058SOL    HW229107   6.810   0.186   4.541 -1.5702  0.1561 -2.9095
 9059SOL     OW29108   0.635   8.298   4.551 -0.9408 -0.1219 -0.3883
 9059SOL    HW129109   0.603   8.300   4.641 -0.6501 -0.9624 -0.2584
 9059SOL    HW229110   0.728   8.277   4.559 -1.2268 -1.7526 -0.9327
 9060SOL     OW29111   0.513   5.895   0.191 -0.7433  0.3329 -0.4108
 9060SOL    HW129112   0.453   5.823   0.174 -1.7148  1.1468 -0.5441
 9060SOL    HW229113   0.561   5.868   0.269 -0.8118 -0.6217 -0.6907
 9061SOL     OW29114   1.045   0.635   7.691  0.4154  0.1242  0.0941
 9061SOL    HW129115   0.987   0.594   7.755 -1.4312  1.7255 -0.4481
 9061SOL    HW229116   1.043   0.576   7.615 -0.8861  0.3336 -0.0641
 9062SOL     OW29117   3.361   5.613   7.412  0.0265  0.3837  0.3187
 9062SOL    HW129118   3.345   5.643   7.323  0.4810 -0.9014 -0.2165
 9062SOL    HW229119   3.339   5.520   7.411 -1.1017  0.5767  1.8558
 9063SOL     OW29120   1.202   4.742   1.096  0.0341  0.4835 -0.0896
 9063SOL    HW129121   1.294   4.755   1.118 -0.2039  1.2959  0.4614
 9063SOL    HW229122   1.157   4.817   1.133 -0.6730  0.8637 -1.6277
 9064SOL     OW29123   6.843   6.842   2.775 -0.2551 -0.0269 -0.1916
 9064SOL    HW129124   6.865   6.886   2.693 -0.3016 -0.4263 -0.4229
 9064SOL    HW229125   6.897   6.762   2.774  0.2949  0.3263  0.5148
 9065SOL     OW29126   7.805   8.064   3.209  0.2579 -0.3167  0.2026
 9065SOL    HW129127   7.801   8.065   3.305 -1.9774  3.1583  0.2450
 9065SOL    HW229128   7.741   7.997   3.183 -0.9783  0.4696  1.1668
 9066SOL     OW29129   5.050   4.940   2.619 -0.6317 -0.2561  0.6038
 9066SOL    HW129130   4.997   4.967   2.695  0.0801 -0.8404  1.3326
 9066SOL    HW229131   4.988   4.900   2.559 -1.4997  1.7560  0.0860
 9067SOL     OW29132   2.853   0.174   5.715  0.2335  0.0740 -0.3692
 9067SOL    HW129133   2.853   0.253   5.768  3.9371 -0.4980  0.7628
 9067SOL    HW229134   2.921   0.189   5.649 -2.1329 -0.4647 -3.1547
 9068SOL     OW29135   4.275   5.751   6.834  0.5902 -0.0430 -0.1732
 9068SOL    HW129136   4.220   5.829   6.838  1.4117  0.5001  0.7711
 9068SOL    HW229137   4.363   5.782   6.852  1.0416 -1.0849 -0.5186
 9069SOL     OW29138   3.479   8.394   4.542  0.3755  0.1748  0.3602
 9069SOL    HW129139   3.464   8.481   4.504  0.0676  0.1558  0.4347
 9069SOL    HW229140   3.573   8.391   4.558  0.3476  0.6080  0.6291
 9070SOL     OW29141   0.537   1.061   3.776 -0.5268 -0.1147 -0.4377
 9070SOL    HW129142   0.602   1.057   3.846 -0.5343 -2.5436 -0.4639
 9070SOL    HW229143   0.480   0.986   3.793 -1.8049  0.4850 -1.8590
 9071SOL     OW29144   6.696   3.942   4.646  0.4500  0.2023 -0.3779
 9071SOL    HW129145   6.784   3.960   4.611  0.6287 -0.6557 -0.3825
 9071SOL    HW229146   6.700   3.972   4.737  0.0761  2.1651 -0.9489
 9072SOL     OW29147   0.946   5.772   7.605 -0.0856  0.0128 -0.1085
 9072SOL    HW129148   0.914   5.721   7.531  0.8065 -0.0873 -0.4399
 9072SOL    HW229149   0.922   5.721   7.682 -0.1693 -0.3621 -0.3788
 9073SOL     OW29150   7.364   5.035   2.217 -0.1375  0.5391  0.2432
 9073SOL    HW129151   7.371   4.998   2.129  2.1150  0.0383  0.5663
 9073SOL    HW229152   7.301   5.106   2.208  1.5497  1.8739 -2.2978
 9074SOL     OW29153   2.680   6.250   1.882 -0.0069  0.9332 -0.2149
 9074SOL    HW129154   2.609   6.235   1.944 -1.7985  0.1977 -2.3238
 9074SOL    HW229155   2.757   6.268   1.937 -1.5328  0.5694  2.1649
 9075SOL     OW29156   1.139   7.728   7.221  0.2838 -0.1950  0.1339
 9075SOL    HW129157   1.078   7.699   7.153 -0.4361  0.7129  0.3711
 9075SOL    HW229158   1.110   7.683   7.300 -0.9362  1.2171  0.5387
 9076SOL     OW29159   1.011   5.622   3.480 -0.1811  0.0272 -0.1207
 9076SOL    HW129160   0.928   5.660   3.508 -0.9652 -1.2891 -0.5959
 9076SOL    HW229161   0.987   5.543   3.431  1.3195  0.0303 -0.9304
 9077SOL     OW29162   7.569   5.026   0.243 -0.1318  0.0513 -0.2343
 9077SOL    HW129163   7.605   4.959   0.302  2.5984  0.9025 -0.8174
 9077SOL    HW229164   7.552   4.979   0.162 -2.7018 -0.8482  0.7136
 9078SOL     OW29165   6.067   6.776   2.704  0.7315  0.0985  0.6558
 9078SOL    HW129166   6.064   6.812   2.792 -0.6021  0.0978  0.6297
 9078SOL    HW229167   6.025   6.843   2.649 -0.1186 -0.6807  0.3276
 9079SOL     OW29168   5.054   6.128   3.904 -0.4068  0.2355 -0.0589
 9079SOL    HW129169   5.025   6.217   3.925  0.2136  0.3802  0.1965
 9079SOL    HW229170   5.095   6.136   3.819 -0.9943  0.0502 -0.3684
 9080SOL     OW29171   6.739   3.493   3.627  0.3988  0.0978 -0.0846
 9080SOL    HW129172   6.810   3.444   3.587 -0.6312 -1.5060 -0.0430
 9080SOL    HW229173   6.667   3.488   3.564 -0.0620  0.6777  0.3810
 9081SOL     OW29174   0.641   0.856   3.553  0.0724  0.4785 -0.0805
 9081SOL    HW129175   0.559   0.905   3.560 -0.8464 -1.0630  0.5919
 9081SOL    HW229176   0.640   0.798   3.629  1.7140  0.2825 -0.1701
 9082SOL     OW29177   2.082   0.302   3.314  0.3787 -0.4865 -0.1840
 9082SOL    HW129178   2.102   0.240   3.384 -2.7652  0.2151  1.5511
 9082SOL    HW229179   2.122   0.384   3.343  0.0599 -0.4706  0.2137
 9083SOL     OW29180   0.868   4.120   2.054  0.0460 -0.2488  0.0991
 9083SOL    HW129181   0.916   4.095   2.133  0.3679  1.0045  0.3251
 9083SOL    HW229182   0.836   4.037   2.018 -0.9439 -0.8009  2.0790
 9084SOL     OW29183   7.679   2.016   4.469  0.0211  0.4080 -0.2224
 9084SOL    HW129184   7.765   1.989   4.501  0.3763  0.7144 -0.9047
 9084SOL    HW229185   7.697   2.076   4.397 -0.7566 -0.1604 -0.9209
 9085SOL     OW29186   2.761   0.823   5.557  0.2590 -0.2294 -0.0026
 9085SOL    HW129187   2.802   0.746   5.597  0.5899  0.1088  0.3111
 9085SOL    HW229188   2.668   0.815   5.580  0.4890  0.0991  1.0584
 9086SOL     OW29189   5.313   5.291   5.866  0.0222  0.0776 -0.7690
 9086SOL    HW129190   5.310   5.196   5.874  0.2000  0.1016 -0.3986
 9086SOL    HW229191   5.303   5.323   5.955 -1.9893  0.4628 -1.0858
 9087SOL     OW29192   0.317   1.715   7.453 -0.2033  0.2652  0.3098
 9087SOL    HW129193   0.363   1.799   7.461 -2.9480  1.6945  2.6695
 9087SOL    HW229194   0.239   1.735   7.401 -0.9129 -0.7965  0.9331
 9088SOL     OW29195   6.318   0.268   6.615 -0.2579  0.1780 -0.0926
 9088SOL    HW129196   6.391   0.218   6.578 -0.2741 -0.4693  0.7241
 9088SOL    HW229197   6.327   0.257   6.709 -2.7172 -1.8033 -0.0030
 9089SOL     OW29198   7.449   4.882   5.065 -0.0522 -0.0470  0.1849
 9089SOL    HW129199   7.382   4.815   5.053  0.6065 -0.6077 -0.4822
 9089SOL    HW229200   7.419   4.933   5.140 -0.6694 -0.9547  0.5732
 9090SOL     OW29201   0.791   3.309   0.299 -0.7491  0.5632  0.1483
 9090SOL    HW129202   0.705   3.276   0.327 -0.7426  0.3131 -0.1253
 9090SOL    HW229203   0.791   3.401   0.327 -2.1471  1.3414 -2.1167
 9091SOL     OW29204   4.262   2.626   8.299 -0.5673  0.5177  0.3414
 9091SOL    HW129205   4.192   2.685   8.271 -0.7392  2.0404  3.5069
 9091SOL    HW229206   4.219   2.564   8.358  0.3882  0.2282  0.7627
 9092SOL     OW29207   6.468   6.639   1.070  0.1405 -0.1974  0.5597
 9092SOL    HW129208   6.481   6.592   1.151 -1.0596 -0.3757  0.6704
 9092SOL    HW229209   6.550   6.686   1.055  0.8731 -1.2799  1.1233
 9093SOL     OW29210   0.674   3.937   3.572 -0.3546 -0.3320 -0.5977
 9093SOL    HW129211   0.680   3.932   3.668  1.1054 -1.5245 -0.7092
 9093SOL    HW229212   0.755   3.980   3.546 -1.2402  1.0015 -1.2745
 9094SOL     OW29213   3.415   8.245   6.842 -0.3579 -0.4651  0.2735
 9094SOL    HW129214   3.361   8.177   6.800  0.3371  0.0034 -1.4326
 9094SOL    HW229215   3.477   8.272   6.775  0.8352  0.3087  1.6349
 9095SOL     OW29216   7.791   3.159   8.416  0.3273 -0.1249 -0.1846
 9095SOL    HW129217   7.782   3.162   8.321 -1.5537 -0.4020 -0.0489
 9095SOL    HW229218   7.758   3.072   8.440 -0.0442  0.2774  0.8002
 9096SOL     OW29219   1.381   4.361   0.025  0.2770  0.1535  0.4808
 9096SOL    HW129220   1.291   4.393   0.019 -0.0425 -0.5440  1.3861
 9096SOL    HW229221   1.377   4.272  -0.010  0.7583  0.3642 -0.1203
 9097SOL     OW29222   4.309   1.997   7.421 -0.2012  0.3097  0.1415
 9097SOL    HW129223   4.278   1.907   7.410 -0.0320  0.1935  0.5667
 9097SOL    HW229224   4.401   1.988   7.444 -0.5448  0.5052  1.7136
 9098SOL     OW29225   3.992   6.408   8.804 -0.0538 -0.2601  0.0257
 9098SOL    HW129226   3.936   6.449   8.870 -0.1931 -1.2084  0.5034
 9098SOL    HW229227   3.931   6.383   8.734 -0.3356 -1.7055  0.7436
 9099SOL     OW29228   5.943   4.674   3.035 -0.1670  0.2683  0.0696
 9099SOL    HW129229   5.874   4.611   3.051 -0.2289  0.4822  0.6402
 9099SOL    HW229230   5.943   4.686   2.940  0.2651 -1.0630 -0.1216
 9100SOL     OW29231   5.857   7.077   3.659 -0.3790  0.3894  0.3124
 9100SOL    HW129232   5.847   7.138   3.585  0.5802 -0.7394 -0.7783
 9100SOL    HW229233   5.767   7.066   3.692 -1.1895 -0.6422 -1.9890
 9101SOL     OW29234   5.000   6.587   1.997 -0.5964 -0.1153  0.3156
 9101SOL    HW129235   5.094   6.587   1.977 -0.5541 -0.3363  0.5074
 9101SOL    HW229236   4.996   6.588   2.093 -0.7905 -0.0558  0.3067
 9102SOL     OW29237   7.528   1.508   5.828  0.4737 -0.0754  0.2530
 9102SOL    HW129238   7.472   1.509   5.750  0.6412 -1.1893  0.1007
 9102SOL    HW229239   7.547   1.600   5.845 -0.5474  0.2554 -0.3117
 9103SOL     OW29240   7.970   3.242   6.247 -0.3939 -0.1130 -0.2206
 9103SOL    HW129241   7.895   3.221   6.191 -0.7132 -0.2292  0.2450
 9103SOL    HW229242   8.005   3.323   6.211  0.0360 -0.7229 -1.2245
 9104SOL     OW29243   2.731   0.216   5.000 -0.3403  0.2648 -0.5310
 9104SOL    HW129244   2.814   0.194   4.956 -0.7592 -3.4834  0.1587
 9104SOL    HW229245   2.747   0.197   5.092 -1.5662  0.9172 -0.1668
 9105SOL     OW29246   0.244   8.416   8.470 -0.3239  0.4660  0.5702
 9105SOL    HW129247   0.222   8.437   8.561 -1.7769  0.9355  0.1296
 9105SOL    HW229248   0.232   8.321   8.464  1.8271  0.0601  1.3677
 9106SOL     OW29249   4.245   8.210   2.563 -0.8260  0.0025 -0.5346
 9106SOL    HW129250   4.327   8.186   2.520  0.6931 -0.9438  2.6460
 9106SOL    HW229251   4.225   8.298   2.531  1.9256  0.6290 -0.7170
 9107SOL     OW29252   5.785   3.261   8.229 -0.5396 -0.3054  0.5890
 9107SOL    HW129253   5.742   3.185   8.190 -0.1608 -0.8319  1.1673
 9107SOL    HW229254   5.872   3.229   8.254  0.0222  0.6148 -0.1295
 9108SOL     OW29255   2.080   3.575   5.976  0.0637 -0.0360 -0.0684
 9108SOL    HW129256   2.032   3.595   5.895  0.0767  0.0719 -0.0492
 9108SOL    HW229257   2.035   3.499   6.012  0.2138 -0.2388 -0.3079
 9109SOL     OW29258   3.596   1.317   4.990 -0.4978 -0.1602  0.1991
 9109SOL    HW129259   3.616   1.273   5.073 -0.4393 -1.3314 -0.4153
 9109SOL    HW229260   3.666   1.288   4.930  0.7147  2.3582  0.2795
 9110SOL     OW29261   0.821   2.015   7.037 -0.3862  0.1236  0.4617
 9110SOL    HW129262   0.790   2.073   6.967  1.4948 -0.8238 -1.3043
 9110SOL    HW229263   0.769   1.936   7.027 -1.1071  0.5141  1.0952
 9111SOL     OW29264   5.675   6.579   2.353 -0.2299 -0.0105 -0.3073
 9111SOL    HW129265   5.635   6.560   2.269 -0.5661 -0.6869  0.0006
 9111SOL    HW229266   5.601   6.597   2.412 -0.0861 -0.9618  0.1869
 9112SOL     OW29267   4.446   3.573   1.144 -0.0181 -0.4415  0.3116
 9112SOL    HW129268   4.530   3.574   1.099  0.3552  0.4054  0.9986
 9112SOL    HW229269   4.397   3.503   1.101 -0.3487  1.4088 -2.6464
 9113SOL     OW29270   5.595   4.038   7.617  0.3211  0.5374 -0.1743
 9113SOL    HW129271   5.558   4.017   7.702  1.1781 -1.4651 -0.2390
 9113SOL    HW229272   5.676   3.987   7.612  1.0732  1.7738 -1.5849
 9114SOL     OW29273   8.570   2.764   2.397  0.2329 -0.0559 -0.5894
 9114SOL    HW129274   8.547   2.812   2.477 -0.5222 -1.6668  0.2191
 9114SOL    HW229275   8.624   2.825   2.347  1.5914  0.6907  1.6142
 9115SOL     OW29276   6.798   5.758   2.415  0.5691 -0.3033 -0.2397
 9115SOL    HW129277   6.703   5.760   2.407  0.5448 -0.4664 -0.0156
 9115SOL    HW229278   6.828   5.840   2.376  0.2796  0.1328  0.4382
 9116SOL     OW29279   7.994   1.765   8.112  0.4753 -0.1554 -0.0653
 9116SOL    HW129280   8.000   1.859   8.096  1.1090  0.2484  2.1190
 9116SOL    HW229281   8.070   1.727   8.067 -0.2039  0.2296 -1.5976
 9117SOL     OW29282   5.053   8.362   7.245  0.1890 -0.4069 -0.1338
 9117SOL    HW129283   5.114   8.379   7.173  0.9423  0.3222  0.6462
 9117SOL    HW229284   4.966   8.369   7.205  0.5715  0.9595 -0.7864
 9118SOL     OW29285   4.476   7.939   1.300  0.4120  0.1537 -0.0724
 9118SOL    HW129286   4.565   7.962   1.275  0.8502 -1.8664 -0.4856
 9118SOL    HW229287   4.484   7.906   1.390  0.1467 -0.3416 -0.2265
 9119SOL     OW29288   7.881   1.381   1.363 -0.2307 -0.2014 -0.1814
 9119SOL    HW129289   7.878   1.288   1.343 -2.2765  0.0471 -1.2636
 9119SOL    HW229290   7.972   1.407   1.347  0.8119 -2.2869  1.7366
 9120SOL     OW29291   3.009   2.843   7.817 -0.1484 -0.4225  0.1517
 9120SOL    HW129292   2.993   2.899   7.893  0.8222 -0.6536  0.5426
 9120SOL    HW229293   3.070   2.776   7.849 -1.7169 -2.0645 -0.1511
 9121SOL     OW29294   5.430   7.389   1.192 -0.8719 -0.1467 -0.1133
 9121SOL    HW129295   5.486   7.383   1.270 -0.0098 -0.4366 -0.7417
 9121SOL    HW229296   5.424   7.299   1.160  0.3226  0.1965 -1.4292
 9122SOL     OW29297   4.937   3.881   5.602 -0.1813  0.1996 -0.7231
 9122SOL    HW129298   4.883   3.955   5.575 -1.7589 -1.0958 -1.3057
 9122SOL    HW229299   4.968   3.843   5.519  1.0447  0.4799 -0.4164
 9123SOL     OW29300   4.662   8.101   0.133  0.2025 -0.2347 -0.4778
 9123SOL    HW129301   4.736   8.072   0.081 -0.2858 -0.5588 -0.9956
 9123SOL    HW229302   4.602   8.026   0.136 -0.7167  0.4439 -1.1814
 9124SOL     OW29303   4.168   3.044   0.496  0.3052  0.3320 -0.0677
 9124SOL    HW129304   4.115   3.123   0.492  1.6145  1.2097 -1.1157
 9124SOL    HW229305   4.186   3.022   0.405  2.9069  0.9419  0.2034
 9125SOL     OW29306   8.263   6.389   1.628 -0.1542 -0.0470 -0.4776
 9125SOL    HW129307   8.293   6.300   1.610 -1.4650 -0.7733  0.8068
 9125SOL    HW229308   8.337   6.430   1.674 -0.3873 -1.2227  0.9965
 9126SOL     OW29309   6.596   6.518   0.708  0.2633  0.2717 -0.3326
 9126SOL    HW129310   6.638   6.590   0.661  1.7429  0.8556  1.7285
 9126SOL    HW229311   6.669   6.463   0.737 -0.6884 -0.7295  0.2182
 9127SOL     OW29312   5.009   6.657   6.595  0.1391 -0.2135 -0.3171
 9127SOL    HW129313   4.924   6.655   6.550 -0.3455  1.1081  0.4952
 9127SOL    HW229314   5.058   6.725   6.549 -1.1329  2.7386  2.3503
 9128SOL     OW29315   3.024   6.644   5.884  0.3909 -0.2514  0.0858
 9128SOL    HW129316   2.930   6.663   5.879  0.2534 -0.2629  1.9907
 9128SOL    HW229317   3.062   6.695   5.813 -0.9598  0.4033 -0.2096
 9129SOL     OW29318   3.152   5.575   7.785  0.1880 -0.5754 -0.0688
 9129SOL    HW129319   3.200   5.504   7.741  0.9251 -0.5459  0.6738
 9129SOL    HW229320   3.219   5.624   7.832 -0.5867 -0.6010  1.0915
 9130SOL     OW29321   6.544   4.402   0.170  0.0123  0.6245  0.3280
 9130SOL    HW129322   6.598   4.472   0.208  1.9697 -1.5591  1.8112
 9130SOL    HW229323   6.598   4.324   0.175 -2.2081 -1.1246 -0.9694
 9131SOL     OW29324   8.191   4.004   5.692 -0.2200  0.7530 -0.3336
 9131SOL    HW129325   8.253   4.026   5.622 -0.2754  0.5042 -0.4604
 9131SOL    HW229326   8.207   4.071   5.759  0.2260  0.6609 -0.3411
 9132SOL     OW29327   0.277   4.841   1.379 -0.1627  0.6932  0.3829
 9132SOL    HW129328   0.275   4.908   1.311 -1.5574 -0.2687 -0.5614
 9132SOL    HW229329   0.223   4.769   1.345 -0.4557 -0.0454  2.2607
 9133SOL     OW29330   0.787   5.353   8.458  0.6548 -0.5724 -0.4754
 9133SOL    HW129331   0.748   5.426   8.507  0.3431 -1.8082  1.2444
 9133SOL    HW229332   0.879   5.354   8.484  0.9550 -0.0058 -1.5057
 9134SOL     OW29333   5.191   6.828   2.149  0.7369  0.0427  0.3080
 9134SOL    HW129334   5.188   6.923   2.158  0.9851  0.1309 -0.4616
 9134SOL    HW229335   5.109   6.797   2.189  0.3324  0.6297 -0.0532
 9135SOL     OW29336   4.663   5.192   2.778  0.0150  0.5475  0.0539
 9135SOL    HW129337   4.733   5.129   2.758 -1.0934 -0.4686 -0.8308
 9135SOL    HW229338   4.680   5.220   2.868  0.9601 -0.4843  0.2176
 9136SOL     OW29339   3.910   7.420   6.324 -0.4264 -0.5814  0.3447
 9136SOL    HW129340   3.946   7.499   6.284 -2.0043 -0.3027 -0.6092
 9136SOL    HW229341   3.950   7.416   6.411  0.1090  0.9451  0.1878
 9137SOL     OW29342   0.200   4.429   3.426 -0.0007  0.3491 -0.0126
 9137SOL    HW129343   0.116   4.430   3.381 -0.5936 -3.2154  0.7100
 9137SOL    HW229344   0.183   4.472   3.510 -1.8691 -2.2544  1.0782
 9138SOL     OW29345   7.684   2.332   7.633 -0.2469  0.4661  0.2537
 9138SOL    HW129346   7.613   2.335   7.697  0.9480  1.4917  1.6004
 9138SOL    HW229347   7.713   2.240   7.633 -0.0673  0.5052  1.4438
 9139SOL     OW29348   7.511   7.400   4.268  0.1617 -0.3151  0.3612
 9139SOL    HW129349   7.601   7.368   4.273 -0.1585 -1.3034 -0.0118
 9139SOL    HW229350   7.461   7.341   4.324 -0.3610 -0.1549  0.0705
 9140SOL     OW29351   1.381   4.771   3.610 -0.4919  0.2359 -0.3485
 9140SOL    HW129352   1.331   4.715   3.551 -0.3217 -0.4546  0.1524
 9140SOL    HW229353   1.317   4.834   3.644 -1.3218 -1.3686  1.2053
 9141SOL     OW29354   8.613   3.801   4.048  0.6970 -0.6022 -0.4522
 9141SOL    HW129355   8.667   3.783   3.970  0.3183 -1.9936 -0.4207
 9141SOL    HW229356   8.647   3.741   4.114  0.6149  0.1548  0.2910
 9142SOL     OW29357   7.257   0.833   1.331 -0.1629 -0.3386  0.1857
 9142SOL    HW129358   7.256   0.929   1.325 -0.5360 -0.2382  1.5707
 9142SOL    HW229359   7.224   0.814   1.418  2.3489 -1.6265  0.9629
 9143SOL     OW29360   1.634   6.217   2.698  0.0122 -0.2787  0.1251
 9143SOL    HW129361   1.619   6.138   2.647 -0.3514 -0.4925  0.5522
 9143SOL    HW229362   1.558   6.222   2.757  0.3528  0.0339  0.5456
 9144SOL     OW29363   4.580   3.257   1.163  0.1019  0.5535  0.1183
 9144SOL    HW129364   4.654   3.201   1.189 -0.2974 -1.1277 -2.0072
 9144SOL    HW229365   4.545   3.214   1.085 -1.9805  2.3440 -0.0150
 9145SOL     OW29366   0.806   4.244   3.930  0.0769 -0.2330 -0.1373
 9145SOL    HW129367   0.859   4.247   3.850  0.8767 -0.1199  0.3866
 9145SOL    HW229368   0.867   4.216   3.998 -0.8432 -1.3506  0.2507
 9146SOL     OW29369   7.755   0.927   5.173 -0.1524  0.0437 -0.1698
 9146SOL    HW129370   7.818   0.954   5.241 -0.7267 -0.9463  0.7822
 9146SOL    HW229371   7.703   0.859   5.214 -0.5039 -0.6075 -1.6378
 9147SOL     OW29372   1.780   3.618   7.579 -0.7284  0.1446 -0.1052
 9147SOL    HW129373   1.828   3.536   7.593 -2.9415 -1.0968  0.6490
 9147SOL    HW229374   1.706   3.593   7.524  0.1106  2.2683 -2.4036
 9148SOL     OW29375   2.377   7.430   5.193  0.4643 -0.1221 -0.1265
 9148SOL    HW129376   2.311   7.366   5.166  1.2999 -1.8314  1.6124
 9148SOL    HW229377   2.458   7.398   5.154  1.0003 -0.5248  1.2523
 9149SOL     OW29378   3.709   6.515   2.041 -0.2893  0.1522 -0.0936
 9149SOL    HW129379   3.675   6.462   2.113  0.1550  1.6351  1.2594
 9149SOL    HW229380   3.803   6.521   2.057 -0.5049  2.5083  0.6303
 9150SOL     OW29381   1.257   5.132   4.232 -0.0569  0.2420 -0.2044
 9150SOL    HW129382   1.197   5.079   4.285  1.5557 -0.5849  0.8752
 9150SOL    HW229383   1.210   5.146   4.150 -1.8464 -0.0863  0.7011
 9151SOL     OW29384   3.530   0.118   6.150 -0.0079  0.4228  0.3448
 9151SOL    HW129385   3.617   0.079   6.165  0.0782 -0.3466 -1.8001
 9151SOL    HW229386   3.477   0.088   6.224  1.2866  0.0786  1.1680
 9152SOL     OW29387   6.677   0.767   7.956 -0.6682 -0.7603 -0.1373
 9152SOL    HW129388   6.610   0.834   7.971  0.9641  0.8204  0.3928
 9152SOL    HW229389   6.667   0.745   7.863 -0.3347  1.2951 -0.7126
 9153SOL     OW29390   8.545   0.760   2.541 -0.2951 -0.0908  0.1926
 9153SOL    HW129391   8.477   0.693   2.553 -0.5718  0.0486 -0.5236
 9153SOL    HW229392   8.501   0.830   2.493  0.3154  0.0605 -0.1564
 9154SOL     OW29393   4.771   8.311   7.227 -0.0396 -0.2178 -0.7185
 9154SOL    HW129394   4.802   8.226   7.195  1.5041  0.6808 -1.7959
 9154SOL    HW229395   4.679   8.314   7.204  0.5618 -0.4006 -3.5597
 9155SOL     OW29396   1.080   5.160   5.543  0.2500 -0.4075 -0.0895
 9155SOL    HW129397   1.024   5.129   5.615  0.1004 -0.5794 -0.2764
 9155SOL    HW229398   1.146   5.091   5.534 -0.1371 -0.7269 -0.5667
 9156SOL     OW29399   0.193   0.120   6.372 -0.5195 -0.0624 -0.1575
 9156SOL    HW129400   0.275   0.142   6.415 -2.4759  1.6100  3.1150
 9156SOL    HW229401   0.168   0.200   6.326 -1.1624  0.0662  0.4020
 9157SOL     OW29402   6.790   7.255   8.156  0.1573 -0.4649 -0.1147
 9157SOL    HW129403   6.813   7.205   8.234 -0.8269 -0.4248  0.2005
 9157SOL    HW229404   6.775   7.189   8.089  0.5110 -0.5158 -0.1484
 9158SOL     OW29405   8.511   5.658   3.910  0.5278  0.5794  0.5595
 9158SOL    HW129406   8.434   5.602   3.899  0.7366  0.0030  1.8551
 9158SOL    HW229407   8.528   5.693   3.822 -2.7411  2.8137  0.6309
 9159SOL     OW29408   7.532   0.754   4.690  0.0128 -0.6203 -0.1920
 9159SOL    HW129409   7.490   0.675   4.724 -0.8503 -0.4666 -0.8700
 9159SOL    HW229410   7.563   0.728   4.603 -3.9195  0.8209 -2.2751
 9160SOL     OW29411   6.493   5.424   3.205  0.3658 -0.0789 -0.1222
 9160SOL    HW129412   6.585   5.398   3.198  0.2669 -0.1420 -1.4317
 9160SOL    HW229413   6.484   5.498   3.145 -1.1143 -2.0592 -2.5529
 9161SOL     OW29414   5.064   5.574   4.787  0.2362 -0.4288  0.4602
 9161SOL    HW129415   5.156   5.592   4.807 -0.1975  0.7305  1.5256
 9161SOL    HW229416   5.059   5.479   4.781  1.2316 -0.5976  1.8561
 9162SOL     OW29417   3.721   2.506   6.491  0.0242 -0.3998  0.0887
 9162SOL    HW129418   3.651   2.530   6.552 -0.1384  0.0945 -0.2821
 9162SOL    HW229419   3.775   2.585   6.485  0.2326 -0.5576 -0.1479
 9163SOL     OW29420   3.435   2.844   0.610  0.0652 -0.1957  0.1223
 9163SOL    HW129421   3.465   2.792   0.535  0.4707  1.3760 -0.8573
 9163SOL    HW229422   3.389   2.918   0.571  0.4716  0.7825  1.4112
 9164SOL     OW29423   2.725   7.985   7.711  0.3226 -0.6015 -0.4416
 9164SOL    HW129424   2.811   7.986   7.667  0.6667 -0.9420  0.1999
 9164SOL    HW229425   2.672   7.925   7.658  1.1038 -1.9546  0.2465
 9165SOL     OW29426   0.850   4.553   0.298  0.6350 -0.2557 -0.2386
 9165SOL    HW129427   0.931   4.533   0.251  0.0415  1.2223 -2.0160
 9165SOL    HW229428   0.788   4.487   0.268  0.7413 -0.3885 -0.1664
 9166SOL     OW29429   8.081   1.101   6.786  0.0883  0.0464 -0.8405
 9166SOL    HW129430   8.018   1.059   6.845  0.6440  0.1438 -0.1539
 9166SOL    HW229431   8.149   1.135   6.845 -0.8860  2.9381 -1.2180
 9167SOL     OW29432   1.179   5.809   8.286  0.2018 -0.0578 -0.0784
 9167SOL    HW129433   1.155   5.819   8.194 -1.8207 -0.0391  0.4151
 9167SOL    HW229434   1.125   5.736   8.318 -0.2674  0.9030  1.4454
 9168SOL     OW29435   7.794   0.838   6.674 -0.2039 -0.0140  0.0635
 9168SOL    HW129436   7.794   0.920   6.724 -1.9098 -0.7878  1.4629
 9168SOL    HW229437   7.794   0.866   6.582  1.0922  1.4925  0.4770
 9169SOL     OW29438   2.246   3.205   0.909  0.2408  0.0326  0.1427
 9169SOL    HW129439   2.305   3.253   0.967  2.4693 -1.4197 -0.7752
 9169SOL    HW229440   2.217   3.130   0.961 -0.6519  0.6274  0.5200
 9170SOL     OW29441   4.799   7.269   3.052 -0.1655  0.4480 -0.0079
 9170SOL    HW129442   4.799   7.273   2.956 -1.5021  0.0652 -0.0332
 9170SOL    HW229443   4.892   7.275   3.075  0.4272 -1.8802 -1.4458
 9171SOL     OW29444   6.061   5.105   2.837  0.7484  0.3200 -0.0697
 9171SOL    HW129445   6.029   5.187   2.798  0.3174 -0.4769 -1.4568
 9171SOL    HW229446   5.991   5.079   2.898  1.7609  1.9640  1.9069
 9172SOL     OW29447   2.335   1.099   8.768 -1.0341  0.0166 -0.0506
 9172SOL    HW129448   2.300   1.016   8.802 -1.5099 -0.1058 -0.8315
 9172SOL    HW229449   2.295   1.109   8.682  1.6912 -0.7246 -1.5383
 9173SOL     OW29450   6.613   8.284   3.622 -0.3547 -0.0871 -0.2753
 9173SOL    HW129451   6.595   8.192   3.641  0.7614 -0.2697 -0.0416
 9173SOL    HW229452   6.530   8.319   3.590 -0.6996 -1.2571 -0.6851
 9174SOL     OW29453   0.870   1.041   3.569  0.4279 -0.4446  0.1728
 9174SOL    HW129454   0.808   0.969   3.574 -0.4725  0.3164  0.1887
 9174SOL    HW229455   0.952   1.000   3.542 -0.5451 -1.2138 -1.7986
 9175SOL     OW29456   0.023   4.901   8.486  0.1815 -0.5031  0.2602
 9175SOL    HW129457   0.115   4.929   8.487  0.4006 -1.1994  1.4620
 9175SOL    HW229458  -0.019   4.959   8.423  1.6586 -0.8324 -1.0918
 9176SOL     OW29459   2.678   6.155   5.211  0.1143  0.1522  0.4088
 9176SOL    HW129460   2.631   6.132   5.131  0.4492  0.7934  0.0174
 9176SOL    HW229461   2.610   6.187   5.270  0.0322  0.9770 -0.1178
 9177SOL     OW29462   5.474   4.934   2.412  0.3971 -0.2685 -0.1072
 9177SOL    HW129463   5.565   4.939   2.440  0.4026  2.9350 -0.2305
 9177SOL    HW229464   5.424   4.971   2.485 -0.7027 -1.0376 -0.4426
 9178SOL     OW29465   3.546   4.810   8.273 -0.5191 -0.2455 -0.1560
 9178SOL    HW129466   3.501   4.865   8.209  0.4403 -0.1617 -0.7632
 9178SOL    HW229467   3.537   4.721   8.238  2.9606  0.0929 -2.3090
 9179SOL     OW29468   6.024   8.601   4.591  0.4004  0.3338 -0.4036
 9179SOL    HW129469   6.089   8.667   4.614  0.8544  1.2201 -3.6535
 9179SOL    HW229470   5.940   8.646   4.596  0.4858  0.4976 -0.4562
 9180SOL     OW29471   4.533   8.160   6.605  0.2908 -0.4081 -0.1062
 9180SOL    HW129472   4.629   8.154   6.608  0.2508 -0.6842  1.1844
 9180SOL    HW229473   4.505   8.132   6.693 -0.9653 -0.2258 -0.4403
 9181SOL     OW29474   7.420   1.771   0.728  0.0549 -0.1806 -0.4236
 9181SOL    HW129475   7.399   1.825   0.804  0.7767  0.6879 -0.8118
 9181SOL    HW229476   7.399   1.682   0.754 -0.4643  0.2055  0.5040
 9182SOL     OW29477   4.191   6.123   1.637  0.1694 -0.1554  0.4627
 9182SOL    HW129478   4.180   6.147   1.545  1.5810 -1.9747 -0.2274
 9182SOL    HW229479   4.254   6.051   1.637 -1.5785 -1.8358  2.6444
 9183SOL     OW29480   2.596   0.890   8.802  0.2664  1.0360 -0.1418
 9183SOL    HW129481   2.508   0.920   8.778 -0.2977 -1.0622 -0.9205
 9183SOL    HW229482   2.585   0.852   8.889 -0.1799 -1.2795 -1.1327
 9184SOL     OW29483   2.701   6.286   8.439 -0.0752  0.1943 -0.0625
 9184SOL    HW129484   2.753   6.258   8.364  1.6582  0.0918  1.0963
 9184SOL    HW229485   2.611   6.265   8.416  0.3094  0.9395 -2.4138
 9185SOL     OW29486   1.394   7.283   1.671 -0.0129 -0.4236  0.0178
 9185SOL    HW129487   1.375   7.369   1.708  1.4694  0.2950 -0.8008
 9185SOL    HW229488   1.342   7.222   1.723 -2.3107  1.0968 -0.3596
 9186SOL     OW29489   2.187   8.442   2.409  0.8238 -0.3363 -0.1909
 9186SOL    HW129490   2.181   8.347   2.399  2.1611 -0.7592  2.2279
 9186SOL    HW229491   2.185   8.456   2.503 -2.5515  2.3474 -0.4980
 9187SOL     OW29492   5.976   4.253   3.743 -0.0971  0.5373  0.2803
 9187SOL    HW129493   6.031   4.191   3.696  0.6471  0.7388  0.8743
 9187SOL    HW229494   5.908   4.198   3.783 -0.2655  0.2751 -0.3475
 9188SOL     OW29495   7.857   3.608   3.765 -0.0829  0.7954 -0.3388
 9188SOL    HW129496   7.765   3.592   3.789  0.1087 -1.7034 -1.0274
 9188SOL    HW229497   7.897   3.639   3.846 -0.7247 -1.8590  1.0961
 9189SOL     OW29498   4.790   2.918   2.825 -0.3350 -0.5797  0.2386
 9189SOL    HW129499   4.826   2.875   2.747 -0.5837  1.5608 -1.1413
 9189SOL    HW229500   4.821   2.865   2.898  2.3114 -1.0925 -1.1286
 9190SOL     OW29501   4.949   5.811   3.878 -0.7842  0.1991 -0.1273
 9190SOL    HW129502   4.904   5.861   3.810  0.0468  0.9100 -0.1663
 9190SOL    HW229503   4.933   5.860   3.958 -1.3675 -0.3853  0.1256
 9191SOL     OW29504   6.195   6.548   4.845  0.1127 -0.3577  0.0754
 9191SOL    HW129505   6.235   6.477   4.795 -1.1579  0.1232 -1.7437
 9191SOL    HW229506   6.268   6.607   4.865  0.5154  0.2797 -2.7631
 9192SOL     OW29507   1.348   0.912   5.768 -0.1203  0.3307  0.3754
 9192SOL    HW129508   1.355   0.855   5.845  1.2940 -0.9862 -0.6454
 9192SOL    HW229509   1.425   0.969   5.773  0.0601  0.1377 -0.1155
 9193SOL     OW29510   0.149   5.527   2.852  0.3359  0.8013  0.0825
 9193SOL    HW129511   0.171   5.483   2.770  0.6499  0.2496  0.4597
 9193SOL    HW229512   0.153   5.459   2.918 -1.5704  0.8690  0.3347
 9194SOL     OW29513   2.599   7.677   0.921  0.0755  0.4505 -0.6563
 9194SOL    HW129514   2.579   7.737   0.850  0.8086  0.7465 -0.6198
 9194SOL    HW229515   2.638   7.732   0.989 -0.7507  0.1980  0.0402
 9195SOL     OW29516   3.785   1.111   1.387 -0.3476 -0.5517  0.0767
 9195SOL    HW129517   3.797   1.016   1.386 -0.1495 -0.5553  1.2353
 9195SOL    HW229518   3.776   1.135   1.295  0.5117 -1.5788 -0.2983
 9196SOL     OW29519   4.603   0.766   1.260  1.5139  0.1250  0.1901
 9196SOL    HW129520   4.525   0.769   1.316  0.9078 -1.2140 -0.5264
 9196SOL    HW229521   4.675   0.746   1.320  0.8454 -1.5004  0.5123
 9197SOL     OW29522   4.835   6.995   7.185  0.1861 -0.0903  0.2135
 9197SOL    HW129523   4.876   6.989   7.099 -1.9942  1.1255 -0.9818
 9197SOL    HW229524   4.781   6.916   7.191 -0.1804  0.1589  0.1858
 9198SOL     OW29525   1.361   3.856   2.628 -0.2876  0.8642  0.2146
 9198SOL    HW129526   1.333   3.839   2.718 -0.4118  1.7207  0.3486
 9198SOL    HW229527   1.294   3.916   2.594 -0.2927  0.4653 -0.4796
 9199SOL     OW29528   3.556   1.655   8.657 -0.4268 -0.0071  0.3450
 9199SOL    HW129529   3.498   1.581   8.644  0.5896 -0.8989  0.7207
 9199SOL    HW229530   3.625   1.643   8.592 -1.3939  1.8584 -1.1267
 9200SOL     OW29531   5.165   3.512   8.612 -0.1087 -0.1539  0.0522
 9200SOL    HW129532   5.253   3.482   8.637 -0.2377  0.7212  1.6886
 9200SOL    HW229533   5.155   3.483   8.521  1.7747 -0.4757 -0.1008
 9201SOL     OW29534   3.500   6.892   2.204 -0.7019 -0.3617  0.1538
 9201SOL    HW129535   3.590   6.881   2.234 -0.2611  1.1875 -0.4850
 9201SOL    HW229536   3.486   6.819   2.143  0.0730 -0.6820  0.3422
 9202SOL     OW29537   5.429   4.761   2.181 -0.2057  0.3152  0.2937
 9202SOL    HW129538   5.452   4.772   2.089  0.1979 -0.5493  0.2805
 9202SOL    HW229539   5.433   4.849   2.218  2.3447  0.3484  0.1037
 9203SOL     OW29540   6.889   0.303   8.768 -0.6238 -0.4666  0.0260
 9203SOL    HW129541   6.816   0.329   8.712 -0.8040  0.1666  0.5471
 9203SOL    HW229542   6.946   0.380   8.771  0.9158 -1.4595 -1.6788
 9204SOL     OW29543   0.413   8.523   5.558  0.2070  0.1470  0.2270
 9204SOL    HW129544   0.391   8.546   5.468  1.5571 -0.7166 -0.3574
 9204SOL    HW229545   0.486   8.582   5.581  0.0495  0.1786  0.6667
 9205SOL     OW29546   6.985   0.277   4.279 -0.6575  0.0527  0.6642
 9205SOL    HW129547   6.913   0.339   4.288 -1.5315 -1.0375  1.5112
 9205SOL    HW229548   6.998   0.269   4.184 -1.4236  0.5204  0.5079
 9206SOL     OW29549   7.111   7.494   8.853  0.5550  0.6621  0.3783
 9206SOL    HW129550   7.159   7.552   8.793  1.5944 -0.1286  0.4155
 9206SOL    HW229551   7.145   7.407   8.835 -1.7431 -0.1277 -0.4095
 9207SOL     OW29552   0.618   3.947   5.487  0.2540 -0.4823 -0.0424
 9207SOL    HW129553   0.663   3.864   5.469  0.5647  0.1254 -2.3563
 9207SOL    HW229554   0.578   3.971   5.404 -0.8658  1.1113  0.9024
 9208SOL     OW29555   5.268   6.200   3.686  0.1059  0.3514 -0.4999
 9208SOL    HW129556   5.343   6.154   3.649  0.2602  0.1045  0.1183
 9208SOL    HW229557   5.303   6.285   3.713  0.3669 -0.0937  0.5958
 9209SOL     OW29558   6.916   1.197   8.581 -0.1804 -1.0288  0.7390
 9209SOL    HW129559   6.972   1.130   8.621  1.2157 -0.3297  0.0263
 9209SOL    HW229560   6.855   1.222   8.651  1.7486 -0.3208  2.2380
 9210SOL     OW29561   6.981   5.495   0.678 -0.5897  0.6009 -0.0109
 9210SOL    HW129562   7.059   5.441   0.689 -0.3906  1.0629  0.9175
 9210SOL    HW229563   7.012   5.585   0.685 -1.3924  0.7873  1.9955
 9211SOL     OW29564   3.707   4.657   7.696 -1.0229 -0.1640  0.5477
 9211SOL    HW129565   3.794   4.642   7.732 -0.9215  2.7525  1.8323
 9211SOL    HW229566   3.652   4.671   7.773 -1.4378  3.2735 -0.2028
 9212SOL     OW29567   6.637   1.129   4.911 -0.1060  0.1120 -0.0546
 9212SOL    HW129568   6.563   1.164   4.861 -1.4212 -0.4864  1.3969
 9212SOL    HW229569   6.707   1.193   4.898 -1.7506  2.1788  0.7888
 9213SOL     OW29570   1.475   7.382   2.554 -0.5374  0.0693 -0.1848
 9213SOL    HW129571   1.525   7.426   2.486 -0.1097  0.3154  0.2800
 9213SOL    HW229572   1.426   7.313   2.508 -0.6632  0.5723 -0.8082
 9214SOL     OW29573   5.848   5.007   4.382  0.0490  0.0296 -0.0764
 9214SOL    HW129574   5.843   5.014   4.286  2.4961  1.2486 -0.1825
 9214SOL    HW229575   5.802   5.084   4.414 -0.8341 -0.4154 -0.2544
 9215SOL     OW29576   8.033   3.570   6.469  0.0233  0.1787  0.1615
 9215SOL    HW129577   7.958   3.576   6.527  1.2425 -0.8005  1.9088
 9215SOL    HW229578   8.004   3.614   6.389 -1.5064  2.1644  1.6879
 9216SOL     OW29579   1.347   2.694   1.115 -0.2628  0.5047  0.0116
 9216SOL    HW129580   1.282   2.724   1.051 -0.3380 -0.7728 -0.5577
 9216SOL    HW229581   1.313   2.609   1.143  1.1967 -0.2230 -0.3581
 9217SOL     OW29582   5.615   3.508   6.717  0.5960 -0.3228  0.3476
 9217SOL    HW129583   5.601   3.597   6.750  0.6043 -0.4857  0.7964
 9217SOL    HW229584   5.560   3.452   6.771  0.1932 -0.5387 -0.2706
 9218SOL     OW29585   2.817   3.770   3.887  0.2249 -0.2079 -0.9952
 9218SOL    HW129586   2.804   3.752   3.794  0.8050 -1.4660 -0.8682
 9218SOL    HW229587   2.837   3.863   3.892  0.8693 -0.2675 -2.2159
 9219SOL     OW29588   1.018   8.288   7.526  0.0231 -0.2796  0.0417
 9219SOL    HW129589   0.977   8.234   7.458  0.4122 -0.1527 -0.2963
 9219SOL    HW229590   0.982   8.376   7.513 -0.3435 -0.3778  0.3706
 9220SOL     OW29591   2.310   4.501   3.317 -0.3211 -0.4474 -0.1968
 9220SOL    HW129592   2.318   4.578   3.260 -0.2166 -2.2065 -2.6970
 9220SOL    HW229593   2.374   4.516   3.386  0.6239  1.1165 -1.3377
 9221SOL     OW29594   8.268   7.124   5.438  0.5385 -0.0802 -0.2185
 9221SOL    HW129595   8.260   7.140   5.344 -0.4436  0.6697 -0.0243
 9221SOL    HW229596   8.359   7.096   5.450  0.9790  0.8386 -1.2476
 9222SOL     OW29597   1.779   8.357   6.335  0.2611  0.5862 -0.0427
 9222SOL    HW129598   1.864   8.400   6.322  0.4337  0.4619  0.6182
 9222SOL    HW229599   1.794   8.266   6.310 -0.0339  0.8359 -1.1869
 9223SOL     OW29600   8.372   3.990   5.312 -0.9550 -0.1600  0.1465
 9223SOL    HW129601   8.290   4.031   5.341  0.2727  2.2675  0.4568
 9223SOL    HW229602   8.423   3.979   5.392 -1.0653 -2.0379  0.0128
 9224SOL     OW29603   2.518   0.721   5.377  0.7312  0.1718  0.0081
 9224SOL    HW129604   2.470   0.804   5.371  1.4695  0.5391 -1.1118
 9224SOL    HW229605   2.476   0.675   5.450 -0.7466  0.8456 -0.3724
 9225SOL     OW29606   4.969   0.992   7.571  0.0080 -0.5680 -0.4178
 9225SOL    HW129607   4.917   1.049   7.627  1.4202 -0.2190  0.6014
 9225SOL    HW229608   4.906   0.932   7.531 -1.1520 -0.1512  0.7381
 9226SOL     OW29609   3.095   1.765   2.665 -0.2624  0.5032 -0.1271
 9226SOL    HW129610   3.153   1.713   2.609 -0.9274 -0.4586  0.0464
 9226SOL    HW229611   3.151   1.793   2.738  0.4172  1.1115 -0.8621
 9227SOL     OW29612   4.370   0.729   5.820  0.4338  0.1004  0.2915
 9227SOL    HW129613   4.290   0.742   5.871  0.2248  2.1735 -0.4383
 9227SOL    HW229614   4.359   0.644   5.778 -0.2373 -0.7794  2.1543
 9228SOL     OW29615   7.478   7.421   4.971 -0.7975  0.3812  0.2258
 9228SOL    HW129616   7.420   7.406   5.046 -1.3760  0.7749 -0.1317
 9228SOL    HW229617   7.565   7.430   5.009 -0.9034 -0.6613  0.7329
 9229SOL     OW29618   8.570   7.077   7.215  1.1433 -0.6556 -0.2964
 9229SOL    HW129619   8.646   7.032   7.252  2.2980  0.7819 -0.7788
 9229SOL    HW229620   8.600   7.168   7.203 -0.6324 -0.0654 -0.5910
 9230SOL     OW29621   5.382   3.559   3.805 -0.0697  0.0312  0.1662
 9230SOL    HW129622   5.366   3.638   3.753  2.7317  1.1886  0.8817
 9230SOL    HW229623   5.332   3.573   3.885 -1.1019  0.1616 -0.4791
 9231SOL     OW29624   6.426   5.994   0.621 -0.5467  0.2475 -0.5961
 9231SOL    HW129625   6.336   5.992   0.587 -0.6077  0.4571 -0.4504
 9231SOL    HW229626   6.480   6.016   0.545 -0.2575 -2.7316 -1.4045
 9232SOL     OW29627   5.527   7.201   7.983  0.0548  0.0132 -0.0603
 9232SOL    HW129628   5.481   7.155   7.913  1.5146  1.3583 -2.0119
 9232SOL    HW229629   5.470   7.273   8.007 -0.5090 -0.5298  0.2612
 9233SOL     OW29630   6.887   5.089   2.307 -0.3929  0.4523  0.4308
 9233SOL    HW129631   6.932   5.012   2.340 -0.1639  0.3734 -0.0553
 9233SOL    HW229632   6.859   5.065   2.219 -0.5053  0.8493  0.3541
 9234SOL     OW29633   8.010   0.036   1.691 -0.3624 -0.0805 -0.0212
 9234SOL    HW129634   7.936   0.013   1.747  1.9536 -0.9769  3.0053
 9234SOL    HW229635   8.060   0.100   1.742  0.6625  0.9725 -2.2025
 9235SOL     OW29636   4.543   5.817   6.005  0.1659  0.2149  0.1946
 9235SOL    HW129637   4.574   5.760   6.075 -2.5428 -0.9508  0.5633
 9235SOL    HW229638   4.526   5.901   6.047  2.3406  0.8158  0.0292
 9236SOL     OW29639   3.346   7.091   6.071 -0.0759 -0.0073  0.0649
 9236SOL    HW129640   3.385   7.108   5.985 -2.3977 -0.3557 -1.1278
 9236SOL    HW229641   3.266   7.042   6.052 -0.7998  0.1494  2.4223
 9237SOL     OW29642   4.096   3.263   0.833  0.4198  0.0062 -0.2523
 9237SOL    HW129643   4.042   3.184   0.825  1.3373 -0.7386  0.6812
 9237SOL    HW229644   4.121   3.284   0.743 -1.2194  0.2533 -0.6893
 9238SOL     OW29645   5.008   2.440   1.020  0.7956 -0.2552  0.0060
 9238SOL    HW129646   5.028   2.466   1.110 -1.0829 -0.4507  0.5387
 9238SOL    HW229647   5.022   2.345   1.019  0.9332 -0.2356  0.0612
 9239SOL     OW29648   4.510   5.319   6.897  0.1450  0.0973 -0.3350
 9239SOL    HW129649   4.443   5.303   6.832  1.6416  0.2077 -1.9701
 9239SOL    HW229650   4.531   5.233   6.932 -0.7028  0.0459  0.0799
 9240SOL     OW29651   6.799   7.707   8.867 -0.9833 -0.0099 -0.4087
 9240SOL    HW129652   6.810   7.622   8.825 -1.7469 -0.1538 -0.3302
 9240SOL    HW229653   6.858   7.765   8.820 -0.9642 -0.4290 -0.9072
 9241SOL     OW29654   2.271   5.118   7.086  0.2841  0.4595  0.5124
 9241SOL    HW129655   2.342   5.084   7.031  0.5403  0.0466  1.0834
 9241SOL    HW229656   2.200   5.054   7.075  0.2896  0.4456  0.5571
 9242SOL     OW29657   1.214   4.645   7.135  0.2935 -0.3033 -0.4858
 9242SOL    HW129658   1.296   4.684   7.162  1.5018 -2.0824 -1.3922
 9242SOL    HW229659   1.238   4.559   7.101 -2.2474 -2.1352  1.8946
 9243SOL     OW29660   3.119   1.855   3.225 -0.5767  0.3554 -0.1842
 9243SOL    HW129661   3.192   1.870   3.285  0.0261  0.1422 -0.8485
 9243SOL    HW229662   3.121   1.761   3.209 -0.9789  0.3555 -0.2410
 9244SOL     OW29663   4.175   0.546   1.461 -0.1564  0.1812 -0.2391
 9244SOL    HW129664   4.234   0.544   1.386  0.0744 -2.3622 -0.0608
 9244SOL    HW229665   4.226   0.586   1.531 -0.0054  1.5528 -1.0831
 9245SOL     OW29666   6.943   0.829   2.489  0.1463  0.1543  0.0274
 9245SOL    HW129667   6.924   0.747   2.445  1.3212  0.1751 -0.5535
 9245SOL    HW229668   6.866   0.846   2.543 -0.8259 -0.4524 -1.1380
 9246SOL     OW29669   5.160   1.427   2.278  0.2833  0.8669  0.0671
 9246SOL    HW129670   5.177   1.465   2.364 -2.3779  0.9905  0.6117
 9246SOL    HW229671   5.213   1.347   2.277  2.1015  1.9712  0.8589
 9247SOL     OW29672   0.217   7.589   4.263 -0.0985 -0.1268  0.3319
 9247SOL    HW129673   0.272   7.638   4.324 -1.6172  0.7090  1.0759
 9247SOL    HW229674   0.130   7.627   4.273 -0.5861 -0.6053 -1.6801
 9248SOL     OW29675   3.795   2.527   5.627  0.0107 -0.4348 -0.0523
 9248SOL    HW129676   3.809   2.556   5.537 -1.5213  1.3467  0.2100
 9248SOL    HW229677   3.874   2.555   5.674 -0.1529  0.6994 -0.4161
 9249SOL     OW29678   0.446   6.440   5.950 -0.2191  0.7114 -0.2382
 9249SOL    HW129679   0.385   6.470   5.882 -0.9059  0.5374  0.2881
 9249SOL    HW229680   0.394   6.380   6.004  0.5664  0.1568 -0.0780
 9250SOL     OW29681   8.281   0.882   3.133 -0.6803  0.2823  0.1540
 9250SOL    HW129682   8.225   0.944   3.179 -0.8968 -0.0522  0.3513
 9250SOL    HW229683   8.312   0.930   3.056  0.3579  1.1218  1.0682
 9251SOL     OW29684   1.935   1.947   6.460  0.2067  0.4668  0.6093
 9251SOL    HW129685   1.943   1.931   6.366  0.3632  1.8877  0.3592
 9251SOL    HW229686   1.882   2.026   6.466  0.9382  0.8881  1.6902
 9252SOL     OW29687   2.288   4.235   3.203 -0.1561 -0.3246 -0.6677
 9252SOL    HW129688   2.300   4.247   3.297 -1.8168  2.4979 -0.6812
 9252SOL    HW229689   2.374   4.251   3.165  1.0334 -3.5605  0.4027
 9253SOL     OW29690   5.371   6.363   1.451  0.0104 -0.9008  0.2731
 9253SOL    HW129691   5.390   6.273   1.424  0.9602 -0.5795 -0.1613
 9253SOL    HW229692   5.380   6.361   1.547  0.2567 -1.2184  0.2475
 9254SOL     OW29693   8.717   8.814   7.734  0.1378  0.5097  0.9203
 9254SOL    HW129694   8.704   8.741   7.794  0.9931 -0.1937  0.2770
 9254SOL    HW229695   8.726   8.891   7.790 -2.3047  0.4217  1.5659
 9255SOL     OW29696   8.460   7.514   1.740 -0.1038 -0.2071  0.1910
 9255SOL    HW129697   8.479   7.422   1.724  1.5795  0.2376 -0.6536
 9255SOL    HW229698   8.382   7.532   1.688  1.1243 -0.5503 -1.9050
 9256SOL     OW29699   6.151   3.683   6.663 -0.2821 -0.0488  0.5107
 9256SOL    HW129700   6.207   3.759   6.645 -1.1668  0.1115 -2.0079
 9256SOL    HW229701   6.132   3.647   6.576 -3.1130 -0.7937  1.3439
 9257SOL     OW29702   5.332   2.428   2.057  0.0994  0.4248  0.3294
 9257SOL    HW129703   5.341   2.335   2.077 -0.7426 -0.0550 -1.2800
 9257SOL    HW229704   5.352   2.434   1.963 -0.9742  1.6662  0.1429
 9258SOL     OW29705   0.504   0.118   0.490 -0.3881  0.4182  0.4070
 9258SOL    HW129706   0.554   0.150   0.565 -0.0976  0.1754  0.3196
 9258SOL    HW229707   0.559   0.137   0.414 -0.6013  0.5029  0.2724
 9259SOL     OW29708   3.486   3.057   2.294 -0.5096 -0.2101 -0.6440
 9259SOL    HW129709   3.440   3.121   2.350 -0.0981  1.7843 -2.4606
 9259SOL    HW229710   3.415   3.009   2.251 -0.9207  1.2430 -1.6585
 9260SOL     OW29711   7.424   3.777   4.663  0.2332  0.1094 -0.3929
 9260SOL    HW129712   7.512   3.742   4.674  0.1801  0.1049  0.0357
 9260SOL    HW229713   7.434   3.850   4.602  0.4135 -0.3665 -0.9366
 9261SOL     OW29714   5.982   6.252   4.943  0.0884 -0.4416 -1.1501
 9261SOL    HW129715   5.956   6.344   4.947 -0.4419 -0.5010 -2.5601
 9261SOL    HW229716   5.907   6.204   4.979  1.2425 -0.2591  1.7405
 9262SOL     OW29717   6.462   1.091   1.889 -0.2770 -0.9435 -0.4844
 9262SOL    HW129718   6.543   1.042   1.875  0.7656  0.2586  0.9025
 9262SOL    HW229719   6.470   1.168   1.834 -0.4296 -0.7773 -0.2789
 9263SOL     OW29720   0.533   3.500   1.943  0.1709  0.2573 -0.3537
 9263SOL    HW129721   0.583   3.419   1.954 -0.6671 -0.2516 -0.2236
 9263SOL    HW229722   0.520   3.508   1.849 -1.3612 -0.7821 -0.2654
 9264SOL     OW29723   5.613   3.933   8.375 -0.2380  0.4234  0.4162
 9264SOL    HW129724   5.694   3.930   8.427  0.4848  0.3327 -0.6950
 9264SOL    HW229725   5.565   3.855   8.401  0.9564 -0.6081 -0.3701
 9265SOL     OW29726   4.816   4.986   8.434 -0.1314 -0.0005 -0.5819
 9265SOL    HW129727   4.784   4.996   8.524 -0.2221  0.2255 -0.6397
 9265SOL    HW229728   4.897   5.037   8.432  0.1283 -0.4081 -0.4928
 9266SOL     OW29729   8.724   8.271   5.215  0.2865  0.2528 -0.9901
 9266SOL    HW129730   8.711   8.340   5.150  0.0960 -0.0535 -1.2802
 9266SOL    HW229731   8.636   8.242   5.237  0.2158  1.7237  0.9111
 9267SOL     OW29732   1.529   1.702   6.729 -0.3545 -0.0243 -0.0413
 9267SOL    HW129733   1.597   1.766   6.752 -0.2970  0.4971 -1.5452
 9267SOL    HW229734   1.485   1.683   6.812  1.0426  0.2952  0.8129
 9268SOL     OW29735   6.245   8.815   1.280  0.0609 -1.1529 -0.4970
 9268SOL    HW129736   6.193   8.843   1.355  1.1417 -1.8412  0.5253
 9268SOL    HW229737   6.189   8.835   1.204 -1.3853 -1.2014  0.5152
 9269SOL     OW29738   7.457   8.554   1.887  0.4476 -0.1833  0.2999
 9269SOL    HW129739   7.396   8.585   1.954 -0.1867  0.4866 -0.5541
 9269SOL    HW229740   7.540   8.546   1.932 -0.1634 -0.6410  1.3830
 9270SOL     OW29741   0.395   6.348   1.329  0.0887 -0.4612  0.3445
 9270SOL    HW129742   0.375   6.364   1.237 -0.4481 -1.0712  0.3553
 9270SOL    HW229743   0.407   6.436   1.366 -0.3161 -0.1883 -0.1613
 9271SOL     OW29744   7.620   1.721   3.637  0.2144 -0.0278  0.3415
 9271SOL    HW129745   7.566   1.754   3.709 -0.5583 -0.6175  0.0486
 9271SOL    HW229746   7.568   1.739   3.558  0.3734 -0.7520  0.0666
 9272SOL     OW29747   4.124   5.813   6.083 -0.1691  0.2021 -0.2649
 9272SOL    HW129748   4.177   5.814   6.162 -1.4977  1.4009  0.6714
 9272SOL    HW229749   4.124   5.905   6.054 -2.4290  0.4454  0.3123
 9273SOL     OW29750   0.039   4.518   6.907  0.3687  0.7526  0.1344
 9273SOL    HW129751  -0.035   4.550   6.857  1.0545 -0.7302 -1.9841
 9273SOL    HW229752   0.112   4.519   6.845  1.6681  0.3554  1.5845
 9274SOL     OW29753   0.370   3.272   6.907 -0.5585 -0.6154  0.6854
 9274SOL    HW129754   0.449   3.235   6.866 -1.4388 -1.7615 -0.0427
 9274SOL    HW229755   0.340   3.204   6.966 -0.4306  0.2497  1.7825
 9275SOL     OW29756   6.730   6.164   7.288 -0.0606 -0.2215 -0.3897
 9275SOL    HW129757   6.645   6.158   7.332 -0.1206 -0.2551 -0.5077
 9275SOL    HW229758   6.767   6.247   7.317 -0.4949  0.1896 -0.9701
 9276SOL     OW29759   4.168   6.122   1.068  0.4620 -0.5103 -0.0973
 9276SOL    HW129760   4.249   6.129   1.018  0.5462 -0.9331 -0.0241
 9276SOL    HW229761   4.100   6.150   1.007  0.6548 -0.2415 -0.1888
 9277SOL     OW29762   7.976   5.162   2.084 -0.0959  0.1587  0.3286
 9277SOL    HW129763   8.058   5.115   2.101  1.1400  0.7040 -3.2135
 9277SOL    HW229764   7.998   5.254   2.101  0.5631  0.4740 -1.9276
 9278SOL     OW29765   1.435   1.743   4.211 -0.0525 -0.1262  0.1316
 9278SOL    HW129766   1.493   1.680   4.169 -1.5720 -2.3795  1.1894
 9278SOL    HW229767   1.490   1.787   4.275  0.9676 -0.6737 -0.3402
 9279SOL     OW29768   1.570   4.587   8.141  0.0723 -0.5212 -0.2174
 9279SOL    HW129769   1.663   4.574   8.122  0.4063  1.4005 -0.0649
 9279SOL    HW229770   1.525   4.554   8.063  1.1436  2.3608 -2.2450
 9280SOL     OW29771   6.178   3.089   7.874 -0.4760 -0.5859 -0.2465
 9280SOL    HW129772   6.158   3.031   7.800 -0.7801  0.0049 -0.6364
 9280SOL    HW229773   6.208   3.170   7.833 -2.1642  0.3234  0.2285
 9281SOL     OW29774   3.356   8.610   0.051  0.0625 -0.6773  0.4929
 9281SOL    HW129775   3.404   8.567  -0.020  1.5729  0.5716  0.6925
 9281SOL    HW229776   3.264   8.605   0.024  0.6151  0.2916 -1.8977
 9282SOL     OW29777   0.007   0.712   0.058 -0.4449 -0.1175 -0.0291
 9282SOL    HW129778   0.077   0.758   0.011 -0.6759 -0.5067 -0.7686
 9282SOL    HW229779  -0.068   0.772   0.052  0.0356  0.7040  1.5269
 9283SOL     OW29780   8.029   4.670   7.817 -0.4224  0.8886  0.2131
 9283SOL    HW129781   8.069   4.731   7.756 -1.6330  0.3592 -1.1461
 9283SOL    HW229782   8.081   4.680   7.897  0.9209  1.9142 -0.7330
 9284SOL     OW29783   4.661   6.477   5.104 -0.2628  0.3658  0.7894
 9284SOL    HW129784   4.669   6.571   5.124 -1.1988  0.4932  0.6115
 9284SOL    HW229785   4.610   6.441   5.177  0.7151 -0.1539  1.2289
 9285SOL     OW29786   0.460   3.254   5.942 -0.1445  0.3905 -0.6942
 9285SOL    HW129787   0.502   3.278   6.025 -0.0903  1.5748 -1.0526
 9285SOL    HW229788   0.456   3.158   5.945  0.3220  0.3834  0.4462
 9286SOL     OW29789   8.156   0.614   4.199  0.1717 -0.0619 -0.3355
 9286SOL    HW129790   8.198   0.699   4.182 -2.7651  1.2995 -1.3773
 9286SOL    HW229791   8.189   0.589   4.286  0.4153  2.6215  0.4440
 9287SOL     OW29792   5.082   0.411   0.627 -0.1622  0.1176  0.3036
 9287SOL    HW129793   5.035   0.334   0.595 -1.4421  0.4054  1.3857
 9287SOL    HW229794   5.159   0.375   0.671 -0.5616 -0.5415  0.4915
 9288SOL     OW29795   7.423   1.237   1.914 -0.0873 -0.2698 -0.1373
 9288SOL    HW129796   7.412   1.163   1.974  2.4921 -0.0912  0.6819
 9288SOL    HW229797   7.470   1.201   1.839  1.9195  0.5920  0.6254
 9289SOL     OW29798   6.435   5.638   8.290 -0.0624 -0.1678  0.0143
 9289SOL    HW129799   6.459   5.730   8.281 -1.3917  0.2513  0.4263
 9289SOL    HW229800   6.367   5.625   8.224 -0.2393 -0.7183  0.2989
 9290SOL     OW29801   4.356   1.747   6.294 -0.1195 -0.4097  0.0946
 9290SOL    HW129802   4.283   1.687   6.311 -0.2357 -0.5463 -0.7901
 9290SOL    HW229803   4.338   1.781   6.206 -0.0966  0.9914  0.6141
 9291SOL     OW29804   3.291   3.129   7.250 -0.3793  0.1630  0.5142
 9291SOL    HW129805   3.239   3.177   7.185  1.0545  0.6559 -0.3131
 9291SOL    HW229806   3.351   3.075   7.197 -0.5829 -1.0124  1.4399
 9292SOL     OW29807   0.514   0.720   3.821 -0.3145  0.7042  0.1679
 9292SOL    HW129808   0.517   0.738   3.915 -0.6290  0.8622  0.1493
 9292SOL    HW229809   0.498   0.626   3.815  1.5567  0.3410  0.2659
 9293SOL     OW29810   4.686   2.414   2.755  0.7391  0.0701  0.0144
 9293SOL    HW129811   4.689   2.461   2.672 -0.7760 -0.4173 -0.3547
 9293SOL    HW229812   4.773   2.376   2.765  1.1600  0.7350 -0.9918
 9294SOL     OW29813   5.434   4.066   2.716 -0.5802  0.1709 -0.2909
 9294SOL    HW129814   5.439   3.974   2.692 -2.2699  0.1655 -0.7476
 9294SOL    HW229815   5.511   4.106   2.675 -0.7735 -0.7343 -1.5719
 9295SOL     OW29816   3.212   7.834   0.899  0.3503  0.2260 -0.0491
 9295SOL    HW129817   3.281   7.810   0.961 -0.9235  1.1368  1.8047
 9295SOL    HW229818   3.163   7.904   0.943 -2.7596 -1.4660 -0.5443
 9296SOL     OW29819   1.105   6.812   6.280  0.4775  0.0255  0.1692
 9296SOL    HW129820   1.099   6.818   6.375 -0.2343 -0.7009  0.1845
 9296SOL    HW229821   1.198   6.805   6.262  0.5222 -2.3595  0.9982
 9297SOL     OW29822   4.563   4.861   4.231  0.2126 -0.3625 -0.1188
 9297SOL    HW129823   4.476   4.890   4.203  0.5330  0.8657  0.1183
 9297SOL    HW229824   4.563   4.873   4.326  0.7866  0.0377 -0.1645
 9298SOL     OW29825   4.283   4.964   1.442 -0.6632 -0.2134 -0.1583
 9298SOL    HW129826   4.305   4.885   1.394  1.1699  0.1692 -0.0473
 9298SOL    HW229827   4.222   4.935   1.510 -1.7774 -1.0915 -1.4989
 9299SOL     OW29828   1.089   4.336   2.029 -0.0711  0.2767  0.0433
 9299SOL    HW129829   1.173   4.380   2.013 -0.4814  0.6115 -1.2574
 9299SOL    HW229830   1.114   4.247   2.056  0.6962  0.3862 -0.2802
 9300SOL     OW29831   0.237   3.258   3.386  0.1060 -0.0605  0.5296
 9300SOL    HW129832   0.296   3.186   3.362 -1.2932 -0.9061 -0.5137
 9300SOL    HW229833   0.178   3.220   3.451 -0.1997  0.3486  0.4967
 9301SOL     OW29834   8.746   7.900   2.030 -0.1457 -0.0140 -0.2406
 9301SOL    HW129835   8.656   7.877   2.051  0.1516 -0.0919  1.0395
 9301SOL    HW229836   8.746   7.996   2.026 -0.2902 -0.0168 -0.3306
 9302SOL     OW29837   6.164   8.568   4.921  0.5054  0.4332 -0.0375
 9302SOL    HW129838   6.234   8.629   4.943 -0.2414  1.7886 -1.3065
 9302SOL    HW229839   6.202   8.512   4.852  1.0720 -0.3639  0.8876
 9303SOL     OW29840   6.505   5.416   6.265 -0.4212  0.0538  0.7438
 9303SOL    HW129841   6.429   5.425   6.208  0.0513  1.8508  0.3231
 9303SOL    HW229842   6.469   5.419   6.354 -0.9013  0.3306  0.5448
 9304SOL     OW29843   8.144   0.992   1.719  0.1562  0.0319  0.1800
 9304SOL    HW129844   8.167   1.073   1.764  0.7758 -0.2733  0.4325
 9304SOL    HW229845   8.151   1.012   1.626 -0.7400  0.5568  0.2086
 9305SOL     OW29846   4.632   0.057   3.343  0.2626 -0.5948  1.0219
 9305SOL    HW129847   4.683   0.057   3.262 -1.3617  0.2953 -0.0788
 9305SOL    HW229848   4.630   0.149   3.369 -0.4848 -0.6634  1.2222
 9306SOL     OW29849   6.488   3.891   8.597 -0.0239 -0.3881 -0.0850
 9306SOL    HW129850   6.521   3.871   8.509  0.5108 -2.9728  0.5980
 9306SOL    HW229851   6.420   3.826   8.612  0.2836 -0.3575  1.6070
 9307SOL     OW29852   0.583   1.206   7.759 -0.2473 -0.1707 -0.2081
 9307SOL    HW129853   0.615   1.282   7.807  1.1815 -1.2518  0.6671
 9307SOL    HW229854   0.533   1.242   7.686  0.1191  1.5812  0.3628
 9308SOL     OW29855   3.691   8.263   3.040 -0.4495  0.2197  0.2123
 9308SOL    HW129856   3.677   8.169   3.048  0.0895  0.1671  0.5645
 9308SOL    HW229857   3.765   8.282   3.098  1.3875  0.3886 -2.0545
 9309SOL     OW29858   5.830   4.962   5.232 -0.3306  0.3280  0.2098
 9309SOL    HW129859   5.922   4.969   5.257 -1.0340 -0.0947  3.2208
 9309SOL    HW229860   5.794   4.892   5.286 -1.7939 -1.7864 -3.1563
 9310SOL     OW29861   3.432   2.980   7.056  0.1490  0.5340 -0.0892
 9310SOL    HW129862   3.456   2.946   6.970  0.7600 -0.3321  0.4007
 9310SOL    HW229863   3.505   3.036   7.081  0.2095  0.3850  0.0721
 9311SOL     OW29864   2.447   1.899   7.434 -0.4201  0.6456  0.2109
 9311SOL    HW129865   2.465   1.867   7.522 -0.0361 -1.2856 -0.5162
 9311SOL    HW229866   2.509   1.851   7.378 -1.4747  0.9132 -1.2373
 9312SOL     OW29867   2.540   1.221   6.143  0.0767  0.0228 -0.1895
 9312SOL    HW129868   2.545   1.297   6.084  0.4282 -0.7810 -1.2320
 9312SOL    HW229869   2.628   1.215   6.182  0.4453 -0.5729 -1.0719
 9313SOL     OW29870   0.070   4.828   6.482 -0.2362  0.7613  0.3492
 9313SOL    HW129871   0.100   4.743   6.448 -0.9072  0.9639 -0.8076
 9313SOL    HW229872   0.145   4.863   6.530  0.5645  0.1962 -0.4610
 9314SOL     OW29873   2.854   7.102   1.638 -0.4021 -0.2627  0.3978
 9314SOL    HW129874   2.905   7.027   1.611 -1.1989 -1.0227  0.9404
 9314SOL    HW229875   2.783   7.108   1.574  0.2321  0.6818 -0.2524
 9315SOL     OW29876   8.767   8.558   6.444  0.1232 -0.7836  0.4105
 9315SOL    HW129877   8.718   8.635   6.416  0.8806 -0.4742 -0.1058
 9315SOL    HW229878   8.810   8.585   6.526 -0.0350 -0.8363  0.5116
 9316SOL     OW29879   6.720   1.324   1.439  0.6232  0.5765  0.1020
 9316SOL    HW129880   6.685   1.262   1.375  2.5808 -0.8579  0.3316
 9316SOL    HW229881   6.643   1.369   1.473 -0.7048 -0.4921 -1.3352
 9317SOL     OW29882   4.940   4.417   6.218  0.2128  0.1165  0.0983
 9317SOL    HW129883   5.001   4.371   6.161 -3.2445 -3.5529 -1.1320
 9317SOL    HW229884   4.960   4.384   6.306 -0.4557 -1.7968 -0.4131
 9318SOL     OW29885   1.012   0.166   6.308 -0.2519 -0.0184 -0.1320
 9318SOL    HW129886   0.927   0.161   6.262 -0.1960 -2.8978 -0.1103
 9318SOL    HW229887   0.990   0.152   6.400  0.1935 -0.4026 -0.0804
 9319SOL     OW29888   7.577   6.685   1.445 -0.1589  0.1314 -0.1259
 9319SOL    HW129889   7.550   6.707   1.356 -0.3440 -2.7472 -0.8680
 9319SOL    HW229890   7.516   6.733   1.501 -0.0584  1.9742 -1.4905
 9320SOL     OW29891   5.966   1.918   3.800  0.5105 -0.6700  0.3204
 9320SOL    HW129892   5.886   1.882   3.761  1.0350 -2.8144  1.0961
 9320SOL    HW229893   5.934   1.978   3.868 -0.5413 -3.0240  2.0162
 9321SOL     OW29894   6.935   6.962   3.694 -0.1740  0.2166  0.1573
 9321SOL    HW129895   6.898   6.981   3.608  1.3208 -1.4037 -0.9220
 9321SOL    HW229896   6.994   6.888   3.678  1.7048  1.1649  2.1861
 9322SOL     OW29897   7.863   2.745   6.705 -0.1963  0.5107  0.1501
 9322SOL    HW129898   7.855   2.756   6.799 -1.3260 -0.2710  0.1716
 9322SOL    HW229899   7.925   2.672   6.695 -1.3700 -0.5604  0.3742
 9323SOL     OW29900   7.159   6.425   6.993  0.2322 -0.4095  0.2587
 9323SOL    HW129901   7.218   6.480   6.942 -2.6668  0.6743 -2.2685
 9323SOL    HW229902   7.209   6.345   7.009  1.8146 -0.3982 -3.4804
 9324SOL     OW29903   2.118   0.231   6.740 -0.2372 -0.0742 -0.2018
 9324SOL    HW129904   2.054   0.297   6.765  0.1156  0.3149 -0.3113
 9324SOL    HW229905   2.162   0.267   6.663 -0.7729 -0.9117 -0.9243
 9325SOL     OW29906   4.732   3.549   1.836 -0.0036 -0.3587 -0.0153
 9325SOL    HW129907   4.735   3.551   1.931 -0.7435 -2.6508  0.1065
 9325SOL    HW229908   4.807   3.495   1.810 -0.2060 -0.3310 -0.6989
 9326SOL     OW29909   2.673   1.122   2.036  0.4335  0.2437  0.0067
 9326SOL    HW129910   2.650   1.167   1.955 -0.1214  0.1387  0.1014
 9326SOL    HW229911   2.765   1.097   2.024  1.6510  3.6317  0.9592
 9327SOL     OW29912   4.030   0.637   6.972 -0.0273  0.3252  0.3637
 9327SOL    HW129913   3.991   0.630   7.058 -0.4065 -1.7132  0.0729
 9327SOL    HW229914   4.065   0.549   6.954 -1.6746  0.1257 -2.3288
 9328SOL     OW29915   7.905   2.045   2.436 -0.2040  0.3280 -0.1777
 9328SOL    HW129916   7.888   2.035   2.342  0.6725  0.0034 -0.3127
 9328SOL    HW229917   7.946   1.962   2.462  2.2718  1.4738 -0.1638
 9329SOL     OW29918   3.824   2.388   3.307 -0.4753 -0.6791  0.4445
 9329SOL    HW129919   3.806   2.319   3.243  0.3842 -0.0789 -0.4876
 9329SOL    HW229920   3.758   2.376   3.375 -2.2638 -0.5714 -1.1860
 9330SOL     OW29921   6.498   2.071   4.902 -0.0725 -0.2058 -0.3302
 9330SOL    HW129922   6.500   2.099   4.993 -0.7184  3.1352 -1.2124
 9330SOL    HW229923   6.576   2.016   4.892  0.1219 -0.4686  2.1524
 9331SOL     OW29924   2.139   0.787   0.376  0.2833 -0.1262 -0.4849
 9331SOL    HW129925   2.195   0.723   0.421 -0.3666 -0.8054 -0.6055
 9331SOL    HW229926   2.130   0.753   0.287  0.7023  0.6487 -0.8285
 9332SOL     OW29927   1.439   1.294   1.581  0.2095  0.3679  0.5250
 9332SOL    HW129928   1.404   1.237   1.512 -0.8510 -0.9303  2.0504
 9332SOL    HW229929   1.367   1.302   1.644  1.7141 -0.0588  2.4016
 9333SOL     OW29930   5.860   2.308   6.182 -0.1076  0.4333 -0.1206
 9333SOL    HW129931   5.843   2.245   6.252  0.2824  0.1682 -0.2674
 9333SOL    HW229932   5.773   2.328   6.147 -0.0898 -2.1483 -1.9518
 9334SOL     OW29933   4.009   1.925   3.677 -0.2294  0.3019  0.5782
 9334SOL    HW129934   4.023   2.020   3.669 -1.0794  0.4659  0.9031
 9334SOL    HW229935   4.081   1.895   3.733  1.3509  0.3697 -1.3396
 9335SOL     OW29936   1.881   4.928   1.427  0.7439 -0.0331  0.3597
 9335SOL    HW129937   1.917   4.985   1.495  0.5812 -1.7301  1.9543
 9335SOL    HW229938   1.959   4.892   1.384  0.8465  1.2321 -0.5466
 9336SOL     OW29939   1.088   8.857   0.711 -0.4436  0.2608 -0.3029
 9336SOL    HW129940   1.006   8.848   0.759 -0.2399  0.9741  0.2120
 9336SOL    HW229941   1.151   8.804   0.760 -0.3451  0.6175 -0.0319
 9337SOL     OW29942   2.395   4.360   8.370 -0.3631 -0.1366 -0.1204
 9337SOL    HW129943   2.309   4.379   8.408  1.1807  0.4508  3.4507
 9337SOL    HW229944   2.375   4.306   8.294 -3.9627  1.4638 -0.5530
 9338SOL     OW29945   7.801   2.093   1.926 -0.2441 -0.0132 -0.1654
 9338SOL    HW129946   7.878   2.047   1.893  0.2769  1.2177 -0.7082
 9338SOL    HW229947   7.803   2.178   1.883 -1.9917 -0.0023 -0.2952
 9339SOL     OW29948   5.905   5.524   0.874  0.0882 -0.3076  0.3487
 9339SOL    HW129949   5.971   5.529   0.805 -0.3456 -0.6395 -0.1041
 9339SOL    HW229950   5.839   5.463   0.839 -0.3411 -0.1577  0.8823
 9340SOL     OW29951   7.850   2.132   6.672 -0.0869 -0.0363 -0.1991
 9340SOL    HW129952   7.874   2.114   6.581  1.0065 -0.8169  0.2128
 9340SOL    HW229953   7.799   2.213   6.668 -0.3961 -0.2657 -1.5430
 9341SOL     OW29954   5.177   1.770   4.697 -0.3227 -0.4381 -0.0306
 9341SOL    HW129955   5.146   1.726   4.776  0.9504  1.5591  1.6754
 9341SOL    HW229956   5.131   1.854   4.696 -1.3437 -0.9525 -2.2095
 9342SOL     OW29957   6.221   2.607   7.970  0.0928 -0.0497  0.5439
 9342SOL    HW129958   6.232   2.569   8.057 -1.0274  2.4302  1.8384
 9342SOL    HW229959   6.130   2.636   7.967  1.1018  3.5483  0.1656
 9343SOL     OW29960   4.374   5.571   8.830 -0.0709  0.1165 -0.3641
 9343SOL    HW129961   4.305   5.633   8.853  0.0438  0.1416 -0.0866
 9343SOL    HW229962   4.345   5.533   8.747 -0.9793 -0.7092  0.3146
 9344SOL     OW29963   5.058   1.402   4.346 -0.4948 -0.1408  0.5659
 9344SOL    HW129964   4.972   1.437   4.326  0.5217  1.8559 -0.6156
 9344SOL    HW229965   5.042   1.312   4.374 -2.9248  0.1623  0.3108
 9345SOL     OW29966   3.767   2.001   6.158  0.9362  0.4427  0.2826
 9345SOL    HW129967   3.775   1.936   6.227  1.0996  0.3255  0.1553
 9345SOL    HW229968   3.836   2.065   6.177  1.7818 -0.2251 -0.4482
 9346SOL     OW29969   7.583   7.184   6.212  0.7080 -0.6979  0.0409
 9346SOL    HW129970   7.564   7.212   6.123  0.5182 -0.6032  0.1101
 9346SOL    HW229971   7.673   7.211   6.227 -0.0184  1.5791  0.7455
 9347SOL     OW29972   5.715   2.612   2.107  0.1977  0.0318  0.1487
 9347SOL    HW129973   5.701   2.557   2.184 -0.3456  0.0148  0.0457
 9347SOL    HW229974   5.658   2.688   2.121 -0.1201 -0.1079 -0.3669
 9348SOL     OW29975   7.457   1.698   7.216  0.1723 -0.0887  0.5372
 9348SOL    HW129976   7.542   1.673   7.179  0.5705  1.4632  0.3483
 9348SOL    HW229977   7.479   1.756   7.289 -0.7500  0.8315  0.0968
 9349SOL     OW29978   6.277   5.830   2.728 -0.6272 -0.2399  0.0346
 9349SOL    HW129979   6.191   5.851   2.765 -0.2775  0.7131  0.3326
 9349SOL    HW229980   6.258   5.772   2.655 -1.5936  0.5626 -0.3721
 9350SOL     OW29981   1.303   5.164   0.201 -0.1819 -0.3708  0.3255
 9350SOL    HW129982   1.303   5.071   0.183  0.3657 -0.6321  1.5293
 9350SOL    HW229983   1.391   5.193   0.179  0.1753 -0.4957  1.4873
 9351SOL     OW29984   0.470   4.956   7.700 -0.4179 -0.1711 -0.3931
 9351SOL    HW129985   0.376   4.961   7.681 -0.2412 -1.7189 -1.9965
 9351SOL    HW229986   0.485   4.864   7.723  0.6464  0.1525  0.2741
 9352SOL     OW29987   1.571   0.597   8.652 -0.3757  0.4594  0.0024
 9352SOL    HW129988   1.519   0.671   8.681 -0.5046 -0.0393  1.1245
 9352SOL    HW229989   1.661   0.621   8.672 -0.4538  0.1659  0.7472
 9353SOL     OW29990   2.806   1.746   6.160  0.4674  0.3803  0.0478
 9353SOL    HW129991   2.822   1.833   6.122  0.0598  0.7137  0.6228
 9353SOL    HW229992   2.714   1.727   6.138  0.8075 -0.3025 -0.8417
 9354SOL     OW29993   8.786   8.165   8.553 -0.1100 -0.5115 -0.2117
 9354SOL    HW129994   8.733   8.099   8.509  0.5658 -0.6414 -0.8480
 9354SOL    HW229995   8.725   8.236   8.572 -1.3547 -2.0938  2.3400
 9355SOL     OW29996   0.420   8.192   0.189 -0.6295 -0.4624  0.2547
 9355SOL    HW129997   0.324   8.191   0.188 -0.6915  1.4108 -1.4156
 9355SOL    HW229998   0.443   8.196   0.281 -2.0758 -2.6448  0.7936
 9356SOL     OW29999   3.464   1.379   0.774  0.0856  0.6888 -0.2208
 9356SOL    HW130000   3.466   1.440   0.701  1.1541  0.5467 -0.3154
 9356SOL    HW230001   3.433   1.431   0.848 -2.9308  0.3995 -1.1312
 9357SOL     OW30002   4.757   2.197   4.694  0.7297  0.1901 -0.4815
 9357SOL    HW130003   4.724   2.278   4.734 -1.4807 -1.1572  0.6237
 9357SOL    HW230004   4.841   2.182   4.738  0.2748  0.9038  0.7055
 9358SOL     OW30005   1.440   5.105   4.464  0.4533 -0.0925  0.1925
 9358SOL    HW130006   1.479   5.094   4.377 -2.3187 -0.6853 -1.0638
 9358SOL    HW230007   1.471   5.029   4.514 -0.9560 -1.9039 -1.5287
 9359SOL     OW30008   0.392   6.154   0.993 -0.3946 -0.1015  0.2490
 9359SOL    HW130009   0.420   6.190   0.909 -0.2849  1.0959  0.7775
 9359SOL    HW230010   0.352   6.228   1.039 -0.9477 -0.8716  1.0329
 9360SOL     OW30011   2.878   0.197   3.913 -0.0057 -0.3953  0.4853
 9360SOL    HW130012   2.964   0.218   3.877 -0.7938  0.0422 -1.2178
 9360SOL    HW230013   2.877   0.241   3.998  1.0145  0.5963  0.0117
 9361SOL     OW30014   3.823   5.726   6.422 -0.3943 -0.0398 -0.4904
 9361SOL    HW130015   3.881   5.747   6.349 -2.0793 -1.3172 -2.2885
 9361SOL    HW230016   3.867   5.653   6.467  0.6175  0.7152 -0.2129
 9362SOL     OW30017   6.203   6.077   3.267 -0.2312 -0.1580  0.4710
 9362SOL    HW130018   6.193   6.157   3.318 -3.5040 -1.1560  1.6227
 9362SOL    HW230019   6.120   6.031   3.277  0.7358 -2.7245 -1.8946
 9363SOL     OW30020   2.066   4.100   6.137 -0.6185 -0.1001  0.2656
 9363SOL    HW130021   2.014   4.157   6.081  2.6535  0.4556 -2.5266
 9363SOL    HW230022   2.043   4.011   6.108 -1.0903  0.0611  0.1311
 9364SOL     OW30023   3.936   5.707   8.609 -0.2855  0.0456  0.1681
 9364SOL    HW130024   3.906   5.761   8.682 -0.3811  1.7622 -1.0763
 9364SOL    HW230025   4.024   5.740   8.589 -0.1948 -0.5089 -0.3818
 9365SOL     OW30026   6.424   5.522   2.729  0.3538 -0.1062 -0.6616
 9365SOL    HW130027   6.438   5.428   2.739  0.5834 -0.1950 -1.7228
 9365SOL    HW230028   6.479   5.546   2.655  0.7761  0.9819 -0.0087
 9366SOL     OW30029   4.449   3.131   0.966  0.0139 -0.3825  0.2703
 9366SOL    HW130030   4.478   3.052   1.010 -0.6848 -0.6119  0.3192
 9366SOL    HW230031   4.407   3.101   0.886  0.6578 -0.0048 -0.2201
 9367SOL     OW30032   4.326   7.098   2.018  0.0340  0.2315  0.1371
 9367SOL    HW130033   4.294   7.177   1.973 -0.6049  0.7567  1.4411
 9367SOL    HW230034   4.410   7.124   2.055 -0.1414  0.2864  0.5027
 9368SOL     OW30035   7.470   2.469   4.683 -0.3280 -0.2951  0.0617
 9368SOL    HW130036   7.445   2.561   4.691 -0.0748 -0.2259  0.0736
 9368SOL    HW230037   7.442   2.444   4.596 -0.4144 -0.2106  0.0646
 9369SOL     OW30038   2.944   5.092   3.123  0.3354 -0.8150 -0.2335
 9369SOL    HW130039   2.906   5.004   3.116 -2.4081  0.3709 -1.7833
 9369SOL    HW230040   3.038   5.077   3.134 -0.2362 -3.9413  1.4404
 9370SOL     OW30041   5.186   1.073   1.148 -0.1792 -0.2686  0.2637
 9370SOL    HW130042   5.249   1.102   1.214 -0.2478  0.7164 -0.0848
 9370SOL    HW230043   5.180   1.146   1.087  1.1784 -1.7381 -1.8046
 9371SOL     OW30044   2.564   3.584   0.424  0.5469  0.0913  0.1060
 9371SOL    HW130045   2.486   3.639   0.423  0.4587  0.0832  1.9030
 9371SOL    HW230046   2.636   3.643   0.447  0.6600 -0.2967  0.7986
 9372SOL     OW30047   4.883   7.178   5.450 -0.3265  0.4441  0.0915
 9372SOL    HW130048   4.848   7.175   5.361  0.6900 -1.4477 -0.3002
 9372SOL    HW230049   4.817   7.133   5.503 -1.0401  1.7745  0.3543
 9373SOL     OW30050   2.995   3.022   4.066 -0.4495  0.2601  0.4698
 9373SOL    HW130051   3.053   2.983   4.131  0.8659  0.9622 -0.2457
 9373SOL    HW230052   3.047   3.092   4.026 -1.6076  0.5673 -0.5718
 9374SOL     OW30053   2.125   1.968   5.025  0.1118 -0.1053  0.2484
 9374SOL    HW130054   2.204   2.021   5.016  0.8832 -1.0488  1.1855
 9374SOL    HW230055   2.104   1.941   4.936  0.8704  0.1271 -0.0136
 9375SOL     OW30056   5.080   8.374   6.794  0.0041  0.4679  0.0541
 9375SOL    HW130057   5.143   8.334   6.855 -0.3614  0.9957  0.7896
 9375SOL    HW230058   5.114   8.352   6.707  0.4924 -0.3618  0.4474
 9376SOL     OW30059   3.014   1.772   5.173 -0.2842 -0.5029  0.2425
 9376SOL    HW130060   3.096   1.729   5.197  0.9929  0.3692 -2.2001
 9376SOL    HW230061   2.954   1.752   5.245  2.0743 -1.1050  2.1731
 9377SOL     OW30062   7.843   6.991   1.881  0.0972  0.3163 -0.7231
 9377SOL    HW130063   7.824   6.990   1.975 -1.8472 -0.1524 -1.0737
 9377SOL    HW230064   7.809   6.907   1.849 -1.0253  1.2689 -2.1412
 9378SOL     OW30065   8.200   1.230   1.822  0.2332 -0.6754 -0.3797
 9378SOL    HW130066   8.121   1.273   1.855 -0.7099 -1.7115 -1.2006
 9378SOL    HW230067   8.272   1.282   1.857 -0.8296  2.2567 -2.2528
 9379SOL     OW30068   1.407   5.264   7.809  0.3181  0.7364  0.0161
 9379SOL    HW130069   1.456   5.284   7.889  1.3536  0.1718 -0.4663
 9379SOL    HW230070   1.412   5.168   7.802 -0.8843  0.6601 -0.0370
 9380SOL     OW30071   2.096   8.760   4.342  0.4371  0.7260 -0.2164
 9380SOL    HW130072   2.162   8.771   4.273 -0.1350  2.7404 -0.5222
 9380SOL    HW230073   2.147   8.737   4.420  1.2445 -0.0450 -0.9440
 9381SOL     OW30074   7.283   4.775   6.062  0.0851 -0.3563  0.2536
 9381SOL    HW130075   7.250   4.864   6.073  1.9795  0.3324  0.5710
 9381SOL    HW230076   7.273   4.735   6.149 -0.2265 -0.2808  0.2551
 9382SOL     OW30077   5.707   1.871   3.332  0.1451 -0.3276  0.1512
 9382SOL    HW130078   5.731   1.956   3.368 -1.1500 -0.2547  0.8967
 9382SOL    HW230079   5.789   1.823   3.327  0.7934  0.7267  0.3399
 9383SOL     OW30080   6.216   0.920   4.666  0.0748  0.3606 -0.1009
 9383SOL    HW130081   6.209   0.827   4.688  0.9081  0.6419  1.4817
 9383SOL    HW230082   6.249   0.961   4.746  2.7016  1.5744 -1.6984
 9384SOL     OW30083   2.343   7.255   4.257 -0.0428  0.5394  0.4276
 9384SOL    HW130084   2.421   7.310   4.258  1.2228 -0.9828 -2.5594
 9384SOL    HW230085   2.309   7.264   4.169 -2.2812 -0.2279  1.1454
 9385SOL     OW30086   1.339   5.702   2.895 -0.2801  0.1358  0.2539
 9385SOL    HW130087   1.337   5.677   2.803 -0.7266  1.1479 -0.0357
 9385SOL    HW230088   1.296   5.788   2.897  1.6531  1.1393  1.0800
 9386SOL     OW30089   1.328   6.197   6.751  0.0557  0.0794 -0.0110
 9386SOL    HW130090   1.303   6.179   6.841 -0.7348 -2.7472 -0.7051
 9386SOL    HW230091   1.405   6.255   6.758 -0.7101  0.9066  2.3824
 9387SOL     OW30092   4.933   8.285   4.499 -0.1961  0.0864 -0.2462
 9387SOL    HW130093   4.997   8.239   4.554  0.5409  0.0626 -1.0902
 9387SOL    HW230094   4.947   8.248   4.411 -1.3939  0.0732 -0.4434
 9388SOL     OW30095   3.283   7.226   8.323 -0.1692  0.2714  0.7209
 9388SOL    HW130096   3.228   7.147   8.321 -0.0272  0.1852 -0.7720
 9388SOL    HW230097   3.255   7.277   8.247  2.5722 -0.3090 -0.7902
 9389SOL     OW30098   2.850   2.026   4.544  0.2469  0.1909 -0.1178
 9389SOL    HW130099   2.818   2.031   4.454  0.8696  0.8814 -0.3170
 9389SOL    HW230100   2.787   1.969   4.589  0.0076 -0.2804 -1.0159
 9390SOL     OW30101   0.713   0.343   7.348 -0.3694  0.0950 -0.7028
 9390SOL    HW130102   0.747   0.351   7.259 -0.2613 -1.8243 -0.8745
 9390SOL    HW230103   0.770   0.399   7.400  1.6065 -1.1720 -1.3798
 9391SOL     OW30104   5.118   2.321   1.512  0.6468  0.2072 -0.5776
 9391SOL    HW130105   5.035   2.281   1.538  0.9311 -0.4329 -0.6543
 9391SOL    HW230106   5.170   2.249   1.477  1.3966  0.5192 -0.1341
 9392SOL     OW30107   7.119   0.179   3.153 -0.2193 -0.0787 -0.1408
 9392SOL    HW130108   7.091   0.134   3.232 -1.2935 -0.5790 -0.7741
 9392SOL    HW230109   7.097   0.271   3.168 -1.7312 -0.3677 -0.3732
 9393SOL     OW30110   2.342   3.715   1.119 -0.4858 -0.5617 -0.0130
 9393SOL    HW130111   2.353   3.685   1.029  0.9022 -1.8222  0.5516
 9393SOL    HW230112   2.273   3.658   1.155 -0.2054 -0.8516  0.0680
 9394SOL     OW30113   8.680   2.908   7.297 -0.2546  0.3553 -0.4758
 9394SOL    HW130114   8.721   2.913   7.211 -0.1155 -0.6883 -0.4723
 9394SOL    HW230115   8.672   2.815   7.316  0.4939  0.5633  1.0205
 9395SOL     OW30116   1.778   1.680   0.174 -0.4295 -0.3040 -0.1968
 9395SOL    HW130117   1.723   1.752   0.205 -0.0083 -0.0992  0.0810
 9395SOL    HW230118   1.851   1.676   0.236  1.6697  1.5704 -2.3567
 9396SOL     OW30119   6.260   7.652   2.984 -0.4165 -0.1966  0.0257
 9396SOL    HW130120   6.255   7.642   3.079  0.2985 -0.8744  0.0019
 9396SOL    HW230121   6.186   7.709   2.962  0.1022  0.9428  1.1148
 9397SOL     OW30122   4.025   1.442   4.966  0.0983  0.2305  0.1834
 9397SOL    HW130123   3.952   1.503   4.975  0.7197  1.1444 -0.7188
 9397SOL    HW230124   4.038   1.407   5.054 -0.9877  0.5626  0.4937
 9398SOL     OW30125   0.579   5.074   7.068  0.8804 -0.2064  0.1148
 9398SOL    HW130126   0.648   5.126   7.111  0.7899 -0.6721  0.8314
 9398SOL    HW230127   0.593   5.089   6.975  2.0619 -0.4198  0.2403
 9399SOL     OW30128   3.573   0.396   8.138  0.0353 -0.5090  0.5116
 9399SOL    HW130129   3.648   0.412   8.081  1.3309 -1.0011  2.0083
 9399SOL    HW230130   3.587   0.452   8.214 -0.3898 -1.6057  1.4368
 9400SOL     OW30131   3.457   1.481   2.310 -0.1617 -0.8332  0.1076
 9400SOL    HW130132   3.438   1.450   2.221  0.0506 -0.1781 -0.1746
 9400SOL    HW230133   3.549   1.507   2.307  0.1725 -1.9103  0.8516
 9401SOL     OW30134   2.562   2.141   6.666 -0.6383  0.1905  0.2380
 9401SOL    HW130135   2.559   2.237   6.668 -0.0945  0.2319 -0.4457
 9401SOL    HW230136   2.606   2.120   6.583 -0.8295 -0.6530  0.3392
 9402SOL     OW30137   3.855   1.423   7.402  0.0104 -0.2797 -0.1589
 9402SOL    HW130138   3.795   1.409   7.476  0.7059 -1.1212  0.2525
 9402SOL    HW230139   3.813   1.493   7.351 -1.0520 -0.4819  0.4081
 9403SOL     OW30140   8.866   6.623   2.282  0.0909  0.7292 -0.1330
 9403SOL    HW130141   8.896   6.588   2.366 -1.5453  0.9928  0.5850
 9403SOL    HW230142   8.890   6.556   2.218 -3.8246 -2.4099  1.2830
 9404SOL     OW30143   0.966   1.102   6.962 -0.0898 -0.2837 -0.2712
 9404SOL    HW130144   0.930   1.152   7.035  0.1067 -0.9795  0.3074
 9404SOL    HW230145   1.030   1.161   6.922  0.6604 -0.3225  0.8465
 9405SOL     OW30146   4.307   3.598   1.560 -0.2939 -0.0070 -0.2311
 9405SOL    HW130147   4.224   3.645   1.560 -0.5155 -0.3959 -0.6955
 9405SOL    HW230148   4.363   3.648   1.501  0.2327  0.9871  1.0602
 9406SOL     OW30149   4.896   6.609   6.878  0.7961  0.4728  0.2431
 9406SOL    HW130150   4.826   6.544   6.879  1.2980 -0.0729  0.2003
 9406SOL    HW230151   4.948   6.588   6.800  0.0266  1.9348 -0.7164
 9407SOL     OW30152   8.671   2.724   0.240  0.2067 -0.1817 -0.0391
 9407SOL    HW130153   8.611   2.793   0.267  1.1643  0.6239  0.0844
 9407SOL    HW230154   8.618   2.644   0.241 -1.2646  0.7160 -1.3950
 9408SOL     OW30155   1.510   7.129   2.694 -0.0221 -0.2052  0.1598
 9408SOL    HW130156   1.452   7.146   2.768  0.6993 -0.9384  0.9197
 9408SOL    HW230157   1.513   7.212   2.646 -0.3245  0.3463  1.0766
 9409SOL     OW30158   7.312   1.139   2.749  0.0712  0.0427  0.0623
 9409SOL    HW130159   7.249   1.077   2.711  0.3489  0.2553 -0.7679
 9409SOL    HW230160   7.378   1.084   2.790 -0.2378 -0.1928  0.2512
 9410SOL     OW30161   1.635   3.925   1.598 -0.5125 -0.1911  0.2925
 9410SOL    HW130162   1.623   3.983   1.523 -0.4029  0.8519  1.0519
 9410SOL    HW230163   1.564   3.949   1.658  0.5951  0.4491  1.4021
 9411SOL     OW30164   5.115   5.907   2.891 -0.2722  0.6521 -0.4858
 9411SOL    HW130165   5.098   5.826   2.844 -0.9780  1.4153 -1.6184
 9411SOL    HW230166   5.039   5.919   2.947 -0.8606  1.2168 -1.3700
 9412SOL     OW30167   6.830   3.603   8.123  0.3253  0.6009 -0.1071
 9412SOL    HW130168   6.833   3.515   8.085  0.0850  0.2939  0.5739
 9412SOL    HW230169   6.876   3.658   8.059 -1.3012  0.3792 -1.5444
 9413SOL     OW30170   4.772   8.869   0.112  0.4692 -0.2109 -0.2512
 9413SOL    HW130171   4.866   8.856   0.099  0.9752  2.3502  0.1817
 9413SOL    HW230172   4.756   8.957   0.077 -1.9297 -0.8449 -0.9227
 9414SOL     OW30173   1.217   6.696   1.346 -0.8353  0.0159 -0.1552
 9414SOL    HW130174   1.256   6.769   1.394  1.7310 -1.6160  0.4114
 9414SOL    HW230175   1.215   6.624   1.409  0.4595 -1.5185 -1.7661
 9415SOL     OW30176   7.138   5.526   4.883 -0.1864  0.6638 -0.3158
 9415SOL    HW130177   7.158   5.474   4.805 -2.2159 -1.6286  0.5549
 9415SOL    HW230178   7.174   5.475   4.955 -0.2091  1.6656  0.4216
 9416SOL     OW30179   2.967   5.458   6.263  0.6837 -0.0875  0.0483
 9416SOL    HW130180   3.006   5.378   6.299 -0.5751 -0.8520 -0.2477
 9416SOL    HW230181   2.975   5.522   6.334  1.7678 -0.4452  0.2676
 9417SOL     OW30182   5.172   2.507   8.711 -0.6333  0.3984  0.0523
 9417SOL    HW130183   5.237   2.564   8.753 -0.5194 -0.0821  0.5382
 9417SOL    HW230184   5.143   2.556   8.635  1.9090 -0.2510 -1.4412
 9418SOL     OW30185   3.826   8.551   3.598  0.2877  0.2161  0.2909
 9418SOL    HW130186   3.821   8.471   3.547 -0.9907  0.0461  0.6548
 9418SOL    HW230187   3.894   8.533   3.663  0.6560 -0.2234 -0.2065
 9419SOL     OW30188   8.114   3.720   5.955 -0.0952 -0.2682  0.0617
 9419SOL    HW130189   8.123   3.681   6.042  0.8945 -0.9543 -0.3363
 9419SOL    HW230190   8.190   3.689   5.906  0.4907  1.7682 -0.4388
 9420SOL     OW30191   5.187   4.475   0.777  0.2751  0.1805  0.5401
 9420SOL    HW130192   5.145   4.405   0.828  0.2863 -1.0251 -1.0250
 9420SOL    HW230193   5.218   4.431   0.698  0.8241  1.8669 -0.2194
 9421SOL     OW30194   8.171   4.672   2.302 -0.4215 -0.5347  0.1988
 9421SOL    HW130195   8.184   4.579   2.281 -3.7035 -0.7843 -1.4186
 9421SOL    HW230196   8.106   4.672   2.372 -0.6556  0.5325 -0.0042
 9422SOL     OW30197   4.175   0.011   6.176  0.1438 -0.6758 -0.5648
 9422SOL    HW130198   4.215   0.085   6.221 -1.5236 -0.0471 -0.0484
 9422SOL    HW230199   4.168   0.039   6.085 -1.5510  0.3517 -0.1750
 9423SOL     OW30200   1.184   2.585   5.561  0.4255  0.1683  0.2392
 9423SOL    HW130201   1.176   2.614   5.470 -1.0318  1.6601  0.7959
 9423SOL    HW230202   1.276   2.561   5.570  0.4141 -0.9391 -1.8700
 9424SOL     OW30203   8.384   5.509   1.304 -0.3399 -0.3094  0.3068
 9424SOL    HW130204   8.367   5.446   1.374 -1.1320 -0.0351  0.3808
 9424SOL    HW230205   8.362   5.463   1.223 -2.6980  0.3962  0.4717
 9425SOL     OW30206   2.990   8.005   0.122  0.3936  0.0043 -0.2221
 9425SOL    HW130207   3.032   7.960   0.048  0.6006 -1.8797  0.9700
 9425SOL    HW230208   3.021   8.095   0.116  1.4844 -0.4202 -1.6461
 9426SOL     OW30209   2.047   2.603   1.612 -0.9568 -0.1058 -0.3145
 9426SOL    HW130210   2.117   2.591   1.549 -0.2017 -1.5204  0.7385
 9426SOL    HW230211   2.067   2.687   1.654  0.3546 -0.6748  0.2479
 9427SOL     OW30212   2.693   3.609   8.604 -0.2291  0.4124 -0.0654
 9427SOL    HW130213   2.670   3.699   8.627  1.2729  1.1229 -1.1514
 9427SOL    HW230214   2.698   3.610   8.508  1.8231 -0.2847 -0.0086
 9428SOL     OW30215   6.144   3.429   6.780  0.3854 -0.1357 -0.0939
 9428SOL    HW130216   6.048   3.430   6.781  0.3645  1.0236 -0.9019
 9428SOL    HW230217   6.168   3.519   6.755  1.6587 -0.5633 -0.4530
 9429SOL     OW30218   8.705   7.131   7.620 -0.0430 -0.0508  0.1502
 9429SOL    HW130219   8.665   7.094   7.698 -0.7974 -0.6694 -0.5196
 9429SOL    HW230220   8.654   7.209   7.601 -1.0400 -0.8954 -0.7633
 9430SOL     OW30221   6.418   5.920   3.403 -0.4011 -0.0144 -0.6552
 9430SOL    HW130222   6.393   5.986   3.339 -1.5544 -0.5959 -0.8327
 9430SOL    HW230223   6.500   5.883   3.370 -1.3729 -0.8400 -2.2271
 9431SOL     OW30224   6.410   3.865   4.680  0.4875 -0.5019  0.6248
 9431SOL    HW130225   6.499   3.830   4.684  2.2191  2.9361 -1.9635
 9431SOL    HW230226   6.417   3.953   4.716 -1.4759  0.3817 -0.9273
 9432SOL     OW30227   8.584   6.036   4.609 -0.1662  0.0111  0.1081
 9432SOL    HW130228   8.512   5.974   4.621 -1.3230  1.4370  0.7335
 9432SOL    HW230229   8.565   6.078   4.525 -0.1564  0.5176  0.3601
 9433SOL     OW30230   2.180   8.551   0.628 -0.2587 -0.1070 -0.1822
 9433SOL    HW130231   2.189   8.612   0.555  1.3377  2.9908  2.3555
 9433SOL    HW230232   2.098   8.577   0.671 -0.1231 -0.4522  0.2940
 9434SOL     OW30233   6.420   8.195   1.667  0.0898 -0.4822 -0.8481
 9434SOL    HW130234   6.347   8.230   1.616 -1.4240  2.5147  2.9152
 9434SOL    HW230235   6.483   8.268   1.670  1.7733 -1.8536 -1.2391
 9435SOL     OW30236   7.390   1.710   6.348 -0.0393  0.1732  0.3152
 9435SOL    HW130237   7.296   1.728   6.355 -0.2936 -0.7544 -0.6134
 9435SOL    HW230238   7.398   1.646   6.279  1.3289  0.4891  0.1434
 9436SOL     OW30239   0.068   1.759   1.367 -0.1070  0.0146  0.0820
 9436SOL    HW130240   0.076   1.665   1.385  0.6054 -0.1547 -1.0358
 9436SOL    HW230241   0.018   1.764   1.285  0.4635  0.5714 -0.2452
 9437SOL     OW30242   1.290   4.799   6.595  0.1719  0.0816 -0.4898
 9437SOL    HW130243   1.232   4.864   6.555 -0.8008  0.0274  0.7576
 9437SOL    HW230244   1.271   4.805   6.689  1.4661 -0.6594 -0.1603
 9438SOL     OW30245   0.416   2.250   4.184 -0.0157 -0.0040 -0.0774
 9438SOL    HW130246   0.416   2.156   4.163  0.2705  0.4299 -2.2995
 9438SOL    HW230247   0.502   2.281   4.155 -0.1175  0.9483  0.6015
 9439SOL     OW30248   8.595   1.211   6.357 -0.7109 -0.4230 -0.2213
 9439SOL    HW130249   8.608   1.197   6.450 -0.0198  0.9501 -0.0803
 9439SOL    HW230250   8.556   1.298   6.350 -1.9418 -1.0192 -1.1574
 9440SOL     OW30251   2.888   3.444   3.312  0.0258 -0.3220 -0.0244
 9440SOL    HW130252   2.981   3.420   3.313 -0.2281 -1.3532  1.1969
 9440SOL    HW230253   2.860   3.435   3.403 -1.6569 -1.5707 -0.6196
 9441SOL     OW30254   3.227   5.937   2.891 -0.1648  0.7234 -0.1600
 9441SOL    HW130255   3.264   5.998   2.955 -1.2522  0.4981  0.7192
 9441SOL    HW230256   3.277   5.856   2.904 -0.1116  0.8003  0.1311
 9442SOL     OW30257   3.441   3.124   5.490  0.3143  0.2035  0.6233
 9442SOL    HW130258   3.386   3.201   5.507  0.3319 -0.0403  1.8587
 9442SOL    HW230259   3.395   3.052   5.533  0.4591 -0.4365 -0.2544
 9443SOL     OW30260   2.658   4.446   6.430 -0.2676 -0.0496 -0.5929
 9443SOL    HW130261   2.602   4.368   6.421 -1.9387  1.0884 -0.4260
 9443SOL    HW230262   2.720   4.423   6.499  0.0191 -1.6437 -1.3325
 9444SOL     OW30263   4.001   4.287   2.631  0.2726  0.8616  0.2196
 9444SOL    HW130264   4.015   4.259   2.541 -0.4110 -1.4168  0.7679
 9444SOL    HW230265   3.927   4.235   2.662  1.4603  0.4283  2.5930
 9445SOL     OW30266   3.842   7.063   4.633  0.5854  0.3509 -0.3720
 9445SOL    HW130267   3.934   7.052   4.655  0.4105  0.4409  0.4261
 9445SOL    HW230268   3.828   7.158   4.632  0.8755  0.4223 -2.1401
 9446SOL     OW30269   5.566   2.097   0.853 -0.2849 -0.0527 -0.6948
 9446SOL    HW130270   5.621   2.123   0.927 -1.4116  0.5447 -0.0477
 9446SOL    HW230271   5.608   2.138   0.777  0.6674 -0.3622 -0.3525
 9447SOL     OW30272   8.666   1.295   8.434  0.2762 -0.0911  0.1434
 9447SOL    HW130273   8.575   1.320   8.451  0.0742 -0.3420 -0.5700
 9447SOL    HW230274   8.661   1.231   8.364  1.0034 -0.1719  0.1587
 9448SOL     OW30275   1.359   4.500   3.202 -0.1058  0.2812 -0.2923
 9448SOL    HW130276   1.326   4.551   3.277  0.1959  1.3164 -0.8343
 9448SOL    HW230277   1.282   4.489   3.146 -0.0281  0.7566 -0.4998
 9449SOL     OW30278   0.377   7.373   1.446  0.3140 -0.0509 -0.1721
 9449SOL    HW130279   0.418   7.310   1.387  0.1559 -0.1948 -0.1277
 9449SOL    HW230280   0.417   7.457   1.423  0.7628 -0.2182 -0.0171
 9450SOL     OW30281   1.389   3.106   3.239  0.0508 -0.1099  0.8503
 9450SOL    HW130282   1.368   3.040   3.172 -0.2700 -1.0986  1.8987
 9450SOL    HW230283   1.477   3.136   3.216  0.3778 -1.2218  0.6065
 9451SOL     OW30284   3.622   5.799   5.814 -0.1540  0.2026  0.1105
 9451SOL    HW130285   3.703   5.786   5.863  0.0915  1.7480  0.1695
 9451SOL    HW230286   3.554   5.805   5.882 -0.2695 -0.7111  0.0818
 9452SOL     OW30287   7.500   0.502   4.061  0.0925  0.1874 -0.1024
 9452SOL    HW130288   7.445   0.579   4.068 -0.1276  0.0265 -0.0628
 9452SOL    HW230289   7.454   0.434   4.110 -0.0086 -0.1330 -0.6335
 9453SOL     OW30290   2.980   3.385   4.314 -0.1441 -0.2850 -0.4222
 9453SOL    HW130291   2.941   3.392   4.227 -0.4158 -1.9213 -0.4625
 9453SOL    HW230292   2.985   3.291   4.331  1.6076 -0.0755  0.5633
 9454SOL     OW30293   3.460   8.135   7.396 -0.4073  0.1873 -0.1866
 9454SOL    HW130294   3.498   8.102   7.477  1.8427  0.2602 -1.1389
 9454SOL    HW230295   3.501   8.220   7.383 -1.1660  0.4244 -1.1194
 9455SOL     OW30296   8.223   4.964   4.515  0.0402  0.1235 -0.7322
 9455SOL    HW130297   8.299   4.984   4.569  0.5966  0.6390 -1.6829
 9455SOL    HW230298   8.221   5.034   4.450 -0.7662 -0.3462 -1.2277
 9456SOL     OW30299   8.011   1.306   2.764  0.3476  0.4095  0.3811
 9456SOL    HW130300   8.055   1.355   2.694  0.6482 -2.2933 -1.4509
 9456SOL    HW230301   8.082   1.264   2.813  0.1070  1.8753  2.0938
 9457SOL     OW30302   2.195   2.231   5.813 -0.2800 -0.2712  0.2137
 9457SOL    HW130303   2.290   2.237   5.822 -0.2969  0.4332 -0.0181
 9457SOL    HW230304   2.161   2.296   5.873 -0.5318  1.2387 -1.4795
 9458SOL     OW30305   2.043   1.432   8.507  0.3552 -0.0501  0.3561
 9458SOL    HW130306   1.963   1.428   8.455  0.3546  0.5990  0.3026
 9458SOL    HW230307   2.072   1.523   8.501  0.3965  0.0204  1.4359
 9459SOL     OW30308   6.980   7.032   6.790  0.0003  0.0626 -0.1562
 9459SOL    HW130309   7.054   6.987   6.831  0.2186 -0.3952 -1.0286
 9459SOL    HW230310   6.942   7.084   6.861  1.6307  0.9351  0.1297
 9460SOL     OW30311   4.499   5.943   7.851  0.5219  0.3696  0.0213
 9460SOL    HW130312   4.543   5.920   7.933 -1.1877 -1.7465  0.4116
 9460SOL    HW230313   4.451   6.023   7.871 -2.1972 -1.6191  2.0670
 9461SOL     OW30314   2.726   3.955   5.562 -0.2881 -0.1847 -0.6558
 9461SOL    HW130315   2.651   3.951   5.622 -2.3968  1.9430 -2.9209
 9461SOL    HW230316   2.785   4.019   5.602  0.8861 -2.4994  1.5827
 9462SOL     OW30317   4.209   1.930   3.328 -0.0214 -0.6591 -0.3393
 9462SOL    HW130318   4.285   1.988   3.333 -0.1192 -0.6146  1.0157
 9462SOL    HW230319   4.144   1.970   3.386 -0.5801 -1.4227 -0.4222
 9463SOL     OW30320   7.106   2.486   1.573  0.1226 -0.1016  0.3297
 9463SOL    HW130321   7.043   2.430   1.527  1.8868 -1.9609  0.0360
 9463SOL    HW230322   7.099   2.459   1.665 -1.1229  1.3729  0.7200
 9464SOL     OW30323   2.338   4.057   8.067 -0.2254  0.7319 -0.1486
 9464SOL    HW130324   2.408   3.998   8.097 -1.3744 -1.1058 -0.8987
 9464SOL    HW230325   2.381   4.142   8.057  1.4354  0.1177  1.2844
 9465SOL     OW30326   3.127   1.395   5.775  0.8641  0.7984  0.4853
 9465SOL    HW130327   3.077   1.316   5.794  1.1204 -0.7452 -3.9660
 9465SOL    HW230328   3.218   1.366   5.774  1.3391  2.0837  2.2949
 9466SOL     OW30329   6.219   7.605   4.638  0.4242  1.0115 -0.2991
 9466SOL    HW130330   6.271   7.667   4.689  0.9598 -1.5822  2.6262
 9466SOL    HW230331   6.281   7.537   4.613 -1.1578 -1.9452  2.9042
 9467SOL     OW30332   0.490   4.099   2.404  0.4393 -0.0104 -0.2380
 9467SOL    HW130333   0.537   4.148   2.337  0.6709  0.4774  0.2672
 9467SOL    HW230334   0.425   4.048   2.356  0.9430 -0.0671 -0.8751
 9468SOL     OW30335   4.861   7.092   0.005  0.3286  0.6165 -0.0839
 9468SOL    HW130336   4.813   7.074   0.086  0.4126 -0.8279 -0.3357
 9468SOL    HW230337   4.937   7.034   0.008 -0.4353 -0.5652 -1.8515
 9469SOL     OW30338   6.778   5.684   0.047  0.1067 -0.0231  0.4317
 9469SOL    HW130339   6.720   5.661  -0.026  1.2510 -1.3568 -0.1041
 9469SOL    HW230340   6.798   5.777   0.033 -1.8046  0.4581  0.5976
 9470SOL     OW30341   8.813   4.222   3.224  0.1361  0.0596  0.3198
 9470SOL    HW130342   8.820   4.176   3.307 -2.2880  0.3508  0.7385
 9470SOL    HW230343   8.810   4.315   3.249  2.1378  0.3622 -0.3345
 9471SOL     OW30344   0.106   7.049   0.410  0.5810  0.5842  0.0220
 9471SOL    HW130345   0.079   7.135   0.442  0.9471  0.1479  1.5963
 9471SOL    HW230346   0.080   7.048   0.318  0.1832  2.2076  0.0954
 9472SOL     OW30347   1.621   4.411   3.141  0.1018 -0.1364 -0.0675
 9472SOL    HW130348   1.534   4.447   3.160  1.0816  1.7209  1.1244
 9472SOL    HW230349   1.627   4.333   3.196 -0.6905 -0.1305  0.0409
 9473SOL     OW30350   1.698   7.386   5.503 -0.0458  0.3551  0.2684
 9473SOL    HW130351   1.639   7.335   5.559  0.7376  2.5225  3.3260
 9473SOL    HW230352   1.658   7.472   5.497  0.7816  0.6745 -1.1037
 9474SOL     OW30353   6.473   2.897   3.956  0.5446  0.8683  0.3782
 9474SOL    HW130354   6.428   2.840   4.017  1.4504 -0.6838 -0.3465
 9474SOL    HW230355   6.407   2.921   3.892  0.2465  0.2696  0.4547
 9475SOL     OW30356   4.002   8.580   8.850 -0.1050 -0.7272 -0.0003
 9475SOL    HW130357   4.094   8.560   8.870 -0.4350 -0.6888  1.7799
 9475SOL    HW230358   4.006   8.652   8.788  1.0713 -0.7263  0.0489
 9476SOL     OW30359   3.337   3.675   0.026 -0.3127  0.0425 -0.0261
 9476SOL    HW130360   3.375   3.607   0.082  1.3598  0.1789 -0.9178
 9476SOL    HW230361   3.308   3.743   0.086  1.2041  0.0746  0.7038
 9477SOL     OW30362   0.859   0.687   6.389  0.3119  0.1548  0.5348
 9477SOL    HW130363   0.922   0.743   6.436  0.7732  1.9346 -1.9867
 9477SOL    HW230364   0.914   0.628   6.337  0.1963  2.6710 -2.8175
 9478SOL     OW30365   8.565   7.105   0.548 -0.0116  0.1780  0.4055
 9478SOL    HW130366   8.537   7.054   0.624 -0.5331 -0.0307  0.0716
 9478SOL    HW230367   8.606   7.041   0.490 -1.4715 -0.0358 -0.4223
 9479SOL     OW30368   8.353   1.626   5.795 -0.4983  0.6564 -0.2935
 9479SOL    HW130369   8.382   1.535   5.795 -0.4248  0.6811 -0.1589
 9479SOL    HW230370   8.258   1.621   5.784 -0.3983  0.5889 -1.2284
 9480SOL     OW30371   7.263   1.377   0.495  0.2968 -0.1792 -0.0558
 9480SOL    HW130372   7.201   1.306   0.507  1.4117 -1.1387  0.2027
 9480SOL    HW230373   7.344   1.345   0.535  1.0293  0.9339 -0.6030
 9481SOL     OW30374   3.325   6.239   7.839  0.4776  0.2681 -0.6512
 9481SOL    HW130375   3.284   6.153   7.836 -0.0961  0.5183 -0.1638
 9481SOL    HW230376   3.367   6.243   7.925  0.3495  0.5377 -0.5988
 9482SOL     OW30377   3.483   8.646   3.889 -0.2323 -0.1900 -0.0652
 9482SOL    HW130378   3.569   8.617   3.918  0.6379 -0.2241 -2.5112
 9482SOL    HW230379   3.436   8.666   3.971  0.9904 -3.0866  1.5059
 9483SOL     OW30380   5.963   2.653   4.711  0.1776  0.9653  0.2172
 9483SOL    HW130381   6.026   2.697   4.767  0.2341  1.0366  0.0965
 9483SOL    HW230382   5.945   2.570   4.756  0.5519  0.8292  0.1184
 9484SOL     OW30383   1.120   7.099   2.672  0.1223  0.2351 -0.3584
 9484SOL    HW130384   1.066   7.051   2.609  1.7364 -0.5400 -1.2215
 9484SOL    HW230385   1.079   7.186   2.677 -0.6678 -0.0314 -1.6617
 9485SOL     OW30386   6.092   2.009   5.656 -0.3891 -0.2445  0.0556
 9485SOL    HW130387   6.109   1.972   5.569 -2.3955 -2.2456  0.4061
 9485SOL    HW230388   6.178   2.027   5.693  0.5875 -1.6946 -1.4087
 9486SOL     OW30389   0.217   0.861   3.097  0.7377  0.5108  0.2490
 9486SOL    HW130390   0.136   0.811   3.105  1.0313 -0.4416 -1.9376
 9486SOL    HW230391   0.194   0.950   3.122 -1.4196  0.6178 -1.8078
 9487SOL     OW30392   5.725   5.430   3.034  0.3643 -0.3122  0.1060
 9487SOL    HW130393   5.742   5.451   2.942  0.0337 -2.5499 -0.5421
 9487SOL    HW230394   5.809   5.401   3.068  0.2275 -0.7239  0.1063
 9488SOL     OW30395   0.297   7.253   3.911  0.3788 -0.2044  0.2373
 9488SOL    HW130396   0.281   7.195   3.837  0.0467 -1.7247  1.4409
 9488SOL    HW230397   0.209   7.280   3.940  0.4197 -0.8776  1.0167
 9489SOL     OW30398   0.622   6.916   7.979 -0.3633 -0.1072  0.0619
 9489SOL    HW130399   0.557   6.953   7.920 -1.7916 -1.9972  0.3632
 9489SOL    HW230400   0.588   6.934   8.067 -0.6607 -1.3265  0.2198
 9490SOL     OW30401   8.398   0.014   8.869  0.8464  0.0328  0.2290
 9490SOL    HW130402   8.342   0.080   8.828  1.2785 -0.1841 -0.7177
 9490SOL    HW230403   8.367   0.011   8.960 -1.1056 -0.5304 -0.3904
 9491SOL     OW30404   8.528   7.178   8.540  0.3497 -0.3231 -0.1696
 9491SOL    HW130405   8.514   7.086   8.520 -0.4585  0.1181 -1.7502
 9491SOL    HW230406   8.557   7.217   8.458 -1.8026  1.3193 -0.2294
 9492SOL     OW30407   5.211   5.782   7.618  0.2574  0.1712  0.2774
 9492SOL    HW130408   5.183   5.802   7.708  0.7473 -0.9365  0.6943
 9492SOL    HW230409   5.141   5.728   7.583  1.1126 -1.3469  0.8116
 9493SOL     OW30410   5.789   1.764   1.544 -0.3445  0.5019 -0.2288
 9493SOL    HW130411   5.701   1.734   1.522  0.4682 -2.9582  0.6471
 9493SOL    HW230412   5.789   1.769   1.640  0.6309 -0.4490 -0.1610
 9494SOL     OW30413   0.188   6.005   7.922 -0.1429 -0.1796 -0.2662
 9494SOL    HW130414   0.179   6.100   7.923 -2.2519 -0.3275  0.8258
 9494SOL    HW230415   0.102   5.972   7.947  0.3819 -2.4102 -1.1103
 9495SOL     OW30416   2.282   8.810   2.037  0.4944  0.4175 -0.0824
 9495SOL    HW130417   2.324   8.823   2.122  1.5565  1.2796 -0.7135
 9495SOL    HW230418   2.313   8.883   1.983 -0.6699  0.2516 -1.0271
 9496SOL     OW30419   4.478   2.056   5.757  0.0119  0.0119 -0.3954
 9496SOL    HW130420   4.475   1.966   5.725 -1.6040  0.4510 -1.5880
 9496SOL    HW230421   4.417   2.104   5.701 -0.9750  1.3760  1.7113
 9497SOL     OW30422   4.876   6.777   5.637  0.2570 -0.1467 -0.0607
 9497SOL    HW130423   4.941   6.807   5.574  1.4595 -1.2019  0.6376
 9497SOL    HW230424   4.814   6.726   5.585  1.7971 -1.8700 -0.2971
 9498SOL     OW30425   4.351   1.841   5.097  0.1091 -0.2020  0.3266
 9498SOL    HW130426   4.334   1.789   5.018 -2.6584  0.8235  0.1166
 9498SOL    HW230427   4.395   1.780   5.157 -0.7960 -2.0540 -0.7823
 9499SOL     OW30428   4.934   3.638   3.934  0.0614 -0.4298 -0.5044
 9499SOL    HW130429   4.951   3.667   3.844 -0.4928 -0.9470 -0.7817
 9499SOL    HW230430   4.838   3.629   3.938  0.0429  0.0767  0.2867
 9500SOL     OW30431   6.362   7.717   4.319  0.0876  0.5791  0.8855
 9500SOL    HW130432   6.275   7.732   4.356 -0.6299  0.8955 -0.8468
 9500SOL    HW230433   6.408   7.667   4.386 -2.3062 -1.9662  0.8267
 9501SOL     OW30434   0.653   4.990   0.787 -0.1876  0.0915 -0.1790
 9501SOL    HW130435   0.721   5.001   0.720 -0.3145 -2.8202 -0.9244
 9501SOL    HW230436   0.580   4.950   0.741 -0.3739 -1.7673  1.6041
 9502SOL     OW30437   1.923   1.945   6.171  0.3179  0.0100 -0.2534
 9502SOL    HW130438   1.904   1.973   6.082  2.7026  0.8841 -0.5385
 9502SOL    HW230439   1.914   1.849   6.168 -1.6820  0.1690 -0.8477
 9503SOL     OW30440   1.912   1.515   4.993 -1.3270 -0.3645  0.3775
 9503SOL    HW130441   1.905   1.420   4.999  1.8748 -0.6439  1.2358
 9503SOL    HW230442   1.979   1.539   5.057 -0.9565  2.3316 -0.8582
 9504SOL     OW30443   4.142   1.336   7.393 -0.8744 -0.3062 -0.2298
 9504SOL    HW130444   4.050   1.356   7.407 -0.9344 -0.9028  0.2859
 9504SOL    HW230445   4.153   1.339   7.298 -1.1478  0.9039 -0.2399
 9505SOL     OW30446   8.411   8.547   2.776  0.2594 -0.1758  0.0614
 9505SOL    HW130447   8.440   8.638   2.785  1.3744 -0.6434  1.6595
 9505SOL    HW230448   8.381   8.522   2.863  0.9010 -1.6272 -0.1020
 9506SOL     OW30449   3.261   7.593   5.501  0.2563 -0.8194 -0.3655
 9506SOL    HW130450   3.321   7.519   5.516  1.2234 -0.1343 -0.7705
 9506SOL    HW230451   3.315   7.659   5.457 -0.3971  0.4250  0.6469
 9507SOL     OW30452   4.816   8.622   7.065  0.5452 -0.2992  0.1445
 9507SOL    HW130453   4.752   8.679   7.023 -0.2728  0.2528  2.0496
 9507SOL    HW230454   4.769   8.541   7.083  0.7443 -0.3549  0.4209
 9508SOL     OW30455   1.470   8.680   5.994  0.0917  0.5374  0.0672
 9508SOL    HW130456   1.419   8.735   5.935 -3.9576 -1.5767  1.2641
 9508SOL    HW230457   1.496   8.605   5.940 -1.6002 -0.2754  0.3283
 9509SOL     OW30458   4.568   3.875   7.304  0.0621  0.5490  0.3245
 9509SOL    HW130459   4.567   3.961   7.345  1.1836  1.3590 -1.2658
 9509SOL    HW230460   4.646   3.832   7.341 -0.4943  0.1917  1.1130
 9510SOL     OW30461   0.425   1.710   0.017 -0.1411 -0.0650 -0.0481
 9510SOL    HW130462   0.388   1.624   0.039 -1.8610  0.3114 -1.2870
 9510SOL    HW230463   0.510   1.689  -0.021 -0.1886 -1.1646  0.3887
 9511SOL     OW30464   7.523   8.341   3.122  0.4625  0.7912 -0.0326
 9511SOL    HW130465   7.451   8.388   3.163  0.5055  1.1047 -0.3132
 9511SOL    HW230466   7.556   8.283   3.190 -1.0991 -0.5545 -0.3620
 9512SOL     OW30467   5.224   5.848   4.110  0.0391 -1.1243  0.2340
 9512SOL    HW130468   5.238   5.789   4.036  0.5240 -1.7274  0.7984
 9512SOL    HW230469   5.308   5.893   4.120 -0.3628 -0.2375 -0.2706
 9513SOL     OW30470   2.713   1.893   2.048  0.1707  0.2947  0.0699
 9513SOL    HW130471   2.687   1.823   2.108 -0.8799  2.5919  2.5117
 9513SOL    HW230472   2.657   1.881   1.971 -1.9744  0.0258  1.5897
 9514SOL     OW30473   3.767   2.222   0.893  0.0550 -0.4040  0.0253
 9514SOL    HW130474   3.862   2.212   0.899  0.0571 -0.9169 -0.8212
 9514SOL    HW230475   3.741   2.254   0.980  0.9300 -0.7968  0.4416
 9515SOL     OW30476   5.193   3.321   1.830  0.4512 -0.0916 -0.1415
 9515SOL    HW130477   5.269   3.283   1.786  0.6627 -2.0667  1.7239
 9515SOL    HW230478   5.121   3.262   1.808 -0.1566  0.7189 -0.3873
 9516SOL     OW30479   5.038   4.110   1.430  0.0379 -0.1406 -0.1676
 9516SOL    HW130480   5.106   4.171   1.401  1.3717 -0.1429  2.6061
 9516SOL    HW230481   4.958   4.141   1.387  1.0924  2.2063 -0.6098
 9517SOL     OW30482   1.411   0.245   1.846  0.8069  0.2278 -0.4372
 9517SOL    HW130483   1.411   0.180   1.916 -1.9671  0.8481  0.2722
 9517SOL    HW230484   1.360   0.204   1.776  0.6211  0.9315 -0.7156
 9518SOL     OW30485   0.331   6.299   2.666 -0.0175  0.5203 -0.6289
 9518SOL    HW130486   0.278   6.369   2.706  1.7499  1.1779  0.6762
 9518SOL    HW230487   0.364   6.338   2.585 -0.0180  0.7649 -0.5131
 9519SOL     OW30488   1.360   4.970   2.570 -0.3964  0.0567  0.4325
 9519SOL    HW130489   1.336   4.962   2.662 -1.6555  0.4827  0.1542
 9519SOL    HW230490   1.277   4.973   2.523  0.2135  0.5554 -0.6646
 9520SOL     OW30491   5.988   0.250   8.015 -0.0677 -0.0537 -0.4170
 9520SOL    HW130492   6.049   0.241   8.088  0.2141  0.2255 -0.6136
 9520SOL    HW230493   6.033   0.211   7.940 -0.1143  0.1759 -0.5682
 9521SOL     OW30494   1.763   4.380   8.359  0.0331  0.2629 -0.2723
 9521SOL    HW130495   1.671   4.353   8.357 -0.1739  0.7804  1.0702
 9521SOL    HW230496   1.763   4.461   8.411  1.0466  1.1379 -1.5667
 9522SOL     OW30497   3.088   1.146   5.557 -0.4746 -0.3219  0.3459
 9522SOL    HW130498   3.117   1.056   5.547 -0.9314 -0.4546  0.1989
 9522SOL    HW230499   3.060   1.153   5.648  1.3614  0.2066  0.9043
 9523SOL     OW30500   4.725   0.023   1.532  0.5492 -0.2668 -0.0555
 9523SOL    HW130501   4.746   0.053   1.621  0.6927  0.4533 -0.3202
 9523SOL    HW230502   4.716   0.104   1.482 -2.3316 -0.4961 -0.0999
 9524SOL     OW30503   3.595   5.607   1.879  0.4188 -0.9492 -0.1083
 9524SOL    HW130504   3.618   5.659   1.802 -0.1277  1.1838  1.0846
 9524SOL    HW230505   3.624   5.518   1.858  1.6994 -0.1176 -2.1321
 9525SOL     OW30506   3.247   5.355   2.632 -0.1211  0.3751 -0.8077
 9525SOL    HW130507   3.331   5.392   2.606 -1.2704  1.5505 -3.2139
 9525SOL    HW230508   3.257   5.261   2.620  0.4166  0.6270 -2.7237
 9526SOL     OW30509   7.250   5.802   3.686  0.1156  0.1109 -0.1906
 9526SOL    HW130510   7.225   5.782   3.776  2.0393  0.8764  0.5772
 9526SOL    HW230511   7.170   5.836   3.646 -1.3858 -2.2907  0.5064
 9527SOL     OW30512   8.393   2.469   2.922 -0.0365 -0.3386 -0.2811
 9527SOL    HW130513   8.351   2.389   2.954 -1.0434  0.7855  1.3905
 9527SOL    HW230514   8.375   2.534   2.990  0.5804  1.3707 -1.6739
 9528SOL     OW30515   0.893   0.922   0.755  0.1781  0.0403  0.2122
 9528SOL    HW130516   0.838   0.930   0.833 -0.7557  0.3917 -0.4693
 9528SOL    HW230517   0.875   1.002   0.705  1.4667  0.2607  0.0704
 9529SOL     OW30518   8.445   7.304   6.342 -0.1718  0.0789  0.0050
 9529SOL    HW130519   8.446   7.336   6.252  1.0943  0.6666  0.2053
 9529SOL    HW230520   8.355   7.275   6.357 -0.5414  0.5504 -1.2433
 9530SOL     OW30521   1.273   6.589   6.515  0.0249 -0.7146  0.1125
 9530SOL    HW130522   1.221   6.645   6.573 -2.3907 -2.1921 -0.4689
 9530SOL    HW230523   1.316   6.649   6.455 -1.8545  0.5836 -0.0113
 9531SOL     OW30524   6.569   1.266   8.330 -0.0327 -0.0212 -0.1599
 9531SOL    HW130525   6.583   1.246   8.238 -0.5144  1.8697 -0.6937
 9531SOL    HW230526   6.560   1.181   8.373 -1.5564 -0.9105 -2.1382
 9532SOL     OW30527   7.553   5.700   6.825  0.2815 -0.0871  0.2482
 9532SOL    HW130528   7.508   5.683   6.908 -0.1272  0.7853  0.2150
 9532SOL    HW230529   7.494   5.664   6.759 -0.6798  1.5402  0.1650
 9533SOL     OW30530   7.514   7.823   1.327 -0.0717  0.3599  0.0233
 9533SOL    HW130531   7.520   7.905   1.278  0.0600  0.9261  0.9533
 9533SOL    HW230532   7.434   7.782   1.296  0.0647  0.6489 -0.7403
 9534SOL     OW30533   3.066   0.223   2.796 -0.4220  0.3418 -0.1829
 9534SOL    HW130534   3.116   0.173   2.732  1.2398  0.6552  0.8213
 9534SOL    HW230535   2.996   0.163   2.823 -0.9378  0.0725 -1.9623
 9535SOL     OW30536   0.769   1.909   8.602  0.1530 -0.1890 -0.5194
 9535SOL    HW130537   0.860   1.932   8.621 -0.0020  0.5936 -0.6849
 9535SOL    HW230538   0.735   1.985   8.555 -1.0645  0.2467  1.0063
 9536SOL     OW30539   7.517   8.796   1.776  0.2954 -0.1585 -0.2557
 9536SOL    HW130540   7.430   8.833   1.760 -0.4824 -2.2644 -1.1507
 9536SOL    HW230541   7.506   8.742   1.854  0.9800  0.0509 -0.0029
 9537SOL     OW30542   4.608   1.350   6.737  0.1362 -0.0966 -0.5113
 9537SOL    HW130543   4.683   1.399   6.771  0.6655 -1.7442  0.8736
 9537SOL    HW230544   4.532   1.404   6.760  0.7235  0.3355  0.5116
 9538SOL     OW30545   3.699   4.936   4.653  0.1024  0.6078 -0.6680
 9538SOL    HW130546   3.653   4.921   4.736 -1.8865 -0.4825 -1.8979
 9538SOL    HW230547   3.782   4.890   4.663 -0.7714 -0.8740  0.1809
 9539SOL     OW30548   5.810   8.263   4.992  0.5446  0.0681  0.3082
 9539SOL    HW130549   5.816   8.167   4.998  0.0391 -0.0081 -0.3137
 9539SOL    HW230550   5.829   8.293   5.081 -1.8108 -0.7374  1.1702
 9540SOL     OW30551   0.797   0.666   5.156  0.3190  0.4146  0.1643
 9540SOL    HW130552   0.838   0.734   5.103 -1.7499  2.1429  0.6093
 9540SOL    HW230553   0.824   0.584   5.116  2.2988  1.5149 -0.8761
 9541SOL     OW30554   6.804   0.896   5.237  0.0644 -0.0264 -0.5570
 9541SOL    HW130555   6.740   0.832   5.268  0.4812  0.0868  0.5723
 9541SOL    HW230556   6.812   0.959   5.309  2.3562 -0.7050 -0.1349
 9542SOL     OW30557   1.743   4.115   5.504  1.0185  0.5229 -0.1234
 9542SOL    HW130558   1.673   4.090   5.564  2.4700  0.0199  1.4659
 9542SOL    HW230559   1.749   4.041   5.443  1.4040 -0.3647  0.9382
 9543SOL     OW30560   6.834   5.776   5.038 -0.3192 -0.3040 -0.2961
 9543SOL    HW130561   6.750   5.802   5.078  0.3035  0.2194  0.7087
 9543SOL    HW230562   6.822   5.684   5.016 -1.3301 -0.1136 -0.6240
 9544SOL     OW30563   2.308   5.986   3.628  0.4529  0.4007  0.9103
 9544SOL    HW130564   2.326   6.075   3.661  1.8758  0.4996 -0.0459
 9544SOL    HW230565   2.259   6.000   3.547  0.9948  0.3377  0.5671
 9545SOL     OW30566   5.654   4.209   8.609 -0.1736 -0.0494 -0.2790
 9545SOL    HW130567   5.722   4.264   8.572  0.9873 -1.3414 -0.1500
 9545SOL    HW230568   5.581   4.269   8.626  1.5065  1.7020  1.1576
 9546SOL     OW30569   2.596   6.282   1.626  0.6411  0.4314  0.3494
 9546SOL    HW130570   2.624   6.269   1.717  1.8980 -3.6858 -0.4456
 9546SOL    HW230571   2.670   6.327   1.585  0.6248  1.1144  1.0350
 9547SOL     OW30572   5.160   2.746   1.198 -0.0834 -0.0872 -0.0914
 9547SOL    HW130573   5.165   2.651   1.190 -2.2242 -0.4210  1.5535
 9547SOL    HW230574   5.232   2.770   1.256 -0.4399 -0.9210  0.7103
 9548SOL     OW30575   7.434   4.886   8.493 -0.6388 -0.5857 -0.3009
 9548SOL    HW130576   7.514   4.852   8.453  0.5095 -0.1979  1.5289
 9548SOL    HW230577   7.380   4.809   8.508  0.1674 -1.1010  0.0570
 9549SOL     OW30578   5.437   6.805   0.782 -0.3733  0.1985  0.6055
 9549SOL    HW130579   5.501   6.753   0.831  0.2232 -1.9824 -2.1874
 9549SOL    HW230580   5.485   6.883   0.754  0.3730 -0.2721  0.5364
 9550SOL     OW30581   7.745   6.153   8.521  0.4408  0.2457  0.0912
 9550SOL    HW130582   7.699   6.234   8.496  1.1952  0.1877 -1.6224
 9550SOL    HW230583   7.749   6.102   8.440  0.7306 -1.1588  0.9558
 9551SOL     OW30584   2.306   0.275   4.194  0.1413 -0.1094 -0.6836
 9551SOL    HW130585   2.214   0.254   4.209  0.2695 -0.6441 -0.6486
 9551SOL    HW230586   2.336   0.208   4.132  0.7381 -0.4647 -0.0157
 9552SOL     OW30587   6.234   1.537   6.484 -0.2163 -0.0278 -0.8119
 9552SOL    HW130588   6.213   1.515   6.393  0.8579  0.7140 -1.2663
 9552SOL    HW230589   6.325   1.507   6.494  0.1753  1.2301 -0.4534
 9553SOL     OW30590   7.784   8.507   2.625  0.1576  0.3995  0.9083
 9553SOL    HW130591   7.840   8.502   2.702 -0.1711  3.4593  1.4768
 9553SOL    HW230592   7.821   8.579   2.573 -0.9355 -0.1289 -0.6919
 9554SOL     OW30593   5.396   0.870   5.470 -0.0782  0.5440 -0.2226
 9554SOL    HW130594   5.307   0.905   5.482 -0.0694  0.1895  1.0578
 9554SOL    HW230595   5.425   0.848   5.559  1.2304  0.4902 -0.6448
 9555SOL     OW30596   4.710   6.183   3.819  0.3009  0.1470 -0.5670
 9555SOL    HW130597   4.666   6.222   3.744 -1.8813 -0.3921  0.3306
 9555SOL    HW230598   4.765   6.252   3.854 -1.1154  1.4486 -0.8076
 9556SOL     OW30599   4.024   0.925   2.068 -0.4551  0.2873 -0.6001
 9556SOL    HW130600   3.962   0.871   2.118  0.0053  0.1809 -0.1342
 9556SOL    HW230601   4.109   0.905   2.107  0.2031 -1.2176 -2.6419
 9557SOL     OW30602   2.149   4.135   2.983 -0.3775 -0.0503  0.2864
 9557SOL    HW130603   2.179   4.180   3.062  0.3344 -0.2381  0.1341
 9557SOL    HW230604   2.222   4.142   2.922  0.5749 -3.0105  0.9023
 9558SOL     OW30605   1.308   7.950   2.002  0.1549  0.6015  0.0014
 9558SOL    HW130606   1.250   7.902   1.944  0.2315 -0.4338  0.7623
 9558SOL    HW230607   1.393   7.906   1.994  0.0372  0.0945  1.2926
 9559SOL     OW30608   2.217   3.919   1.396  0.8779  0.3365  0.1788
 9559SOL    HW130609   2.229   4.013   1.404 -0.1248  0.4999 -0.0570
 9559SOL    HW230610   2.296   3.888   1.352 -0.1692  1.5384 -2.7787
 9560SOL     OW30611   2.302   2.593   7.954 -0.0703  0.1922  0.4569
 9560SOL    HW130612   2.260   2.531   7.895 -0.4374  1.1256 -0.2929
 9560SOL    HW230613   2.295   2.553   8.040  2.0619 -2.0483 -0.3081
 9561SOL     OW30614   1.733   8.658   2.967  0.0253  0.1626  0.3368
 9561SOL    HW130615   1.796   8.615   2.909 -0.0457 -0.0916  0.4464
 9561SOL    HW230616   1.697   8.729   2.914  1.3304  1.1256  0.6851
 9562SOL     OW30617   2.120   0.894   3.429 -0.1552 -0.0434 -0.0473
 9562SOL    HW130618   2.068   0.856   3.500  0.1243  1.0897  0.7853
 9562SOL    HW230619   2.210   0.875   3.452  0.1840  2.9467  1.5961
 9563SOL     OW30620   2.580   3.497   3.482  0.3322 -0.3747 -0.3989
 9563SOL    HW130621   2.517   3.485   3.411 -1.6226  0.2441  1.1644
 9563SOL    HW230622   2.591   3.591   3.488  0.2111 -0.4094  0.3588
 9564SOL     OW30623   6.503   8.819   6.846  0.4983 -0.0696  0.3676
 9564SOL    HW130624   6.473   8.901   6.885  1.5495  0.9581 -0.9199
 9564SOL    HW230625   6.453   8.811   6.765  0.3612 -0.7519  0.5083
 9565SOL     OW30626   8.665   2.945   7.751  0.2663 -0.2280 -0.9822
 9565SOL    HW130627   8.700   2.973   7.835 -2.7016  1.8212 -0.3011
 9565SOL    HW230628   8.689   3.015   7.690  0.9211 -0.8736 -1.4889
 9566SOL     OW30629   8.595   2.129   0.169 -0.3644  0.0172 -0.0356
 9566SOL    HW130630   8.542   2.161   0.096 -0.7127 -0.3068  0.0732
 9566SOL    HW230631   8.686   2.144   0.141 -0.4647 -0.8779 -0.9025
 9567SOL     OW30632   2.231   2.747   6.179 -0.8019  0.0210  0.0841
 9567SOL    HW130633   2.205   2.685   6.111 -0.9797 -0.4690  0.5874
 9567SOL    HW230634   2.213   2.833   6.142  0.3568 -0.1721 -1.0149
 9568SOL     OW30635   2.854   5.165   8.658  0.1371  0.2918  0.0924
 9568SOL    HW130636   2.922   5.231   8.669 -0.4961  0.8237  0.9760
 9568SOL    HW230637   2.776   5.215   8.635 -0.5364 -0.0304  1.5058
 9569SOL     OW30638   5.289   5.829   5.502 -0.4696 -0.2477  0.1023
 9569SOL    HW130639   5.200   5.841   5.470 -0.3934  1.2327  0.3756
 9569SOL    HW230640   5.282   5.765   5.572 -1.6005  1.0875  1.2599
 9570SOL     OW30641   6.792   5.030   1.360  0.0082 -0.2230 -0.1206
 9570SOL    HW130642   6.885   5.048   1.368 -0.1264  1.0267 -1.0321
 9570SOL    HW230643   6.751   5.116   1.355 -1.2011 -0.7509  0.2035
 9571SOL     OW30644   2.974   7.308   2.306  0.3845 -0.1356 -0.1379
 9571SOL    HW130645   2.881   7.307   2.283  0.6261  0.3162 -1.1963
 9571SOL    HW230646   2.983   7.381   2.367 -0.0393 -0.5328  0.4195
 9572SOL     OW30647   2.938   4.375   1.035 -0.4752 -0.2566 -0.1421
 9572SOL    HW130648   3.026   4.367   1.071 -0.1316  0.0695 -0.8973
 9572SOL    HW230649   2.908   4.284   1.025 -0.8448 -0.3656  1.5542
 9573SOL     OW30650   5.376   5.474   1.800 -0.3120 -0.4779  0.4166
 9573SOL    HW130651   5.376   5.406   1.732  0.8583 -0.0906  0.0074
 9573SOL    HW230652   5.353   5.428   1.880 -0.9284 -1.0911 -0.0946
 9574SOL     OW30653   7.356   1.279   6.439  0.2519 -0.4241 -0.5364
 9574SOL    HW130654   7.263   1.297   6.456  0.7385  3.4941 -0.9995
 9574SOL    HW230655   7.355   1.215   6.368 -2.0887 -0.6983 -0.3416
 9575SOL     OW30656   5.402   7.057   7.778  0.2082  0.5244  0.6706
 9575SOL    HW130657   5.313   7.034   7.754  0.3101 -0.8719  1.5024
 9575SOL    HW230658   5.450   7.060   7.695 -0.6655  1.6856  0.1771
 9576SOL     OW30659   1.165   5.958   0.153  0.3802  0.2194 -0.7777
 9576SOL    HW130660   1.092   5.899   0.174  1.6850 -0.7871  1.2123
 9576SOL    HW230661   1.154   5.977   0.060 -1.3436 -1.4171 -0.9690
 9577SOL     OW30662   5.866   5.374   2.746 -0.1979  1.1850  0.0289
 9577SOL    HW130663   5.781   5.337   2.722  0.2746  0.5136 -0.6654
 9577SOL    HW230664   5.919   5.365   2.666  0.7316  0.9787  0.6608
 9578SOL     OW30665   4.033   6.050   4.104  0.7279  0.1362  0.2814
 9578SOL    HW130666   3.987   5.994   4.166 -0.5162 -0.2749 -0.9540
 9578SOL    HW230667   4.105   6.089   4.154  0.8607 -1.5807  1.4954
 9579SOL     OW30668   2.527   8.032   4.822 -0.3906  0.4103 -0.0950
 9579SOL    HW130669   2.558   7.941   4.824 -0.1793  0.4676 -0.8083
 9579SOL    HW230670   2.452   8.031   4.763 -0.7709  0.5918  0.3701
 9580SOL     OW30671   1.608   1.186   1.858  0.4587  0.3496  0.2962
 9580SOL    HW130672   1.540   1.190   1.791  1.5910  0.3433 -0.8969
 9580SOL    HW230673   1.570   1.231   1.934 -1.6801 -1.5397  0.4606
 9581SOL     OW30674   5.892   2.302   2.753 -0.1703  0.1382  0.3823
 9581SOL    HW130675   5.847   2.366   2.808 -1.5842 -0.2968 -0.2306
 9581SOL    HW230676   5.971   2.347   2.724 -0.1416  0.8948  1.5563
 9582SOL     OW30677   8.065   0.100   8.481 -0.0841 -0.1691 -0.2751
 9582SOL    HW130678   8.079   0.194   8.474  1.1380 -0.3434 -0.4510
 9582SOL    HW230679   7.978   0.091   8.520  0.1850  1.0402  0.6532
 9583SOL     OW30680   4.918   5.812   8.099 -0.0246  0.1753  0.0034
 9583SOL    HW130681   4.983   5.858   8.046  0.5948 -0.4280  0.2113
 9583SOL    HW230682   4.968   5.780   8.175 -0.4492 -0.7342 -0.0850
 9584SOL     OW30683   8.247   3.626   8.655 -0.4969 -0.0099  0.0858
 9584SOL    HW130684   8.200   3.663   8.580  1.5798 -0.3454 -1.4604
 9584SOL    HW230685   8.326   3.587   8.618 -0.8390 -2.9335  2.0843
 9585SOL     OW30686   5.306   2.808   6.260  0.5277 -0.0063 -0.4479
 9585SOL    HW130687   5.217   2.789   6.287 -0.1323 -1.3296 -3.2574
 9585SOL    HW230688   5.342   2.861   6.332 -2.3575  0.2746  0.9192
 9586SOL     OW30689   2.659   6.716   4.676 -0.3461 -0.2911  0.3834
 9586SOL    HW130690   2.564   6.705   4.664 -0.4903  0.3923  0.8216
 9586SOL    HW230691   2.694   6.628   4.669 -0.9434 -0.4736 -0.4202
 9587SOL     OW30692   1.579   2.010   5.699 -0.3000 -0.3276 -0.1533
 9587SOL    HW130693   1.632   1.957   5.639 -0.5148 -1.0997  0.3427
 9587SOL    HW230694   1.612   1.988   5.786 -0.5931  0.1323  0.0757
 9588SOL     OW30695   0.941   3.783   6.431 -0.2947 -0.1425 -0.0336
 9588SOL    HW130696   0.859   3.814   6.393 -0.5351 -0.0663  0.5356
 9588SOL    HW230697   0.994   3.757   6.356 -0.7602  0.0048 -0.4175
 9589SOL     OW30698   7.565   6.952   3.291  0.2105  0.2015 -0.8238
 9589SOL    HW130699   7.583   6.978   3.201 -1.1195 -1.9713 -1.7840
 9589SOL    HW230700   7.638   6.895   3.316 -1.5347 -2.8998 -2.2407
 9590SOL     OW30701   4.148   3.503   7.205  0.0849  0.8490  0.1866
 9590SOL    HW130702   4.150   3.595   7.181  1.5609  1.0730  1.0462
 9590SOL    HW230703   4.107   3.501   7.292  0.9490  0.8291  0.6073
 9591SOL     OW30704   7.009   8.441   7.324 -0.8301  0.2785  0.5812
 9591SOL    HW130705   6.962   8.505   7.378 -0.8171 -0.0978  1.0479
 9591SOL    HW230706   6.958   8.361   7.331 -2.1708  0.8142 -1.9101
 9592SOL     OW30707   7.137   7.489   8.023  0.0196  0.3412  0.4935
 9592SOL    HW130708   7.232   7.484   8.023  0.0811  1.0846  1.3568
 9592SOL    HW230709   7.110   7.428   8.092 -0.1353  0.0967  0.2176
 9593SOL     OW30710   3.741   8.559   6.731 -0.1118 -0.1227  0.4174
 9593SOL    HW130711   3.823   8.509   6.731  1.1234  1.7508  1.2625
 9593SOL    HW230712   3.673   8.495   6.711  1.4776 -1.8926  0.3955
 9594SOL     OW30713   0.567   0.321   4.093 -0.1932  0.0516 -0.2626
 9594SOL    HW130714   0.517   0.359   4.021 -0.6702 -0.8663 -0.4267
 9594SOL    HW230715   0.645   0.283   4.053 -0.1499  0.0849 -0.2113
 9595SOL     OW30716   2.656   5.610   1.636  0.1855  0.1013 -0.4647
 9595SOL    HW130717   2.717   5.554   1.588 -0.9292 -0.8043 -0.8578
 9595SOL    HW230718   2.636   5.561   1.716 -0.1053  0.3405 -0.3887
 9596SOL     OW30719   2.886   2.149   7.434  0.3406 -0.0228  0.0329
 9596SOL    HW130720   2.815   2.171   7.372 -0.1313 -0.1752  0.5112
 9596SOL    HW230721   2.840   2.122   7.513  0.9079  1.9498  1.0996
 9597SOL     OW30722   3.089   3.202   0.424 -0.3403 -0.6305  0.1427
 9597SOL    HW130723   3.041   3.262   0.481  0.2719 -0.1975  0.2095
 9597SOL    HW230724   3.092   3.246   0.340  2.2211  0.6140  0.7878
 9598SOL     OW30725   3.518   2.594   6.655  0.2785  0.0723 -0.5662
 9598SOL    HW130726   3.534   2.661   6.721  2.8000 -0.5070 -0.5017
 9598SOL    HW230727   3.428   2.611   6.625  0.5585  3.0017 -0.0454
 9599SOL     OW30728   0.185   0.811   5.801 -0.4149  0.2954 -0.3483
 9599SOL    HW130729   0.257   0.788   5.860 -0.1223 -0.5161 -1.0038
 9599SOL    HW230730   0.108   0.813   5.858  0.2056  1.8961  0.5007
 9600SOL     OW30731   8.312   3.349   4.878  0.1702  0.0458  0.3886
 9600SOL    HW130732   8.256   3.363   4.955 -0.1031  1.9590 -0.1051
 9600SOL    HW230733   8.353   3.264   4.894 -1.3638 -0.5081  1.7062
 9601SOL     OW30734   7.829   1.143   8.097  0.3022 -0.1393  0.0938
 9601SOL    HW130735   7.888   1.218   8.092 -0.9620  0.9502  0.8298
 9601SOL    HW230736   7.797   1.133   8.007  0.4485  0.2245 -0.0018
 9602SOL     OW30737   5.581   0.755   4.270  0.1410 -0.0447  0.6984
 9602SOL    HW130738   5.565   0.849   4.257 -2.1267 -0.7315 -3.2085
 9602SOL    HW230739   5.661   0.737   4.220 -0.2339 -0.3655  0.1990
 9603SOL     OW30740   0.316   7.241   4.862  0.7307  0.0396 -0.3187
 9603SOL    HW130741   0.309   7.336   4.872 -1.2943 -0.1163  0.1389
 9603SOL    HW230742   0.247   7.218   4.799  1.6014 -1.0702 -0.9060
 9604SOL     OW30743   8.568   1.151   3.592 -0.0744  0.0524 -0.2381
 9604SOL    HW130744   8.609   1.068   3.566  2.1077  0.5985  1.2105
 9604SOL    HW230745   8.625   1.218   3.555 -0.8584  0.8944  0.0588
 9605SOL     OW30746   3.638   7.963   3.245  0.2090  0.1321  0.4301
 9605SOL    HW130747   3.681   7.885   3.210 -1.2885 -0.5824  0.0732
 9605SOL    HW230748   3.580   7.930   3.314  1.0267  1.1904  1.6588
 9606SOL     OW30749   5.664   3.223   3.255  0.2052 -0.5894 -0.6509
 9606SOL    HW130750   5.591   3.281   3.234 -1.5570 -2.1121  0.9119
 9606SOL    HW230751   5.710   3.267   3.326  0.1295 -0.1648 -0.8573
 9607SOL     OW30752   4.566   0.668   3.036 -0.1665  0.5233  0.1324
 9607SOL    HW130753   4.505   0.739   3.018 -0.6963  0.0581  0.0557
 9607SOL    HW230754   4.511   0.590   3.042  0.5968 -0.2192 -1.8182
 9608SOL     OW30755   0.627   7.628   5.439  0.2787  0.2927 -0.6227
 9608SOL    HW130756   0.645   7.536   5.461  0.0290  0.1533 -1.0019
 9608SOL    HW230757   0.709   7.673   5.460 -0.8369  0.7759  3.8428
 9609SOL     OW30758   7.163   0.321   1.252 -0.1797  0.0553 -0.1969
 9609SOL    HW130759   7.124   0.272   1.325 -2.1119  1.1523 -0.4197
 9609SOL    HW230760   7.253   0.290   1.248 -0.3483 -0.8963  1.8956
 9610SOL     OW30761   6.452   6.502   2.890  0.1445 -0.1758 -0.2052
 9610SOL    HW130762   6.447   6.569   2.822 -0.9528 -2.3036 -2.3713
 9610SOL    HW230763   6.538   6.462   2.879 -0.8184 -1.9728 -1.9636
 9611SOL     OW30764   1.769   5.351   8.512  0.4616 -0.0245  0.1092
 9611SOL    HW130765   1.841   5.402   8.548 -0.8402  0.9262  1.4881
 9611SOL    HW230766   1.777   5.360   8.417  1.2786  1.2981  0.2950
 9612SOL     OW30767   0.235   1.680   0.512  0.2605  0.1342 -0.3599
 9612SOL    HW130768   0.162   1.646   0.564  1.3164 -1.4544  0.1702
 9612SOL    HW230769   0.231   1.775   0.523 -0.9750 -0.0162  0.6705
 9613SOL     OW30770   5.216   5.318   8.541  0.4327 -0.0441 -0.1654
 9613SOL    HW130771   5.292   5.301   8.484 -0.0865 -1.7358 -0.4159
 9613SOL    HW230772   5.150   5.355   8.483  0.0791 -1.3033 -0.6002
 9614SOL     OW30773   1.370   2.527   8.459  0.2486  0.4331  0.2677
 9614SOL    HW130774   1.357   2.606   8.511  0.2686 -0.6280  1.9724
 9614SOL    HW230775   1.464   2.526   8.440 -0.0539  1.8255 -1.5319
 9615SOL     OW30776   2.868   4.648   3.711  0.0002 -0.0104 -0.2720
 9615SOL    HW130777   2.821   4.677   3.633  1.3591 -0.0395 -1.1301
 9615SOL    HW230778   2.943   4.600   3.677  0.4017 -0.3605  1.0683
 9616SOL     OW30779   4.265   2.703   3.533  0.5136 -0.0621 -0.0248
 9616SOL    HW130780   4.271   2.679   3.626  0.3292 -1.6811 -0.3950
 9616SOL    HW230781   4.195   2.647   3.499  0.2523  0.8528 -1.0581
 9617SOL     OW30782   3.121   5.185   3.476 -0.1210  0.1795 -0.9461
 9617SOL    HW130783   3.125   5.280   3.488 -0.1760  0.2714 -1.6530
 9617SOL    HW230784   3.029   5.162   3.495  0.1624  0.0854  0.4559
 9618SOL     OW30785   4.023   8.466   3.748  0.4110 -0.4296  0.7934
 9618SOL    HW130786   4.105   8.514   3.735  0.5789 -1.1132 -1.0198
 9618SOL    HW230787   4.005   8.473   3.841  2.0985  0.4482  1.0861
 9619SOL     OW30788   5.861   8.168   4.709  0.6365  0.2186 -0.7660
 9619SOL    HW130789   5.784   8.168   4.766  1.2678  1.0381  0.1112
 9619SOL    HW230790   5.875   8.076   4.689  0.3741 -0.0903  0.3698
 9620SOL     OW30791   1.529   8.572   3.119  0.0688  0.0196  0.5137
 9620SOL    HW130792   1.604   8.607   3.071  0.0123 -0.9238 -0.2834
 9620SOL    HW230793   1.485   8.515   3.057 -1.1472  0.3133  1.0683
 9621SOL     OW30794   5.567   8.190   1.495  0.2765  0.2485 -0.3269
 9621SOL    HW130795   5.576   8.286   1.499 -1.7041  0.5265 -1.4990
 9621SOL    HW230796   5.637   8.158   1.552  0.5846  2.4017  0.6236
 9622SOL     OW30797   7.312   1.393   2.811  0.4280 -0.2588 -0.6920
 9622SOL    HW130798   7.224   1.427   2.793  0.3213  0.4586  1.0457
 9622SOL    HW230799   7.302   1.298   2.810 -0.3323 -0.1831 -0.6951
 9623SOL     OW30800   0.885   3.137   5.439  0.6565  0.4379 -0.3869
 9623SOL    HW130801   0.919   3.225   5.421  1.0237  0.1431 -1.1824
 9623SOL    HW230802   0.793   3.150   5.460  1.0245  1.1597  0.9375
 9624SOL     OW30803   4.550   6.840   0.278  0.7112  0.2432  0.0114
 9624SOL    HW130804   4.607   6.773   0.316 -0.6357 -0.2251  1.3178
 9624SOL    HW230805   4.462   6.814   0.306 -0.0448  1.4564 -1.1602
 9625SOL     OW30806   6.773   7.392   4.048  0.3487 -0.0131 -0.5073
 9625SOL    HW130807   6.798   7.471   4.097  1.1232 -0.3009 -0.4261
 9625SOL    HW230808   6.704   7.352   4.101 -1.9937  1.9803 -1.8382
 9626SOL     OW30809   4.972   5.579   0.242 -0.0467  0.0756  0.0517
 9626SOL    HW130810   5.003   5.572   0.332  0.7447  1.4551 -0.0902
 9626SOL    HW230811   5.039   5.537   0.189 -0.4756 -0.6693  0.0883
 9627SOL     OW30812   3.849   4.425   1.550  0.7191  0.5224  0.4978
 9627SOL    HW130813   3.836   4.419   1.455 -1.3854  1.0857  0.7057
 9627SOL    HW230814   3.777   4.374   1.587 -2.1297  4.9229  1.8227
 9628SOL     OW30815   5.077   7.981   1.665 -0.2629  0.5164  0.1880
 9628SOL    HW130816   5.156   8.019   1.626  0.1274 -0.8010 -0.3626
 9628SOL    HW230817   5.109   7.913   1.724 -0.8825  1.9476  2.3109
 9629SOL     OW30818   7.892   0.980   6.946 -0.0662 -0.0514  1.0637
 9629SOL    HW130819   7.878   0.915   7.014 -1.2830 -1.3852 -0.3866
 9629SOL    HW230820   7.828   1.049   6.964  0.4395  0.1972  1.9395
 9630SOL     OW30821   1.953   6.320   3.633 -0.5843 -0.5456  0.1139
 9630SOL    HW130822   2.026   6.381   3.624 -0.1364 -1.0696  0.0887
 9630SOL    HW230823   1.982   6.258   3.701 -0.6522 -1.2426 -0.4787
 9631SOL     OW30824   0.558   1.128   4.688  0.4824  0.0764 -0.8846
 9631SOL    HW130825   0.496   1.087   4.749  1.1239 -0.3277 -0.4960
 9631SOL    HW230826   0.605   1.192   4.742 -1.1536  2.0582 -1.6801
 9632SOL     OW30827   0.421   4.015   1.325  0.5505  0.1414  0.8283
 9632SOL    HW130828   0.388   4.095   1.364 -2.6760 -0.8130  0.3760
 9632SOL    HW230829   0.450   4.041   1.237 -0.9343  0.7650  0.5037
 9633SOL     OW30830   3.091   7.136   5.737 -0.1291 -0.4536  0.5510
 9633SOL    HW130831   3.158   7.087   5.689  1.9143  3.1634 -0.6804
 9633SOL    HW230832   3.131   7.156   5.821  0.0306  0.9447  0.1650
 9634SOL     OW30833   7.463   8.126   3.944  0.2248  0.1396 -0.1514
 9634SOL    HW130834   7.487   8.184   3.872  0.4791 -0.3383 -0.4584
 9634SOL    HW230835   7.369   8.110   3.933  0.0468  0.8928  0.2303
 9635SOL     OW30836   8.346   4.963   0.659 -0.0153 -0.0578 -0.1652
 9635SOL    HW130837   8.287   4.893   0.633  0.7035 -0.3115 -1.1562
 9635SOL    HW230838   8.409   4.970   0.588  0.1476  1.3555  0.0725
 9636SOL     OW30839   2.948   7.853   8.144  0.0308 -0.0390 -0.0266
 9636SOL    HW130840   2.913   7.916   8.206  0.5939  1.4264 -1.1404
 9636SOL    HW230841   2.891   7.860   8.067 -0.2223 -1.2977  0.0275
 9637SOL     OW30842   4.860   5.621   0.880  0.1524 -0.1028 -0.5403
 9637SOL    HW130843   4.888   5.707   0.914 -0.0894  0.2260 -1.1538
 9637SOL    HW230844   4.767   5.633   0.859 -0.1812 -0.8591  0.4495
 9638SOL     OW30845   7.763   5.998   2.655 -0.0273 -0.1080 -0.6832
 9638SOL    HW130846   7.846   6.017   2.697 -0.5241 -1.8704  1.2691
 9638SOL    HW230847   7.707   6.073   2.676 -0.0577 -0.6511  1.3393
 9639SOL     OW30848   1.173   0.945   0.824  0.4646 -0.2147 -0.3218
 9639SOL    HW130849   1.170   0.983   0.912  0.8766 -2.0456  0.5234
 9639SOL    HW230850   1.081   0.931   0.801  0.3886 -1.9858  0.8811
 9640SOL     OW30851   1.135   8.840   0.096 -0.0144 -0.0841  0.6820
 9640SOL    HW130852   1.077   8.910   0.127  0.7339  2.9715 -3.8537
 9640SOL    HW230853   1.206   8.839   0.159 -0.7570  2.3092  1.7006
 9641SOL     OW30854   7.312   2.681   7.827  0.2681 -0.2132 -0.2485
 9641SOL    HW130855   7.261   2.614   7.872  1.0214 -1.0184 -0.5676
 9641SOL    HW230856   7.252   2.755   7.817 -0.1227 -0.2474  1.4692
 9642SOL     OW30857   4.117   4.412   7.292  0.0997 -0.1042 -0.4235
 9642SOL    HW130858   4.028   4.385   7.314  0.2816  0.6000  1.3384
 9642SOL    HW230859   4.107   4.495   7.246 -0.1307  0.1316  0.0563
 9643SOL     OW30860   5.163   5.954   3.437  1.0497 -0.1554 -0.2747
 9643SOL    HW130861   5.087   6.008   3.459  3.6523  4.0980 -0.4516
 9643SOL    HW230862   5.180   5.902   3.516 -1.6804 -0.9558 -0.1103
 9644SOL     OW30863   6.065   8.155   1.741  0.3924  0.2196  0.0196
 9644SOL    HW130864   6.078   8.061   1.729 -1.9419 -0.0253 -0.9687
 9644SOL    HW230865   6.111   8.195   1.667 -0.2138 -0.2821 -0.6433
 9645SOL     OW30866   4.264   5.676   5.354  0.0082  0.3723 -0.0160
 9645SOL    HW130867   4.279   5.602   5.296  1.3495  0.5843  0.0327
 9645SOL    HW230868   4.274   5.753   5.299 -2.4307  0.5643 -0.3124
 9646SOL     OW30869   5.603   2.099   8.576 -0.4290  0.4480  0.0980
 9646SOL    HW130870   5.553   2.076   8.654 -0.2286  0.5285  0.2508
 9646SOL    HW230871   5.635   2.016   8.542 -0.7076  0.3908 -0.0304
 9647SOL     OW30872   2.446   4.029   1.815 -0.3319 -0.0011  0.1444
 9647SOL    HW130873   2.509   3.960   1.837  0.5706  0.4107 -1.0854
 9647SOL    HW230874   2.404   4.050   1.899  1.3994 -0.0481  1.0591
 9648SOL     OW30875   4.707   0.263   8.261 -0.0860 -0.0082 -0.5385
 9648SOL    HW130876   4.717   0.247   8.355  1.1478 -1.7922 -0.9095
 9648SOL    HW230877   4.719   0.357   8.252 -0.1955  0.2008  1.0949
 9649SOL     OW30878   0.014   0.375   7.510  0.1060 -0.2313  0.0474
 9649SOL    HW130879  -0.078   0.349   7.519 -0.0376  0.4631  0.6686
 9649SOL    HW230880   0.016   0.465   7.542  0.7079  0.3154 -1.4735
 9650SOL     OW30881   1.636   5.723   3.625 -0.1942  0.3442  0.6265
 9650SOL    HW130882   1.704   5.700   3.561 -1.1541 -3.8884  0.7880
 9650SOL    HW230883   1.571   5.770   3.575  0.1101 -0.9238 -1.0538
 9651SOL     OW30884   5.915   3.722   4.788 -0.0542 -0.3257  0.8088
 9651SOL    HW130885   5.953   3.728   4.700 -1.6591 -0.5756  0.0652
 9651SOL    HW230886   5.986   3.749   4.846  0.3372  2.2205 -0.6977
 9652SOL     OW30887   1.692   2.393   1.750 -0.3900 -0.0456 -0.8217
 9652SOL    HW130888   1.697   2.480   1.789  1.2256 -0.7343  0.6609
 9652SOL    HW230889   1.749   2.398   1.673 -0.3759  0.2295 -0.7946
 9653SOL     OW30890   6.148   0.802   2.368 -1.0228 -0.8755 -0.1813
 9653SOL    HW130891   6.158   0.825   2.460 -0.7712 -0.9757 -0.1823
 9653SOL    HW230892   6.237   0.781   2.339 -1.3639 -3.0072  0.1327
 9654SOL     OW30893   7.881   0.591   2.493  0.8394 -0.0274 -0.0064
 9654SOL    HW130894   7.823   0.652   2.539 -0.4917 -1.8389  0.8310
 9654SOL    HW230895   7.822   0.535   2.443  1.7366 -2.6213  1.6838
 9655SOL     OW30896   6.674   2.683   7.159  0.3208  0.2487  0.0215
 9655SOL    HW130897   6.593   2.646   7.124  1.3879 -1.0100 -1.2181
 9655SOL    HW230898   6.679   2.771   7.122 -0.1026  0.0575 -0.5000
 9656SOL     OW30899   7.652   2.673   1.158 -0.2337 -0.2170  0.3003
 9656SOL    HW130900   7.714   2.600   1.165  0.7346  0.5335 -0.2488
 9656SOL    HW230901   7.694   2.744   1.207 -0.6567  0.2979 -0.0775
 9657SOL     OW30902   6.038   4.866   2.311  0.3887  0.0603  0.4448
 9657SOL    HW130903   6.119   4.855   2.360 -0.1101  2.5465  1.9877
 9657SOL    HW230904   5.979   4.800   2.347  1.1337 -0.5436  0.5962
 9658SOL     OW30905   2.861   4.598   6.675  0.3534 -0.5078  0.0650
 9658SOL    HW130906   2.823   4.666   6.620  0.9845 -0.9116 -0.9079
 9658SOL    HW230907   2.811   4.602   6.756  1.4650  2.2823  0.7325
 9659SOL     OW30908   0.204   2.133   4.539 -0.4626 -0.0281  0.1374
 9659SOL    HW130909   0.245   2.184   4.469  0.3266  1.5726  1.6865
 9659SOL    HW230910   0.276   2.114   4.600 -1.3534 -0.2916  1.1433
 9660SOL     OW30911   8.705   6.390   4.536 -0.1030  0.4664 -0.5191
 9660SOL    HW130912   8.645   6.337   4.483 -0.9426  0.8295  0.0473
 9660SOL    HW230913   8.677   6.376   4.626 -0.8211  2.4155 -0.3901
 9661SOL     OW30914   6.441   2.988   4.858 -0.0989  0.4124 -0.6029
 9661SOL    HW130915   6.458   2.924   4.789 -1.2400 -1.8645  1.0950
 9661SOL    HW230916   6.386   3.054   4.815 -0.3760 -0.6730 -2.0067
 9662SOL     OW30917   6.290   8.629   5.992  0.2069 -0.1142  0.0564
 9662SOL    HW130918   6.383   8.649   5.984 -0.3653  3.2026  0.3608
 9662SOL    HW230919   6.260   8.683   6.065 -1.8494 -1.6201  0.3924
 9663SOL     OW30920   2.958   1.481   0.565 -0.3233  0.0181 -0.7304
 9663SOL    HW130921   2.869   1.482   0.600 -0.9092  0.0843 -2.1377
 9663SOL    HW230922   2.962   1.401   0.513  0.7648 -0.4697  0.0793
 9664SOL     OW30923   7.308   8.391   2.307  0.3214 -0.1383 -0.4659
 9664SOL    HW130924   7.392   8.419   2.344  0.9232 -1.3611 -0.8581
 9664SOL    HW230925   7.242   8.429   2.365  1.1277  1.1271 -0.3513
 9665SOL     OW30926   4.138   7.429   6.893  0.2341  0.4693  0.0975
 9665SOL    HW130927   4.208   7.417   6.828  0.2968 -2.3927  0.5351
 9665SOL    HW230928   4.185   7.438   6.976  0.1949 -1.8446  0.4453
 9666SOL     OW30929   1.011   8.408   1.578 -1.0389 -0.0109  0.1117
 9666SOL    HW130930   1.045   8.357   1.505  0.4828  1.5307 -0.3020
 9666SOL    HW230931   1.020   8.350   1.654  0.2539 -0.5471 -0.4201
 9667SOL     OW30932   6.473   1.162   0.195  0.2061  0.1523  0.2766
 9667SOL    HW130933   6.531   1.223   0.241  1.1382 -0.2771 -0.3113
 9667SOL    HW230934   6.424   1.217   0.134  0.2063  0.4718  0.5612
 9668SOL     OW30935   7.241   6.995   3.314  0.6125 -0.3479 -0.2397
 9668SOL    HW130936   7.258   7.007   3.407  0.2778  0.0557 -0.2302
 9668SOL    HW230937   7.242   6.900   3.301 -0.9742 -0.4854  0.4805
 9669SOL     OW30938   5.585   5.247   5.742 -0.4387 -0.3922 -0.6324
 9669SOL    HW130939   5.495   5.261   5.769  0.5360  2.0320  1.8498
 9669SOL    HW230940   5.596   5.151   5.742 -2.6697 -0.6985  0.1487
 9670SOL     OW30941   4.053   5.054   4.763 -1.0085  0.2282  0.0546
 9670SOL    HW130942   4.045   4.959   4.755  3.9634 -0.4861  0.6371
 9670SOL    HW230943   4.023   5.073   4.852 -0.8869 -0.9780  0.3728
 9671SOL     OW30944   2.831   1.690   2.629 -0.1620 -0.0242  0.5056
 9671SOL    HW130945   2.782   1.682   2.711  0.4798  1.0765  1.0289
 9671SOL    HW230946   2.919   1.719   2.657 -0.3271  1.7105 -0.6288
 9672SOL     OW30947   0.041   7.303   0.511 -0.3311  0.2030 -0.1543
 9672SOL    HW130948   0.101   7.374   0.535  0.1552  0.0919 -1.0162
 9672SOL    HW230949  -0.033   7.346   0.468 -0.8152  0.3260  0.7756
 9673SOL     OW30950   0.227   8.710   2.054  0.2940  0.2776  0.1011
 9673SOL    HW130951   0.226   8.623   2.013  0.0973  1.0824 -1.6918
 9673SOL    HW230952   0.137   8.742   2.044  0.2410  0.4869  1.2078
 9674SOL     OW30953   1.166   7.845   0.489  0.0011 -0.1793 -0.0682
 9674SOL    HW130954   1.154   7.752   0.507  0.8164 -0.3098 -0.1623
 9674SOL    HW230955   1.100   7.889   0.542 -0.5764 -0.8255 -0.2359
 9675SOL     OW30956   1.729   4.415   0.086  0.2632  0.4087  0.2830
 9675SOL    HW130957   1.657   4.353   0.072 -0.1172  0.9374 -0.1524
 9675SOL    HW230958   1.716   4.446   0.176 -0.6026  1.1659 -0.0788
 9676SOL     OW30959   6.560   1.274   1.727 -0.0260  0.3718  0.3816
 9676SOL    HW130960   6.487   1.328   1.695  0.9960  0.9271 -1.1455
 9676SOL    HW230961   6.627   1.338   1.753  0.6872 -0.1358 -0.1690
 9677SOL     OW30962   0.789   0.443   2.647 -0.0312 -0.0302 -0.4061
 9677SOL    HW130963   0.803   0.470   2.738 -1.3500 -0.2448 -0.1227
 9677SOL    HW230964   0.727   0.371   2.652 -0.3431  0.1409 -1.4971
 9678SOL     OW30965   3.317   6.115   6.661  0.5794  0.1809  0.1255
 9678SOL    HW130966   3.368   6.172   6.719 -0.2790 -0.2427  1.3311
 9678SOL    HW230967   3.358   6.029   6.671  0.6050  0.1625 -0.1241
 9679SOL     OW30968   6.157   8.751   2.716  0.0246  0.3829 -0.0197
 9679SOL    HW130969   6.076   8.740   2.667  0.3595  1.9253 -1.0230
 9679SOL    HW230970   6.208   8.672   2.699 -1.3659 -0.7520  0.8970
 9680SOL     OW30971   4.861   2.001   6.244 -0.0261  0.1136  0.7200
 9680SOL    HW130972   4.799   2.071   6.222  0.0150 -0.0617  0.0189
 9680SOL    HW230973   4.910   1.986   6.162  1.2498  0.5596  1.3734
 9681SOL     OW30974   7.696   5.803   7.216 -0.3483  0.4724  0.3834
 9681SOL    HW130975   7.627   5.738   7.206  0.5165 -0.1548 -2.2517
 9681SOL    HW230976   7.672   5.874   7.157  2.0512 -0.5601 -2.0154
 9682SOL     OW30977   0.268   7.605   3.029 -0.5347  0.1080  0.6699
 9682SOL    HW130978   0.252   7.640   3.116 -1.1101  1.3684  0.0729
 9682SOL    HW230979   0.362   7.620   3.014 -0.2937 -0.6858  1.2975
 9683SOL     OW30980   5.352   8.077   8.012  0.4544 -0.1490 -0.0477
 9683SOL    HW130981   5.268   8.040   7.986  1.0960 -0.8000 -1.2524
 9683SOL    HW230982   5.343   8.171   7.999 -0.3822 -0.1168  0.7121
 9684SOL     OW30983   4.231   0.764   7.171  0.9085  0.0088 -0.3561
 9684SOL    HW130984   4.138   0.751   7.153 -0.1297  2.5744  2.3082
 9684SOL    HW230985   4.272   0.682   7.145 -2.3337 -1.8687 -0.1469
 9685SOL     OW30986   8.742   6.003   0.278  0.4855 -0.2849 -0.3983
 9685SOL    HW130987   8.727   5.988   0.371  0.9710 -0.0640 -0.2811
 9685SOL    HW230988   8.655   5.998   0.238  0.1797  0.4411  0.1753
 9686SOL     OW30989   8.001   0.263   4.570 -0.0648 -0.1352  0.3367
 9686SOL    HW130990   8.056   0.248   4.647  0.7406  0.1716 -0.1625
 9686SOL    HW230991   7.920   0.301   4.604 -0.1893 -1.0834  1.1400
 9687SOL     OW30992   7.142   5.689   6.887  0.2960  0.0071  0.1181
 9687SOL    HW130993   7.179   5.603   6.866  0.0083 -0.2420  0.6281
 9687SOL    HW230994   7.101   5.718   6.805  1.2708  0.1137 -0.3499
 9688SOL     OW30995   1.206   5.809   7.722  0.1777  0.2425  0.1597
 9688SOL    HW130996   1.195   5.848   7.808 -3.8875  0.1294 -0.0979
 9688SOL    HW230997   1.116   5.799   7.689  1.4899 -0.9656 -3.5320
 9689SOL     OW30998   8.489   7.287   1.451 -0.3301 -0.3252 -0.1025
 9689SOL    HW130999   8.580   7.315   1.458 -0.2104 -0.8422  0.5267
 9689SOL    HW231000   8.464   7.265   1.541 -0.8809 -0.7820 -0.3620
 9690SOL     OW31001   7.775   3.561   7.045 -0.4423 -0.0578 -0.2650
 9690SOL    HW131002   7.821   3.514   7.114  0.0392 -0.8378 -1.0960
 9690SOL    HW231003   7.736   3.492   6.991 -0.5156  0.5223 -0.9673
 9691SOL     OW31004   6.180   2.862   2.799 -0.4422 -0.0601 -0.3777
 9691SOL    HW131005   6.107   2.801   2.784  0.9089 -1.5357 -1.1960
 9691SOL    HW231006   6.205   2.846   2.890  0.4903 -1.4415 -0.8471
 9692SOL     OW31007   0.077   4.119   3.910  0.4843 -0.0015  0.0808
 9692SOL    HW131008   0.051   4.086   3.996 -0.6739 -0.5150 -0.4450
 9692SOL    HW231009   0.110   4.042   3.864 -0.2200 -0.0181 -0.4136
 9693SOL     OW31010   6.303   6.143   2.990 -0.1013 -0.0485 -0.9487
 9693SOL    HW131011   6.316   6.238   2.999 -1.1015 -0.1524  3.4858
 9693SOL    HW231012   6.257   6.117   3.069  1.4402 -4.5224 -1.2615
 9694SOL     OW31013   6.659   3.098   8.217  0.1206 -1.0650  0.3546
 9694SOL    HW131014   6.603   3.080   8.292  0.9775 -0.9185  1.0462
 9694SOL    HW231015   6.600   3.133   8.150 -0.3438  0.8985  1.7227
 9695SOL     OW31016   5.097   2.930   4.967 -0.2186 -0.0006  0.3705
 9695SOL    HW131017   5.079   2.951   4.876  2.8631  0.5112 -0.2429
 9695SOL    HW231018   5.091   3.014   5.013  1.4747  0.4148 -0.0672
 9696SOL     OW31019   0.705   1.262   8.578  0.1127  1.1781 -0.1324
 9696SOL    HW131020   0.669   1.303   8.657 -3.1481 -0.0580 -0.7920
 9696SOL    HW231021   0.712   1.169   8.600 -1.6815  0.6744 -1.4698
 9697SOL     OW31022   6.198   8.688   8.541  0.3952 -0.1060  0.1789
 9697SOL    HW131023   6.220   8.595   8.555  0.0936 -0.4595 -1.4596
 9697SOL    HW231024   6.210   8.728   8.627 -0.0576 -1.7782  1.0731
 9698SOL     OW31025   5.446   0.771   8.093  1.0979  0.2326 -0.0873
 9698SOL    HW131026   5.519   0.798   8.038  1.6901 -0.6620  0.2250
 9698SOL    HW231027   5.487   0.719   8.163  0.1272 -0.6472 -0.1429
 9699SOL     OW31028   6.155   5.831   5.738  0.0011  0.7278 -0.5126
 9699SOL    HW131029   6.125   5.803   5.652 -0.7364 -1.9616  0.5168
 9699SOL    HW231030   6.248   5.810   5.740  0.1517  1.3500 -0.8438
 9700SOL     OW31031   7.257   2.811   0.605 -0.1753 -0.2850  0.4334
 9700SOL    HW131032   7.245   2.753   0.680  1.0951 -0.9010  0.1924
 9700SOL    HW231033   7.284   2.894   0.645 -1.4496 -0.0037  0.7480
 9701SOL     OW31034   4.896   4.940   6.288  0.3511  0.1296  0.7721
 9701SOL    HW131035   4.936   5.010   6.235 -0.4954 -0.9267 -1.3757
 9701SOL    HW231036   4.929   4.859   6.250 -1.0001 -0.6931  1.2792
 9702SOL     OW31037   2.439   8.703   3.158  0.0005  0.2031 -0.0181
 9702SOL    HW131038   2.387   8.733   3.083 -0.5828 -2.1651 -0.6570
 9702SOL    HW231039   2.391   8.627   3.191  0.8441  0.5335  2.0925
 9703SOL     OW31040   6.541   2.283   2.690 -0.0460  0.3702  0.0992
 9703SOL    HW131041   6.531   2.196   2.651  0.3180  0.7518 -0.8980
 9703SOL    HW231042   6.613   2.274   2.752  0.1511  0.0107 -0.1789
 9704SOL     OW31043   2.435   3.225   8.339 -0.2164 -0.4445  0.4700
 9704SOL    HW131044   2.404   3.251   8.253 -0.1509 -4.1671 -0.8529
 9704SOL    HW231045   2.527   3.203   8.326  0.1828  0.2801  1.8578
 9705SOL     OW31046   8.115   0.426   1.837  0.1092 -0.3885 -0.0662
 9705SOL    HW131047   8.090   0.518   1.844  1.3849  0.0320 -0.6677
 9705SOL    HW231048   8.067   0.394   1.760  1.4043  0.4342 -1.2754
 9706SOL     OW31049   8.611   5.658   8.398 -0.4066 -0.4551  0.6980
 9706SOL    HW131050   8.542   5.661   8.464 -1.7649 -1.2032 -0.6428
 9706SOL    HW231051   8.690   5.632   8.446 -1.0980  0.1730  2.2089
 9707SOL     OW31052   5.002   0.037   0.754 -0.3824 -0.1559  0.1682
 9707SOL    HW131053   4.986   0.088   0.833 -0.4738 -1.1649  0.8138
 9707SOL    HW231054   5.096   0.020   0.754 -0.1458  0.9819 -0.6729
 9708SOL     OW31055   1.790   5.470   1.095 -0.4223  0.0297  0.0618
 9708SOL    HW131056   1.825   5.399   1.042 -0.3462  0.4526 -0.4564
 9708SOL    HW231057   1.737   5.522   1.035  2.7301  2.7716 -0.6796
 9709SOL     OW31058   3.290   5.011   8.270  0.1490 -0.1380 -0.1886
 9709SOL    HW131059   3.310   4.974   8.356 -0.4945  0.6374  0.3083
 9709SOL    HW231060   3.353   5.083   8.260  0.0212 -0.0302 -0.2225
 9710SOL     OW31061   7.094   5.714   8.613  0.2683  0.1202 -0.9461
 9710SOL    HW131062   6.999   5.714   8.605  0.3626 -0.2902 -2.3230
 9710SOL    HW231063   7.124   5.759   8.535  1.2301 -0.4738 -0.9326
 9711SOL     OW31064   0.485   4.095   1.072  0.5030  0.0035 -0.0231
 9711SOL    HW131065   0.514   4.168   1.016  0.4471 -0.4687 -0.6790
 9711SOL    HW231066   0.433   4.039   1.014 -1.0361  0.3918  0.9246
 9712SOL     OW31067   2.786   8.813   4.367 -0.1628 -0.5385  0.5904
 9712SOL    HW131068   2.859   8.857   4.323  0.5366 -1.2668  0.9897
 9712SOL    HW231069   2.776   8.861   4.450  0.4775 -0.9969  0.9429
 9713SOL     OW31070   3.222   3.895   8.090  0.2618  0.9919 -0.6181
 9713SOL    HW131071   3.240   3.984   8.061  0.7591  1.3126  0.6062
 9713SOL    HW231072   3.291   3.842   8.049  1.5174  1.5744  0.6394
 9714SOL     OW31073   0.882   6.291   0.204 -0.0251 -0.7503 -0.6061
 9714SOL    HW131074   0.849   6.209   0.240 -1.7725  0.8556  1.8257
 9714SOL    HW231075   0.968   6.303   0.245 -1.1599  0.0952  1.7298
 9715SOL     OW31076   5.665   1.670   7.907 -0.1371  0.0654  0.3333
 9715SOL    HW131077   5.679   1.576   7.918 -0.0662  0.1355  0.9020
 9715SOL    HW231078   5.728   1.711   7.967 -0.3228  0.4655  0.2595
 9716SOL     OW31079   4.553   1.165   6.522 -0.3365  0.4929 -0.6280
 9716SOL    HW131080   4.582   1.217   6.597  1.2112 -1.5201  0.2706
 9716SOL    HW231081   4.485   1.108   6.557  1.7292 -1.8567 -0.0880
 9717SOL     OW31082   4.768   0.268   5.918  0.4807 -0.1204 -0.0020
 9717SOL    HW131083   4.862   0.287   5.913  0.4847 -0.3725 -1.8843
 9717SOL    HW231084   4.763   0.177   5.947  0.8555 -0.2396 -0.2927
 9718SOL     OW31085   7.635   5.699   7.654 -0.2563  0.3298 -0.1187
 9718SOL    HW131086   7.685   5.663   7.581  0.3250  2.7009 -0.9767
 9718SOL    HW231087   7.683   5.778   7.679 -1.6551  0.7487  1.3917
 9719SOL     OW31088   7.332   8.310   6.441 -0.2522  0.3620 -0.6407
 9719SOL    HW131089   7.257   8.253   6.421 -0.5957  0.7101 -0.3629
 9719SOL    HW231090   7.302   8.398   6.418  0.8769  0.2634 -2.7521
 9720SOL     OW31091   7.367   6.138   8.756 -0.1870 -0.6257  0.2579
 9720SOL    HW131092   7.457   6.105   8.761  0.0494  0.1095  0.9547
 9720SOL    HW231093   7.317   6.065   8.719  0.3844 -1.6508  1.4395
 9721SOL     OW31094   3.013   5.071   5.181 -0.2993 -0.6436 -0.1546
 9721SOL    HW131095   3.065   5.090   5.103  0.8938  1.2076  1.0218
 9721SOL    HW231096   3.029   4.979   5.199  2.4359 -0.2174  0.0013
 9722SOL     OW31097   6.747   5.352   3.649 -0.6938 -0.3880  0.5326
 9722SOL    HW131098   6.831   5.313   3.625  0.2197  2.0348 -0.6202
 9722SOL    HW231099   6.690   5.335   3.573 -0.0536  1.0374 -0.3238
 9723SOL     OW31100   8.500   3.150   4.988  0.1098  0.1129 -0.4167
 9723SOL    HW131101   8.557   3.084   5.027 -1.6373 -1.2096  0.0560
 9723SOL    HW231102   8.499   3.221   5.052 -1.1429 -1.1749  1.1016
 9724SOL     OW31103   1.720   2.096   7.190  0.6110  0.1805 -0.1925
 9724SOL    HW131104   1.815   2.089   7.197  0.6253  0.3153 -0.2519
 9724SOL    HW231105   1.705   2.143   7.108  0.4540 -1.1381 -0.9526
 9725SOL     OW31106   2.825   7.650   4.139  0.4053  0.2234 -0.3413
 9725SOL    HW131107   2.842   7.654   4.045 -0.7105  0.7670 -0.5306
 9725SOL    HW231108   2.752   7.710   4.153 -1.3058 -1.8831  0.4294
 9726SOL     OW31109   2.815   2.758   3.801  0.1235 -0.2588  0.2124
 9726SOL    HW131110   2.824   2.832   3.862 -0.0913  0.0041 -0.0717
 9726SOL    HW231111   2.820   2.799   3.714 -0.7064 -0.4905  0.0508
 9727SOL     OW31112   2.369   3.595   8.732  0.3069  0.2810  0.4897
 9727SOL    HW131113   2.356   3.564   8.642 -0.8991 -2.7086  1.5665
 9727SOL    HW231114   2.442   3.542   8.765 -1.9452 -1.8049  2.4769
 9728SOL     OW31115   1.720   0.869   4.280  0.1825 -0.4762  0.3779
 9728SOL    HW131116   1.695   0.883   4.372  0.0203  0.2018  0.2388
 9728SOL    HW231117   1.638   0.875   4.232  0.3878  0.1346  0.0928
 9729SOL     OW31118   4.066   8.640   2.243 -0.0182  0.2085  0.1780
 9729SOL    HW131119   4.130   8.711   2.238 -0.3967  0.4853 -1.1059
 9729SOL    HW231120   3.984   8.685   2.266  0.2540 -0.1688  2.0328
 9730SOL     OW31121   4.494   5.612   4.217  0.3863  0.2417  0.2957
 9730SOL    HW131122   4.505   5.678   4.285  1.6965 -0.7668  1.0954
 9730SOL    HW231123   4.540   5.648   4.141  2.9006 -0.5696  1.3321
 9731SOL     OW31124   4.260   7.186   4.343  0.5952 -0.4299 -0.4302
 9731SOL    HW131125   4.349   7.187   4.307  0.6601  0.9033 -0.3056
 9731SOL    HW231126   4.227   7.275   4.326  0.0976 -0.2170  1.5002
 9732SOL     OW31127   7.129   1.665   6.184  0.4236  0.2455 -0.3305
 9732SOL    HW131128   7.128   1.755   6.218  0.8791 -0.1021  0.6542
 9732SOL    HW231129   7.109   1.611   6.261 -1.2727 -0.4290 -1.1859
 9733SOL     OW31130   0.723   5.082   2.920  0.2232  0.4149 -0.2244
 9733SOL    HW131131   0.649   5.045   2.969  1.6873 -0.1641  1.6450
 9733SOL    HW231132   0.760   5.148   2.978  2.2519 -0.5659 -0.3244
 9734SOL     OW31133   7.783   8.250   8.776  0.3769  0.0318  0.4911
 9734SOL    HW131134   7.819   8.338   8.785  0.7272 -0.0810  0.2164
 9734SOL    HW231135   7.840   8.195   8.829  0.2398 -0.0520  0.5515
 9735SOL     OW31136   0.378   5.205   7.252 -0.0779 -0.2917 -0.5309
 9735SOL    HW131137   0.403   5.294   7.226 -1.4536 -0.1362 -1.3755
 9735SOL    HW231138   0.434   5.148   7.199  0.5546  0.0470 -0.2497
 9736SOL     OW31139   8.762   3.165   3.884 -0.1209  0.2733  0.0927
 9736SOL    HW131140   8.773   3.256   3.913 -0.1745  0.2907  0.0577
 9736SOL    HW231141   8.667   3.152   3.884 -0.1058  0.1546  0.2947
 9737SOL     OW31142   6.291   8.281   0.989 -0.2361 -0.4578 -0.1106
 9737SOL    HW131143   6.366   8.328   0.951 -0.8532  0.3056 -0.4288
 9737SOL    HW231144   6.221   8.347   0.991 -0.4232 -0.6597  1.7511
 9738SOL     OW31145   1.712   0.751   1.805 -0.0036  0.0243  0.0234
 9738SOL    HW131146   1.678   0.728   1.719  0.7405 -1.2272  0.0340
 9738SOL    HW231147   1.798   0.791   1.787  0.7808 -1.4938  0.2103
 9739SOL     OW31148   1.300   2.472   2.123  0.2452  0.0848 -0.1961
 9739SOL    HW131149   1.214   2.452   2.085  0.0857 -1.8005  1.0769
 9739SOL    HW231150   1.284   2.547   2.180 -0.8581 -1.0054  0.9892
 9740SOL     OW31151   2.538   4.831   8.569  0.4791  0.3749 -0.0059
 9740SOL    HW131152   2.628   4.859   8.588  0.6294 -0.9713  1.4843
 9740SOL    HW231153   2.547   4.776   8.491  0.7383  1.2594 -0.6214
 9741SOL     OW31154   5.438   3.978   0.274 -0.1203 -0.1346 -0.1308
 9741SOL    HW131155   5.475   4.049   0.223 -0.7477 -0.1705 -0.6497
 9741SOL    HW231156   5.397   3.920   0.209 -0.9176 -0.1838  0.3973
 9742SOL     OW31157   7.389   7.521   6.569 -0.3378 -0.5893 -0.5436
 9742SOL    HW131158   7.476   7.513   6.607 -0.2909 -3.4575 -1.0929
 9742SOL    HW231159   7.329   7.498   6.640 -0.6478  0.4460 -0.4416
 9743SOL     OW31160   1.513   2.458   3.161 -0.5224  0.1857  0.2396
 9743SOL    HW131161   1.521   2.427   3.071  0.1909 -2.0136  0.9887
 9743SOL    HW231162   1.599   2.441   3.200 -0.6044  1.7186  1.1773
 9744SOL     OW31163   8.345   4.170   5.870  0.1219  0.5541 -0.4269
 9744SOL    HW131164   8.289   4.239   5.906  0.1083  1.2295 -1.7066
 9744SOL    HW231165   8.430   4.211   5.858  0.4733 -0.0240  0.0142
 9745SOL     OW31166   0.432   1.148   1.714 -0.3329 -0.0807 -0.2437
 9745SOL    HW131167   0.353   1.199   1.734  1.4126  2.2266  1.2271
 9745SOL    HW231168   0.438   1.151   1.618 -1.3231  0.8390 -0.3002
 9746SOL     OW31169   6.467   4.902   3.375 -0.2642  0.3101  0.0781
 9746SOL    HW131170   6.374   4.880   3.385 -0.0036 -0.0331  2.0513
 9746SOL    HW231171   6.473   4.993   3.403  0.3528 -0.4219  2.5857
 9747SOL     OW31172   7.075   5.106   6.126 -0.4923  0.6048 -0.0367
 9747SOL    HW131173   7.037   5.025   6.161 -2.1916  0.1056 -2.7733
 9747SOL    HW231174   7.031   5.176   6.175 -0.6768 -0.0710  0.7936
 9748SOL     OW31175   1.340   2.112   8.318 -0.4611  0.1823  0.0036
 9748SOL    HW131176   1.342   2.016   8.322 -1.9214  0.0151 -2.0434
 9748SOL    HW231177   1.432   2.137   8.311  0.1842 -0.8435  2.9285
 9749SOL     OW31178   3.105   0.391   5.841  0.0918  0.1262 -0.2247
 9749SOL    HW131179   3.104   0.362   5.750 -1.5260 -0.5334 -0.0248
 9749SOL    HW231180   3.013   0.405   5.863  0.3315 -0.9625  1.6777
 9750SOL     OW31181   1.374   8.278   3.814 -0.2582 -0.5187 -0.8220
 9750SOL    HW131182   1.306   8.254   3.751  0.0265  2.1219 -2.2916
 9750SOL    HW231183   1.329   8.281   3.898 -1.1267 -2.1248 -1.1833
 9751SOL     OW31184   5.227   5.727   1.828 -0.7326 -0.1504 -0.2509
 9751SOL    HW131185   5.292   5.657   1.817 -0.6036  0.0528 -0.8125
 9751SOL    HW231186   5.249   5.791   1.761  0.4846  1.4712  1.5930
 9752SOL     OW31187   7.618   8.612   6.254 -0.6180 -0.5781 -0.4357
 9752SOL    HW131188   7.590   8.559   6.179 -0.9955  0.2030 -0.8562
 9752SOL    HW231189   7.710   8.634   6.235 -0.9329  0.2538 -1.0578
 9753SOL     OW31190   5.229   6.121   4.152 -0.4849  0.5120  0.2798
 9753SOL    HW131191   5.189   6.069   4.081  0.9643 -0.7768  0.3520
 9753SOL    HW231192   5.154   6.158   4.199 -1.5012  1.5014 -1.9562
 9754SOL     OW31193   4.331   3.977   4.441  0.3512 -0.2249  0.3073
 9754SOL    HW131194   4.279   3.977   4.360 -2.0369 -1.4405  1.7065
 9754SOL    HW231195   4.381   3.895   4.438 -1.6139 -1.5486  1.0442
 9755SOL     OW31196   5.014   6.179   2.013 -0.3899 -0.6666 -0.1294
 9755SOL    HW131197   5.050   6.118   1.949  1.7858  0.4217 -0.0309
 9755SOL    HW231198   5.078   6.250   2.017 -1.3038  0.1177  2.0243
 9756SOL     OW31199   0.622   3.368   2.271  0.4953 -0.1533  0.4148
 9756SOL    HW131200   0.629   3.461   2.293 -0.3777  0.2186 -0.7509
 9756SOL    HW231201   0.528   3.351   2.267  0.6367 -1.3257  1.4704
 9757SOL     OW31202   8.856   0.917   8.651 -0.3737  0.4594 -0.4299
 9757SOL    HW131203   8.877   1.010   8.666 -0.6066  0.3432  0.6748
 9757SOL    HW231204   8.771   0.905   8.694 -0.1741 -0.3490 -0.2546
 9758SOL     OW31205   0.441   8.606   8.437  0.4305 -0.5312 -0.3778
 9758SOL    HW131206   0.383   8.533   8.460 -1.2926  0.3873 -1.5760
 9758SOL    HW231207   0.492   8.622   8.517 -1.0199 -1.3353  0.7626
 9759SOL     OW31208   4.152   8.037   4.804 -0.2603 -0.2698 -0.2051
 9759SOL    HW131209   4.193   8.111   4.848 -0.2928 -1.4074  1.8741
 9759SOL    HW231210   4.220   7.970   4.801 -0.2304 -0.2013 -2.0682
 9760SOL     OW31211   1.142   4.429   0.886  0.5651  0.2057  0.4844
 9760SOL    HW131212   1.170   4.357   0.829  0.5264  1.2768 -0.9490
 9760SOL    HW231213   1.074   4.391   0.941 -1.1933 -0.3388 -1.8789
 9761SOL     OW31214   5.168   8.424   2.941  0.1693 -0.0788  0.0616
 9761SOL    HW131215   5.242   8.440   3.000  0.3314 -2.2723  0.5621
 9761SOL    HW231216   5.133   8.339   2.970 -1.7603  0.3040 -0.9797
 9762SOL     OW31217   1.779   3.263   8.294 -0.2563 -0.0556 -0.3439
 9762SOL    HW131218   1.783   3.188   8.235  2.7296 -1.0297  0.8752
 9762SOL    HW231219   1.819   3.335   8.245  0.7297 -0.4349 -0.1323
 9763SOL     OW31220   4.377   5.569   8.449  0.1046 -0.2737  0.0926
 9763SOL    HW131221   4.328   5.534   8.523 -0.9158  1.2012  0.1677
 9763SOL    HW231222   4.311   5.579   8.380  0.5585  0.5085 -0.2444
 9764SOL     OW31223   0.012   6.450   7.356 -0.0808  0.2396 -0.0355
 9764SOL    HW131224   0.012   6.484   7.266 -1.2411 -0.6991 -0.4180
 9764SOL    HW231225  -0.065   6.392   7.360  1.6178 -2.0988  0.6607
 9765SOL     OW31226   3.849   6.054   1.115 -0.2861 -0.2610 -0.9886
 9765SOL    HW131227   3.896   5.991   1.061  1.6804 -0.8871  1.2516
 9765SOL    HW231228   3.917   6.113   1.147 -1.5475  0.8072 -0.1752
 9766SOL     OW31229   2.000   2.231   3.884  0.5117 -0.2350  0.5587
 9766SOL    HW131230   1.971   2.322   3.890 -0.1152 -0.3822 -0.0854
 9766SOL    HW231231   2.075   2.233   3.825 -0.6489 -0.3636 -0.9795
 9767SOL     OW31232   2.816   0.694   1.756  0.3079 -0.2281 -0.1239
 9767SOL    HW131233   2.889   0.734   1.803  1.3971 -0.3642 -1.6493
 9767SOL    HW231234   2.784   0.763   1.697  1.4078 -1.1446 -1.8783
 9768SOL     OW31235   7.210   7.255   4.733  0.1444  0.1764  0.0982
 9768SOL    HW131236   7.300   7.276   4.709 -0.4131  0.2032 -2.2474
 9768SOL    HW231237   7.159   7.332   4.706 -0.8235 -0.6668 -0.5614
 9769SOL     OW31238   4.936   7.972   2.560  0.0617  0.2676  0.8552
 9769SOL    HW131239   4.956   8.028   2.486  0.4723  0.5197  1.1541
 9769SOL    HW231240   4.961   7.884   2.531 -2.8364 -0.2096 -0.5289
 9770SOL     OW31241   3.267   2.715   2.000  0.3659 -0.0305  0.2843
 9770SOL    HW131242   3.357   2.727   2.030  0.8967 -0.8191 -0.8980
 9770SOL    HW231243   3.245   2.797   1.957 -0.4741  1.1935  2.8361
 9771SOL     OW31244   3.047   7.492   1.342 -0.0757  0.8122  0.0916
 9771SOL    HW131245   2.985   7.516   1.411 -0.1645  0.2289  0.2236
 9771SOL    HW231246   3.005   7.521   1.261 -0.1257  1.1966  0.2562
 9772SOL     OW31247   5.494   8.090   5.704  0.1686 -0.6256 -0.0096
 9772SOL    HW131248   5.433   8.161   5.684  0.9650  0.6093  1.7244
 9772SOL    HW231249   5.467   8.057   5.789  2.4504  0.6485  1.3047
 9773SOL     OW31250   6.467   7.172   2.392  0.0931  0.3836  0.7327
 9773SOL    HW131251   6.388   7.126   2.363 -0.9613  1.0699  2.3463
 9773SOL    HW231252   6.434   7.254   2.429  1.6603  1.0832  0.6579
 9774SOL     OW31253   4.562   1.480   3.334 -0.4314  0.2628  0.1377
 9774SOL    HW131254   4.543   1.399   3.380 -2.1670  0.4376 -0.1872
 9774SOL    HW231255   4.548   1.459   3.241  1.2387  0.3874 -0.1776
 9775SOL     OW31256   8.354   8.223   6.232  0.8746 -0.2057 -0.0441
 9775SOL    HW131257   8.271   8.268   6.240  0.7185 -0.7657  1.8657
 9775SOL    HW231258   8.381   8.239   6.141 -2.2091 -1.5927 -1.3694
 9776SOL     OW31259   8.597   2.615   2.013  0.2991 -0.1312  0.2450
 9776SOL    HW131260   8.556   2.701   2.013  2.6007  1.0509  1.3806
 9776SOL    HW231261   8.556   2.569   2.087 -0.5372  0.1806 -0.0128
 9777SOL     OW31262   8.356   5.633   8.852 -0.2461  0.1408 -0.2786
 9777SOL    HW131263   8.436   5.664   8.896 -1.4080  2.2391  0.4846
 9777SOL    HW231264   8.326   5.560   8.905  0.7296 -0.1823 -0.1424
 9778SOL     OW31265   7.861   3.469   7.588  0.0923  0.2283 -0.0908
 9778SOL    HW131266   7.887   3.409   7.658  1.2780  0.4172 -0.3458
 9778SOL    HW231267   7.942   3.512   7.562 -0.7860  2.3356  0.4256
 9779SOL     OW31268   0.057   3.812   5.344 -0.2928  0.0089 -0.2863
 9779SOL    HW131269   0.039   3.736   5.398 -2.0964  0.5830 -0.0049
 9779SOL    HW231270   0.014   3.794   5.261  0.4169  0.1656 -0.7035
 9780SOL     OW31271   2.341   3.512   4.355 -0.2676 -0.2697 -0.0464
 9780SOL    HW131272   2.272   3.572   4.328  0.4650  0.3278 -0.6518
 9780SOL    HW231273   2.396   3.564   4.414  0.5655 -0.2184 -0.8397
 9781SOL     OW31274   1.145   3.244   3.992  0.4512  0.0988 -0.4110
 9781SOL    HW131275   1.066   3.221   3.943  0.5241 -0.8471 -0.1068
 9781SOL    HW231276   1.131   3.335   4.018 -0.1463  0.2158 -1.0978
 9782SOL     OW31277   2.015   2.944   5.479 -0.6413  0.3995  0.8022
 9782SOL    HW131278   2.052   2.891   5.550  0.1109  0.5576  0.5315
 9782SOL    HW231279   2.076   3.017   5.469 -1.6117  1.2725  1.0909
 9783SOL     OW31280   6.214   5.192   2.338  0.5525 -0.0412  0.4764
 9783SOL    HW131281   6.239   5.107   2.376 -1.8685  0.0908  2.5746
 9783SOL    HW231282   6.146   5.171   2.274  0.5230  0.2476  0.4102
 9784SOL     OW31283   0.257   7.704   0.431  0.4443  0.0991 -0.6598
 9784SOL    HW131284   0.306   7.662   0.360 -0.4784  2.2164 -2.6670
 9784SOL    HW231285   0.165   7.685   0.412 -0.0300  2.9568 -1.7537
 9785SOL     OW31286   7.395   2.075   5.825  0.2883  0.0580  0.3775
 9785SOL    HW131287   7.360   2.147   5.773 -0.5583 -1.4854 -1.3152
 9785SOL    HW231288   7.317   2.031   5.860  0.7741 -0.3406  0.9775
 9786SOL     OW31289   8.822   2.156   1.388  0.2387 -0.4656  0.4531
 9786SOL    HW131290   8.806   2.247   1.413  0.3100 -0.1310 -0.6756
 9786SOL    HW231291   8.865   2.161   1.302  1.6804 -1.5103  1.0605
 9787SOL     OW31292   3.569   5.897   8.833 -0.3020  0.0823  0.1734
 9787SOL    HW131293   3.509   5.862   8.899 -0.9484  0.5891 -0.1351
 9787SOL    HW231294   3.514   5.915   8.758 -0.0054  1.7902  0.3331
 9788SOL     OW31295   5.459   1.802   3.518  0.0239 -0.6649  0.5031
 9788SOL    HW131296   5.535   1.793   3.461  0.2380  0.4020  0.5931
 9788SOL    HW231297   5.439   1.713   3.546 -0.1073 -1.2174 -1.2419
 9789SOL     OW31298   4.801   5.876   2.006 -0.2370 -0.1648 -1.1997
 9789SOL    HW131299   4.718   5.913   1.978 -0.2301 -0.0305 -1.0418
 9789SOL    HW231300   4.791   5.782   1.992 -0.5091 -0.1766 -0.9414
 9790SOL     OW31301   6.124   3.787   7.337  0.3203 -0.1343 -0.0831
 9790SOL    HW131302   6.182   3.759   7.266 -0.4328 -0.5504 -0.5435
 9790SOL    HW231303   6.037   3.788   7.298 -0.0507  0.0118  0.7308
 9791SOL     OW31304   4.179   5.779   7.419 -0.0638 -0.1051  0.1252
 9791SOL    HW131305   4.191   5.713   7.351  2.2442 -0.3458  0.6980
 9791SOL    HW231306   4.167   5.861   7.371  0.2529 -0.4680 -0.5809
 9792SOL     OW31307   0.935   4.218   4.838 -0.0582 -0.4161 -0.7986
 9792SOL    HW131308   0.892   4.231   4.922 -1.1250  1.0340 -1.5259
 9792SOL    HW231309   0.945   4.123   4.831 -0.9387 -0.6332  0.4761
 9793SOL     OW31310   3.488   0.352   6.921  0.1704  0.5740 -0.1245
 9793SOL    HW131311   3.454   0.328   6.835  2.1527  0.2764 -0.8769
 9793SOL    HW231312   3.480   0.448   6.924 -0.9329  0.4930 -0.1603
 9794SOL     OW31313   7.321   5.753   6.584  0.1334  0.2627 -0.3789
 9794SOL    HW131314   7.281   5.728   6.501  1.5485  1.0937 -1.3478
 9794SOL    HW231315   7.343   5.670   6.626 -2.1208 -0.2121 -0.0087
 9795SOL     OW31316   5.054   8.843   8.856  0.1161 -0.4149 -0.0901
 9795SOL    HW131317   5.087   8.928   8.886 -0.4920 -0.1771 -0.0711
 9795SOL    HW231318   5.081   8.782   8.924  1.0190 -0.3329 -0.3678
 9796SOL     OW31319   2.356   5.983   0.850 -0.4780  0.0056 -0.8084
 9796SOL    HW131320   2.363   5.967   0.944 -1.0273  0.7584 -0.6280
 9796SOL    HW231321   2.281   6.041   0.841 -0.2294  0.2107 -1.6880
 9797SOL     OW31322   1.901   5.338   8.254  0.3554 -0.7424 -0.3913
 9797SOL    HW131323   1.967   5.332   8.184  1.0327 -1.4041  0.2871
 9797SOL    HW231324   1.948   5.313   8.333 -0.5811 -0.6800  0.1927
 9798SOL     OW31325   5.195   0.653   0.169  0.3675 -0.4694  0.4356
 9798SOL    HW131326   5.269   0.623   0.116  1.7326  0.1000  1.9277
 9798SOL    HW231327   5.204   0.748   0.173 -0.6078 -0.3665  0.4230
 9799SOL     OW31328   0.725   3.715   2.312 -0.1156 -0.0524  0.0648
 9799SOL    HW131329   0.750   3.800   2.347 -0.3902 -0.7671  2.1796
 9799SOL    HW231330   0.666   3.735   2.239 -0.7429  1.5799  0.9613
 9800SOL     OW31331   3.211   5.596   5.685 -0.2239 -0.8139  0.1695
 9800SOL    HW131332   3.212   5.500   5.683  0.8081 -0.9438 -4.0683
 9800SOL    HW231333   3.152   5.621   5.613  0.6788  1.6821  0.1829
 9801SOL     OW31334   4.482   5.194   0.729 -0.0020 -0.1238  0.1813
 9801SOL    HW131335   4.426   5.119   0.708 -0.2247  0.0392  0.1889
 9801SOL    HW231336   4.565   5.175   0.685 -0.4610  0.2107 -0.8569
 9802SOL     OW31337   6.947   0.885   0.053 -0.4162 -0.5590  0.3467
 9802SOL    HW131338   6.861   0.898   0.013 -0.2011 -1.0432 -0.2995
 9802SOL    HW231339   7.008   0.931  -0.004 -0.1966 -0.5586  0.5780
 9803SOL     OW31340   5.564   3.541   5.147 -0.4047  0.3700 -0.0370
 9803SOL    HW131341   5.627   3.611   5.133 -1.3527  1.0261 -1.0896
 9803SOL    HW231342   5.577   3.481   5.074 -0.5964  0.2050  0.0609
 9804SOL     OW31343   0.986   8.449   5.693 -0.0625 -0.3101 -0.2107
 9804SOL    HW131344   0.992   8.509   5.618  0.6750 -0.0977  0.0064
 9804SOL    HW231345   0.905   8.400   5.678 -0.4125  0.3820 -0.6577
 9805SOL     OW31346   2.967   2.904   8.447  0.5558  0.2678 -0.1669
 9805SOL    HW131347   3.052   2.947   8.447  0.7220 -0.0557 -0.6623
 9805SOL    HW231348   2.936   2.914   8.537  1.0112  0.5873 -0.0386
 9806SOL     OW31349   8.548   0.069   2.134 -0.2640  0.3629  0.1845
 9806SOL    HW131350   8.475   0.031   2.084  0.6137 -0.5889 -0.4334
 9806SOL    HW231351   8.558   0.011   2.209  1.1623 -0.7852 -0.8267
 9807SOL     OW31352   6.228   1.260   1.337 -0.0682  0.3449  0.5483
 9807SOL    HW131353   6.234   1.172   1.299 -0.9463  0.7088 -0.4783
 9807SOL    HW231354   6.265   1.251   1.424  1.0479 -0.7609 -0.0079
 9808SOL     OW31355   8.256   6.759   1.676 -0.5269 -0.2407 -0.4281
 9808SOL    HW131356   8.254   6.674   1.720 -1.0004  0.0857  0.2065
 9808SOL    HW231357   8.164   6.786   1.673 -0.5182 -0.2983 -1.7274
 9809SOL     OW31358   4.139   2.890   7.193  0.0484  0.0518  0.5796
 9809SOL    HW131359   4.148   2.876   7.099 -0.4692 -1.8845  0.7782
 9809SOL    HW231360   4.219   2.936   7.219  1.0981 -1.1254 -0.4912
 9810SOL     OW31361   2.437   7.092   4.908 -0.6210  0.1235  0.6781
 9810SOL    HW131362   2.527   7.074   4.935 -0.8571 -0.5374  1.0589
 9810SOL    HW231363   2.393   7.122   4.988 -1.1956 -1.3626  0.9540
 9811SOL     OW31364   0.822   1.478   0.247  0.0621 -0.5142 -0.4625
 9811SOL    HW131365   0.800   1.425   0.323  1.1304  0.0032  0.2278
 9811SOL    HW231366   0.738   1.513   0.217 -0.1732  1.8998  2.4616
 9812SOL     OW31367   2.788   2.252   7.830  0.2048  0.1067  0.1720
 9812SOL    HW131368   2.770   2.345   7.814  0.0538  0.0161 -0.1946
 9812SOL    HW231369   2.753   2.236   7.918  0.6616  0.5078  0.4382
 9813SOL     OW31370   6.299   7.838   5.122 -0.9688 -0.1114  0.5966
 9813SOL    HW131371   6.351   7.872   5.049  0.3883 -0.9042  1.1419
 9813SOL    HW231372   6.364   7.800   5.182 -2.2456 -2.0523  0.8544
 9814SOL     OW31373   4.632   5.141   4.691  0.7704  0.7163 -0.3741
 9814SOL    HW131374   4.712   5.178   4.729  1.1403 -0.9331  0.5535
 9814SOL    HW231375   4.585   5.217   4.656  1.7492  1.9841  0.9148
 9815SOL     OW31376   3.990   5.796   3.841 -0.3251 -0.0126 -0.0924
 9815SOL    HW131377   3.952   5.835   3.762 -1.6539 -0.3357  0.3630
 9815SOL    HW231378   4.052   5.861   3.873  0.2964  0.0823 -1.4491
 9816SOL     OW31379   4.801   7.058   8.326 -0.2355  0.1566  0.1329
 9816SOL    HW131380   4.759   6.983   8.285 -0.5906  0.4446 -0.0318
 9816SOL    HW231381   4.894   7.047   8.307 -0.3360 -0.0136 -0.2615
 9817SOL     OW31382   7.420   4.362   5.817 -0.1675 -0.7695 -0.1773
 9817SOL    HW131383   7.371   4.442   5.836  1.7768  0.8506 -1.4338
 9817SOL    HW231384   7.359   4.307   5.767 -1.3540  0.2017  0.1610
 9818SOL     OW31385   1.655   0.153   1.221  0.3396  0.0853  0.1743
 9818SOL    HW131386   1.686   0.090   1.287 -0.5506 -0.4441  0.1114
 9818SOL    HW231387   1.734   0.180   1.174  0.8925 -0.0867  0.9783
 9819SOL     OW31388   1.114   2.738   2.121 -0.0012 -0.0182  0.1156
 9819SOL    HW131389   1.184   2.715   2.182  0.2310 -0.8410 -0.4428
 9819SOL    HW231390   1.064   2.805   2.167 -0.5919 -1.5090  1.7514
 9820SOL     OW31391   8.186   0.146   2.996 -0.1041 -0.6586  0.4189
 9820SOL    HW131392   8.139   0.063   2.990 -1.6722  0.2226 -0.1758
 9820SOL    HW231393   8.251   0.132   3.065 -0.9378 -2.0855  0.9673
 9821SOL     OW31394   4.309   0.599   1.696 -0.0323  0.4030 -0.6355
 9821SOL    HW131395   4.300   0.564   1.785 -0.5756  0.9132 -0.4873
 9821SOL    HW231396   4.310   0.694   1.708  1.7752  0.4695 -1.0008
 9822SOL     OW31397   3.844   5.813   6.979  0.8815 -0.1725 -0.0741
 9822SOL    HW131398   3.909   5.743   6.970  0.1733 -0.5745 -3.5634
 9822SOL    HW231399   3.896   5.892   6.998  2.2398 -0.7964 -1.0132
 9823SOL     OW31400   2.229   5.482   1.572  0.3713 -0.5447 -0.2677
 9823SOL    HW131401   2.195   5.553   1.626  0.0136 -1.1183  0.2826
 9823SOL    HW231402   2.152   5.442   1.533  0.5227 -0.9688 -0.1398
 9824SOL     OW31403   3.111   5.653   4.343  0.5714 -0.1767 -0.2635
 9824SOL    HW131404   3.098   5.575   4.290  1.1289 -0.7682  0.4454
 9824SOL    HW231405   3.171   5.625   4.412  1.2438  1.0285 -0.3297
 9825SOL     OW31406   7.732   1.328   6.235  0.0010  0.1298  0.2130
 9825SOL    HW131407   7.682   1.264   6.286 -1.5515 -0.5024 -1.9979
 9825SOL    HW231408   7.818   1.289   6.225  0.0241 -0.1839  1.4487
 9826SOL     OW31409   0.173   8.121   8.466 -0.1339 -0.2594  0.1937
 9826SOL    HW131410   0.221   8.104   8.547  0.9807 -1.6940 -0.7091
 9826SOL    HW231411   0.088   8.154   8.495  0.8246  0.8807  1.8857
 9827SOL     OW31412   4.813   6.059   6.415 -0.2633 -0.2967  0.1491
 9827SOL    HW131413   4.867   6.044   6.337 -1.5055  1.3826 -1.1105
 9827SOL    HW231414   4.802   5.972   6.454  0.4832 -1.1674 -1.4849
 9828SOL     OW31415   6.446   6.575   8.817  0.7891 -0.2376 -0.1837
 9828SOL    HW131416   6.352   6.584   8.835  0.8688  0.3038 -0.0210
 9828SOL    HW231417   6.489   6.622   8.889  1.2174 -1.3489  0.3077
 9829SOL     OW31418   5.119   6.121   0.161 -0.0810  0.5705 -0.4513
 9829SOL    HW131419   5.029   6.153   0.175 -0.1842  0.1029 -0.0446
 9829SOL    HW231420   5.155   6.181   0.095 -0.4811  1.1461 -0.1588
 9830SOL     OW31421   7.876   3.622   2.735  0.4251  0.2682  0.4544
 9830SOL    HW131422   7.948   3.595   2.791  0.7246 -2.2074 -0.9764
 9830SOL    HW231423   7.826   3.542   2.719 -0.0717  0.9832 -2.1396
 9831SOL     OW31424   6.442   6.648   8.538  0.1185  0.2523 -0.0911
 9831SOL    HW131425   6.513   6.711   8.534  1.2352 -1.0251 -1.1235
 9831SOL    HW231426   6.444   6.615   8.628 -0.2211  1.3607  0.3420
 9832SOL     OW31427   2.331   1.945   2.609 -0.1591  0.1755  0.3040
 9832SOL    HW131428   2.286   1.903   2.536 -1.7773 -0.6135  1.6941
 9832SOL    HW231429   2.363   1.872   2.663 -1.8316  0.6333  2.0418
 9833SOL     OW31430   3.466   0.499   4.925 -0.1575 -0.6495 -0.1151
 9833SOL    HW131431   3.558   0.521   4.910  0.0223 -1.3999 -0.1429
 9833SOL    HW231432   3.438   0.457   4.844 -0.5926 -0.2034 -0.1945
 9834SOL     OW31433   5.472   1.020   3.019  0.1718 -0.2980  0.6218
 9834SOL    HW131434   5.421   1.090   3.061  0.7081  0.8330 -0.5585
 9834SOL    HW231435   5.407   0.956   2.993 -0.6368  0.9232 -0.4755
 9835SOL     OW31436   8.857   1.584   6.330  0.0428 -0.5380 -0.0555
 9835SOL    HW131437   8.856   1.670   6.373  1.9855 -0.5033  0.0373
 9835SOL    HW231438   8.849   1.604   6.237  0.7496 -0.2129 -0.0555
 9836SOL     OW31439   6.327   1.934   1.408  0.6046 -0.5949 -0.5357
 9836SOL    HW131440   6.363   1.933   1.496 -1.0763  0.5103  0.2116
 9836SOL    HW231441   6.232   1.933   1.420  0.3182  0.2585 -2.2959
 9837SOL     OW31442   1.200   5.861   6.957 -0.0821  0.0784 -0.3997
 9837SOL    HW131443   1.247   5.785   6.923  0.3943  1.0843 -2.0998
 9837SOL    HW231444   1.258   5.895   7.026 -0.2097 -0.9529  0.2435
 9838SOL     OW31445   8.479   2.978   8.820  0.3880  0.5001 -0.1055
 9838SOL    HW131446   8.435   2.904   8.861 -1.0990  0.9449 -0.8247
 9838SOL    HW231447   8.470   3.050   8.882 -1.3581  1.0178 -0.8968
 9839SOL     OW31448   5.129   0.748   0.553  0.5359 -0.3856 -0.4572
 9839SOL    HW131449   5.083   0.832   0.558  1.6088  0.1817  0.2513
 9839SOL    HW231450   5.069   0.691   0.504 -0.2548  0.7546 -0.8728
 9840SOL     OW31451   8.105   7.138   3.667  0.5545 -0.3564 -0.5907
 9840SOL    HW131452   8.049   7.215   3.655 -0.6023 -0.8709  1.1710
 9840SOL    HW231453   8.073   7.074   3.604  1.1617  0.3913 -1.6835
 9841SOL     OW31454   6.729   2.378   3.471  0.3422  0.1093 -0.1908
 9841SOL    HW131455   6.634   2.392   3.473  0.4345  1.1175 -1.3750
 9841SOL    HW231456   6.766   2.460   3.504  0.8016 -0.3440  0.4248
 9842SOL     OW31457   7.297   2.003   1.214 -0.1836 -0.6066 -0.3175
 9842SOL    HW131458   7.202   2.009   1.229 -0.1407  1.1191 -0.6070
 9842SOL    HW231459   7.318   1.913   1.238 -1.8170 -0.8946  0.2114
 9843SOL     OW31460   3.215   5.800   8.129 -0.0544  0.6802  0.4396
 9843SOL    HW131461   3.264   5.752   8.062  0.0370  0.5183  0.6197
 9843SOL    HW231462   3.221   5.745   8.207 -1.8679 -0.1140  0.0527
 9844SOL     OW31463   1.593   1.005   6.446  0.2905  0.8653  0.0738
 9844SOL    HW131464   1.611   1.098   6.443  0.4157  0.9747  2.4561
 9844SOL    HW231465   1.601   0.981   6.539 -0.6402 -1.3236 -0.3314
 9845SOL     OW31466   8.435   5.285   8.838  0.3700 -0.3561  0.0771
 9845SOL    HW131467   8.513   5.334   8.812  0.0699  0.2479  0.2877
 9845SOL    HW231468   8.438   5.285   8.934  0.1908 -0.4590  0.0832
 9846SOL     OW31469   3.952   6.675   5.460 -0.2027 -0.6529  0.2825
 9846SOL    HW131470   3.899   6.605   5.422  0.3489 -0.3982 -1.0217
 9846SOL    HW231471   3.890   6.746   5.477 -0.3468 -0.4402 -1.0141
 9847SOL     OW31472   3.696   6.816   3.431 -0.1784  0.7811 -0.4093
 9847SOL    HW131473   3.784   6.820   3.469 -1.3270  2.5733  2.4574
 9847SOL    HW231474   3.691   6.730   3.390  2.4528  0.1016  0.4832
 9848SOL     OW31475   4.845   0.910   0.298  0.2464 -0.1277  0.2436
 9848SOL    HW131476   4.860   0.904   0.393 -1.5817  1.2791  0.6706
 9848SOL    HW231477   4.764   0.960   0.289 -1.2937 -2.7524 -2.0131
 9849SOL     OW31478   7.970   8.345   4.720  0.2408 -0.6931  0.1149
 9849SOL    HW131479   7.959   8.440   4.710  0.7835 -0.2661  2.6831
 9849SOL    HW231480   7.915   8.323   4.795  2.2716 -1.8563  1.3500
 9850SOL     OW31481   2.484   4.662   6.988  0.1936 -0.1530  0.0398
 9850SOL    HW131482   2.464   4.709   6.907 -0.7519 -0.3423  0.1554
 9850SOL    HW231483   2.405   4.614   7.009  1.3216 -2.2830 -0.3620
 9851SOL     OW31484   4.349   2.095   7.906 -0.3596 -0.7880  0.1659
 9851SOL    HW131485   4.326   2.174   7.856  2.8790 -0.3898 -0.9360
 9851SOL    HW231486   4.265   2.059   7.933 -2.2206  0.5044 -3.2283
 9852SOL     OW31487   2.875   8.477   0.862  0.5659  0.4121  0.0155
 9852SOL    HW131488   2.843   8.429   0.938  0.3016  0.3537 -0.1310
 9852SOL    HW231489   2.970   8.464   0.863  0.5221  0.0945  0.1177
 9853SOL     OW31490   5.648   7.589   1.693  0.2029 -0.8469  0.4853
 9853SOL    HW131491   5.733   7.620   1.663  0.0297 -1.4560 -0.7040
 9853SOL    HW231492   5.587   7.615   1.624 -0.9786  1.3772  2.2311
 9854SOL     OW31493   2.252   3.894   6.360  0.1988 -0.0891  0.5063
 9854SOL    HW131494   2.179   3.833   6.369  1.5443 -1.6836  1.2263
 9854SOL    HW231495   2.274   3.917   6.451 -1.0115  2.4518  0.2290
 9855SOL     OW31496   7.085   1.262   6.183 -0.0162 -0.0200 -0.1625
 9855SOL    HW131497   7.141   1.335   6.156  0.3257  0.9320  2.7609
 9855SOL    HW231498   6.997   1.299   6.184 -0.2123 -0.4300 -1.1332
 9856SOL     OW31499   8.159   2.437   0.808 -0.2254 -1.0482 -0.1322
 9856SOL    HW131500   8.082   2.404   0.854 -0.0308 -3.5011 -1.4182
 9856SOL    HW231501   8.137   2.427   0.715 -1.3748  5.3611 -1.0667
 9857SOL     OW31502   0.503   2.057   6.958 -1.1019  0.2273  0.1779
 9857SOL    HW131503   0.416   2.049   6.920 -3.2293 -0.5271  4.5091
 9857SOL    HW231504   0.533   1.967   6.970  0.7015  0.4750 -1.8538
 9858SOL     OW31505   0.398   4.637   3.449 -0.6629 -0.3278 -0.2495
 9858SOL    HW131506   0.435   4.671   3.531  0.4726 -3.1253  0.5318
 9858SOL    HW231507   0.368   4.549   3.472 -1.5672 -0.6826 -2.5494
 9859SOL     OW31508   8.204   6.745   3.341 -0.7375 -0.5047 -0.0338
 9859SOL    HW131509   8.217   6.680   3.272  0.5424  0.2629 -0.5449
 9859SOL    HW231510   8.119   6.722   3.380 -1.5741 -0.8710 -1.9559
 9860SOL     OW31511   2.054   3.930   0.000  0.6201  0.6289 -0.0427
 9860SOL    HW131512   2.141   3.931  -0.038  0.6077  0.7882 -0.0661
 9860SOL    HW231513   2.007   3.863  -0.050  0.9967 -0.1222  0.5753
 9861SOL     OW31514   5.412   4.085   4.662  0.2145  0.4087  0.7745
 9861SOL    HW131515   5.336   4.027   4.657  0.4162  0.2243 -0.2818
 9861SOL    HW231516   5.439   4.097   4.571  0.7033  1.4688  1.0552
 9862SOL     OW31517   1.277   2.890   4.228  0.2433  0.3720  0.2995
 9862SOL    HW131518   1.206   2.829   4.247  0.7088  0.0544  1.1071
 9862SOL    HW231519   1.311   2.914   4.314  0.4433  1.3324 -0.0343
 9863SOL     OW31520   4.318   6.103   2.396 -0.5150  0.6203 -0.4038
 9863SOL    HW131521   4.406   6.064   2.397 -1.2966 -1.2731  0.4538
 9863SOL    HW231522   4.309   6.139   2.308  0.9309  0.4320 -0.6633
 9864SOL     OW31523   4.684   4.648   7.421 -0.1867 -0.4098 -0.1251
 9864SOL    HW131524   4.693   4.676   7.330 -1.8290  0.8225  0.0333
 9864SOL    HW231525   4.682   4.730   7.470  1.4211 -1.0829  1.1290
 9865SOL     OW31526   5.557   2.790   2.674 -0.1353 -0.4465  0.1534
 9865SOL    HW131527   5.580   2.849   2.746 -2.9005  1.7043 -0.5302
 9865SOL    HW231528   5.621   2.809   2.606  0.4104  0.0688  0.7942
 9866SOL     OW31529   1.223   3.322   0.191  0.4590  0.2143  0.3323
 9866SOL    HW131530   1.227   3.248   0.131 -0.1903  0.8693 -0.5572
 9866SOL    HW231531   1.189   3.287   0.273  0.5676 -0.5377  0.0561
 9867SOL     OW31532   6.048   7.441   2.997 -0.0123  0.2139  0.5049
 9867SOL    HW131533   6.101   7.362   2.990 -0.3048  0.1086 -0.7820
 9867SOL    HW231534   6.100   7.509   2.954 -0.7256  0.2039 -0.4015
 9868SOL     OW31535   8.102   2.848   1.289  0.0496  0.1889 -0.1088
 9868SOL    HW131536   8.112   2.763   1.246 -1.1634 -0.8949  1.6099
 9868SOL    HW231537   8.039   2.896   1.234  0.9723  0.1196 -1.2541
 9869SOL     OW31538   5.377   7.935   6.970 -0.1810 -0.2433 -0.6531
 9869SOL    HW131539   5.351   7.849   7.002  0.9478 -0.9831 -1.6808
 9869SOL    HW231540   5.299   7.969   6.926 -0.6305 -0.7385 -0.2489
 9870SOL     OW31541   0.045   8.667   0.731 -0.1501 -0.5476  0.5535
 9870SOL    HW131542   0.097   8.732   0.684 -0.0048 -1.7739 -1.0888
 9870SOL    HW231543   0.103   8.634   0.799  0.3045 -0.0674  0.4046
 9871SOL     OW31544   7.802   4.996   2.760  0.0826 -0.1424  0.3627
 9871SOL    HW131545   7.752   5.026   2.684  0.6822 -2.1561 -0.9052
 9871SOL    HW231546   7.749   4.925   2.796  0.5102 -0.1552  0.9741
 9872SOL     OW31547   3.275   7.948   5.570  0.1263  0.5140 -0.2182
 9872SOL    HW131548   3.207   8.015   5.560 -0.6588  0.1576  2.0515
 9872SOL    HW231549   3.326   7.977   5.646  0.8247 -0.6082 -0.2337
 9873SOL     OW31550   5.914   6.128   6.095  0.2434 -0.0317  0.3933
 9873SOL    HW131551   5.884   6.146   6.184 -0.5860 -0.3176  0.1859
 9873SOL    HW231552   5.999   6.086   6.106 -0.7075 -1.8927  1.1624
 9874SOL     OW31553   6.859   1.359   2.400  0.2677 -0.7222 -0.1876
 9874SOL    HW131554   6.861   1.270   2.365 -0.0334 -0.7077 -0.2460
 9874SOL    HW231555   6.806   1.352   2.479 -0.4929 -0.4292 -0.6631
 9875SOL     OW31556   1.625   3.689   6.596  0.2280  0.5147 -0.0010
 9875SOL    HW131557   1.635   3.609   6.649  0.2768  0.7279  0.3147
 9875SOL    HW231558   1.609   3.758   6.660  0.5379  0.8205 -0.2483
 9876SOL     OW31559   1.957   1.058   2.969 -0.0953  0.0532 -0.0666
 9876SOL    HW131560   2.015   1.041   3.043 -0.3335 -1.0259 -0.1245
 9876SOL    HW231561   1.887   0.994   2.977 -0.7678  0.7049 -0.5579
 9877SOL     OW31562   3.530   1.678   6.493  0.3237  0.5751 -0.0550
 9877SOL    HW131563   3.501   1.709   6.579 -0.1648 -1.5144  0.5730
 9877SOL    HW231564   3.469   1.719   6.432  0.3723  1.6984  0.6044
 9878SOL     OW31565   7.110   2.683   1.158 -0.1746  0.1664  0.2071
 9878SOL    HW131566   7.022   2.696   1.123  0.0277  1.5747  0.1433
 9878SOL    HW231567   7.162   2.754   1.119  0.7529 -0.0496  1.0043
 9879SOL     OW31568   7.797   4.016   8.166  0.5965  0.3608  0.1276
 9879SOL    HW131569   7.779   4.109   8.177 -1.5509  0.1862 -1.3734
 9879SOL    HW231570   7.819   4.005   8.074 -0.0009 -0.7201  0.0888
 9880SOL     OW31571   4.879   3.028   3.101 -0.9826 -0.0228  0.0025
 9880SOL    HW131572   4.786   3.009   3.093 -0.9212 -0.4401  0.2870
 9880SOL    HW231573   4.907   3.045   3.011 -1.3317  0.1076 -0.0850
 9881SOL     OW31574   2.766   8.352   2.590 -0.0818 -1.1365 -0.3803
 9881SOL    HW131575   2.675   8.382   2.582 -0.2873 -1.9328 -1.1639
 9881SOL    HW231576   2.780   8.343   2.684 -0.3287  0.3991 -0.1588
 9882SOL     OW31577   4.109   5.084   6.786  0.3097 -0.6565 -0.0701
 9882SOL    HW131578   4.090   5.078   6.692 -0.2808  0.2771 -0.0234
 9882SOL    HW231579   4.082   4.999   6.821 -1.0159 -0.4422 -0.5051
 9883SOL     OW31580   0.631   2.473   3.565  0.4434  0.2076 -0.3343
 9883SOL    HW131581   0.646   2.385   3.531 -1.1711  0.2314 -1.2054
 9883SOL    HW231582   0.679   2.530   3.504 -0.1359  0.0523 -0.9516
 9884SOL     OW31583   6.005   4.307   7.945  0.0743 -0.5167 -0.3872
 9884SOL    HW131584   6.024   4.332   8.036 -0.6064 -2.2154  0.2489
 9884SOL    HW231585   6.083   4.335   7.896 -0.5330  2.6511  0.2317
 9885SOL     OW31586   8.815   1.260   1.381 -0.0057  0.7433  0.0509
 9885SOL    HW131587   8.828   1.218   1.296 -2.0819  1.5606 -0.7375
 9885SOL    HW231588   8.720   1.259   1.394  0.2051  1.3589  1.9966
 9886SOL     OW31589   3.003   6.984   1.113 -0.5221  0.2919  0.5416
 9886SOL    HW131590   2.974   7.070   1.144 -1.6648  0.7415 -1.5668
 9886SOL    HW231591   2.922   6.939   1.088  0.2561 -0.1583 -1.3370
 9887SOL     OW31592   4.709   0.046   2.600  0.0094 -0.1652  0.1672
 9887SOL    HW131593   4.669   0.002   2.674  0.7569  1.3226  1.5050
 9887SOL    HW231594   4.751   0.123   2.637  0.6792  0.4624 -1.7615
 9888SOL     OW31595   0.315   1.513   5.636 -0.3758  0.0341 -0.0927
 9888SOL    HW131596   0.268   1.482   5.559 -0.4059  0.6184 -0.3131
 9888SOL    HW231597   0.281   1.461   5.709  0.0666 -0.9295 -0.5583
 9889SOL     OW31598   5.809   2.735   3.031 -0.0216 -0.4198 -0.0367
 9889SOL    HW131599   5.874   2.673   3.066  0.8071  0.3998 -0.0733
 9889SOL    HW231600   5.795   2.797   3.103  0.5271  0.3862 -0.6095
 9890SOL     OW31601   3.893   3.463   2.981 -0.0034  0.4997  0.0755
 9890SOL    HW131602   3.911   3.552   3.010  0.8546  0.3603 -0.0042
 9890SOL    HW231603   3.927   3.407   3.050 -0.4796  0.2288  0.0948
 9891SOL     OW31604   8.841   8.482   3.385 -0.5055  0.0428  0.1698
 9891SOL    HW131605   8.800   8.404   3.348  2.4724 -1.6145  0.0508
 9891SOL    HW231606   8.876   8.529   3.309 -0.8448  0.6233  0.3643
 9892SOL     OW31607   3.088   1.263   4.598 -0.6489 -0.1545  0.1206
 9892SOL    HW131608   3.105   1.216   4.680 -0.6970 -1.8470 -0.8119
 9892SOL    HW231609   3.160   1.239   4.541 -1.1391  0.2363 -0.6734
 9893SOL     OW31610   3.684   2.272   5.736 -0.2876  0.6837  0.3010
 9893SOL    HW131611   3.718   2.252   5.649 -0.0086  1.6023  0.1884
 9893SOL    HW231612   3.639   2.192   5.763 -2.1335  1.0172 -1.5305
 9894SOL     OW31613   6.972   2.357   4.986 -0.0365  0.5503  0.1544
 9894SOL    HW131614   6.921   2.299   5.043 -0.4132 -0.2040 -0.9038
 9894SOL    HW231615   6.985   2.436   5.037  0.1660 -0.3278  1.5113
 9895SOL     OW31616   6.643   6.244   3.065  0.2631  0.3535 -0.1217
 9895SOL    HW131617   6.727   6.200   3.072  0.3321 -0.2683 -3.5480
 9895SOL    HW231618   6.578   6.174   3.075  0.1835  0.4745  0.2511
 9896SOL     OW31619   8.197   8.859   5.709  0.1280  0.4163 -0.4135
 9896SOL    HW131620   8.108   8.868   5.677 -0.4126  1.9638  1.3356
 9896SOL    HW231621   8.246   8.930   5.667  0.5947 -0.4912 -1.4488
 9897SOL     OW31622   2.637   6.078   3.665 -0.3824 -0.4190 -0.1698
 9897SOL    HW131623   2.564   6.017   3.655 -0.8900 -0.4081  2.6130
 9897SOL    HW231624   2.596   6.162   3.684  0.3319 -0.1042  0.0374
 9898SOL     OW31625   6.587   2.594   4.124  0.4936  0.1448 -0.0373
 9898SOL    HW131626   6.605   2.501   4.142 -1.0332  0.0793  1.3333
 9898SOL    HW231627   6.671   2.637   4.141  0.8864 -0.8221  0.6219
 9899SOL     OW31628   2.024   4.468   5.514  0.3075  0.2058 -0.1747
 9899SOL    HW131629   2.038   4.419   5.433  0.2465  2.0715 -1.3862
 9899SOL    HW231630   2.107   4.514   5.530  1.2874 -2.1725  2.3884
 9900SOL     OW31631   0.401   0.717   7.124 -0.3804  0.3506  0.3019
 9900SOL    HW131632   0.434   0.750   7.208  1.8152  1.5453 -0.9234
 9900SOL    HW231633   0.347   0.788   7.090 -0.0898  0.4745  0.0886
 9901SOL     OW31634   8.780   6.718   6.293 -0.2947 -0.1388 -0.3365
 9901SOL    HW131635   8.790   6.633   6.251 -0.1909 -0.0011 -0.5921
 9901SOL    HW231636   8.867   6.736   6.331 -0.0583  0.2588 -1.0528
 9902SOL     OW31637   5.091   5.151   8.140 -0.0124 -0.0320  0.1031
 9902SOL    HW131638   5.166   5.208   8.124  0.6872 -0.8933  0.2536
 9902SOL    HW231639   5.081   5.102   8.059 -0.5711  0.2361  0.0004
 9903SOL     OW31640   4.074   0.452   8.389 -0.9569  0.2887 -0.2983
 9903SOL    HW131641   4.050   0.360   8.375 -1.0639  0.2203  0.3062
 9903SOL    HW231642   4.086   0.487   8.301 -1.6135 -0.1236 -0.5619
 9904SOL     OW31643   5.845   6.904   7.921 -0.3029 -0.0108  0.1746
 9904SOL    HW131644   5.769   6.883   7.867  0.2445  1.3306 -1.2184
 9904SOL    HW231645   5.841   6.843   7.994 -1.9672 -0.8499 -0.5660
 9905SOL     OW31646   6.853   7.977   6.810  0.0338  0.3030 -0.0422
 9905SOL    HW131647   6.816   8.064   6.824  2.3147  1.4994 -0.8860
 9905SOL    HW231648   6.871   7.944   6.898  0.7081  1.4578  0.2754
 9906SOL     OW31649   5.830   3.861   5.471 -0.5039 -0.2623 -0.0470
 9906SOL    HW131650   5.904   3.825   5.518  0.5356  0.9524 -0.6993
 9906SOL    HW231651   5.806   3.793   5.407 -0.1841 -0.7943  0.3964
 9907SOL     OW31652   3.925   5.589   6.164 -0.3389  0.4162  0.5536
 9907SOL    HW131653   3.915   5.549   6.078  1.1359  1.7356 -0.2880
 9907SOL    HW231654   4.019   5.587   6.181 -0.6660 -0.4278  2.4597
 9908SOL     OW31655   6.961   5.203   3.577 -0.2983 -0.0404  0.0824
 9908SOL    HW131656   7.028   5.163   3.522 -1.4690 -1.3472 -0.4679
 9908SOL    HW231657   6.889   5.139   3.577 -0.9946  0.6807  1.7733
 9909SOL     OW31658   8.191   3.432   2.148  0.4392 -0.4590  0.1197
 9909SOL    HW131659   8.119   3.475   2.103 -1.3658 -1.7262  1.6092
 9909SOL    HW231660   8.186   3.465   2.238 -0.6714 -3.2112  1.1759
 9910SOL     OW31661   5.113   7.323   2.337  0.2991 -0.6300  0.0382
 9910SOL    HW131662   5.043   7.336   2.273  0.8075 -0.5400 -0.5091
 9910SOL    HW231663   5.089   7.378   2.412 -0.4867 -1.0171  0.0767
 9911SOL     OW31664   6.192   4.915   7.779 -0.1057 -0.0569 -0.0982
 9911SOL    HW131665   6.198   4.993   7.835 -0.0217  1.3340 -1.9328
 9911SOL    HW231666   6.100   4.889   7.785 -0.4101  0.9013 -0.3286
 9912SOL     OW31667   1.105   0.161   4.296  0.0411 -0.4188  0.0847
 9912SOL    HW131668   1.155   0.092   4.253 -0.4328 -1.0537  0.5392
 9912SOL    HW231669   1.024   0.119   4.325 -0.4159  0.4073  0.0558
 9913SOL     OW31670   7.396   8.409   7.992  0.1843  0.3173 -0.0294
 9913SOL    HW131671   7.422   8.332   8.042 -0.3304  0.1632  0.0085
 9913SOL    HW231672   7.401   8.482   8.054 -0.4984  0.1206  0.2655
 9914SOL     OW31673   4.952   3.960   5.025  0.3483 -0.1029 -0.3641
 9914SOL    HW131674   4.882   3.922   5.078  0.1981 -0.2505 -0.6645
 9914SOL    HW231675   4.911   3.978   4.941  0.9101 -1.1463 -0.8873
 9915SOL     OW31676   1.544   7.974   0.736  0.6361  0.2160  0.0239
 9915SOL    HW131677   1.583   7.932   0.812  0.6363 -0.1856 -0.1977
 9915SOL    HW231678   1.556   8.068   0.752 -0.1612  0.1821  0.9550
 9916SOL     OW31679   8.137   2.283   1.724 -0.3963 -0.0226 -0.2075
 9916SOL    HW131680   8.151   2.217   1.792  0.6091  0.3151 -0.0741
 9916SOL    HW231681   8.167   2.242   1.643  2.0879  0.9158  0.1736
 9917SOL     OW31682   2.944   7.249   7.351  0.5782 -0.2367  0.5763
 9917SOL    HW131683   2.959   7.184   7.420  1.1593 -1.5183 -0.6970
 9917SOL    HW231684   3.031   7.285   7.333  0.2747  0.8863  1.2059
 9918SOL     OW31685   4.832   4.770   5.606  0.0199  0.1876 -0.8524
 9918SOL    HW131686   4.842   4.860   5.573 -0.8606  1.0985  1.1805
 9918SOL    HW231687   4.748   4.740   5.570 -1.5308  1.6126  1.3493
 9919SOL     OW31688   0.729   3.046   1.736  0.2071 -0.0166 -0.2602
 9919SOL    HW131689   0.697   2.987   1.804 -0.2890  1.4168  0.7966
 9919SOL    HW231690   0.783   3.110   1.784 -2.1160  2.5007 -0.7573
 9920SOL     OW31691   1.882   4.705   2.557 -1.1653  0.6427  0.1379
 9920SOL    HW131692   1.833   4.653   2.621 -1.8814 -0.0316 -0.9263
 9920SOL    HW231693   1.929   4.640   2.505 -0.7756  1.1719 -0.1792
 9921SOL     OW31694   6.710   4.789   0.994 -0.1462  0.0346  0.0879
 9921SOL    HW131695   6.704   4.695   0.981  1.0863 -0.2017  1.0944
 9921SOL    HW231696   6.719   4.800   1.088 -1.9850  1.2836  0.1742
 9922SOL     OW31697   1.358   5.805   1.107 -0.7457 -0.2232  0.3378
 9922SOL    HW131698   1.364   5.722   1.059 -1.5032  1.2007 -2.4340
 9922SOL    HW231699   1.265   5.816   1.123 -0.6920  0.2888  0.2969
 9923SOL     OW31700   7.149   8.472   8.392  0.2290 -0.3946 -0.2940
 9923SOL    HW131701   7.157   8.408   8.321 -1.5755  0.5786 -1.4422
 9923SOL    HW231702   7.148   8.557   8.347  0.2487  0.3215  1.0160
 9924SOL     OW31703   5.795   2.474   5.552 -0.1864 -0.2665 -0.3563
 9924SOL    HW131704   5.813   2.424   5.632 -0.8042 -0.6747 -0.4647
 9924SOL    HW231705   5.751   2.553   5.583 -2.1679 -1.2803 -0.3887
 9925SOL     OW31706   4.303   2.176   5.556  0.4866 -0.2053  0.0191
 9925SOL    HW131707   4.302   2.184   5.461 -0.3059  1.1491  0.1167
 9925SOL    HW231708   4.212   2.155   5.579  0.9714 -2.1406  0.3970
 9926SOL     OW31709   6.900   1.754   2.356 -0.1304 -0.1483 -0.1326
 9926SOL    HW131710   6.951   1.830   2.327 -0.8682  0.1388 -0.7261
 9926SOL    HW231711   6.872   1.712   2.274  0.5307 -1.2464  0.1886
 9927SOL     OW31712   5.772   1.067   7.136 -0.3604  0.1249  0.0802
 9927SOL    HW131713   5.801   1.139   7.080  0.0684 -1.3768 -1.7624
 9927SOL    HW231714   5.806   0.988   7.092 -0.4068 -1.1717  2.2554
 9928SOL     OW31715   3.973   6.056   4.403 -0.1132 -0.4390  0.1669
 9928SOL    HW131716   4.003   6.140   4.437  0.0555  0.0276 -1.0714
 9928SOL    HW231717   3.975   5.996   4.478  1.5967  0.1816  0.6368
 9929SOL     OW31718   6.133   6.320   3.391 -0.5370 -0.1321 -0.2027
 9929SOL    HW131719   6.128   6.382   3.319  0.9283  1.1870  0.7857
 9929SOL    HW231720   6.184   6.364   3.459 -1.1756 -1.6329  1.3520
 9930SOL     OW31721   0.192   0.061   7.773 -0.3098 -0.3792  0.2591
 9930SOL    HW131722   0.138   0.136   7.795  0.2852  0.2223 -0.3025
 9930SOL    HW231723   0.252   0.051   7.847  0.1911  0.2441 -0.0584
 9931SOL     OW31724   6.181   4.278   7.335 -1.0861 -0.1810 -0.1193
 9931SOL    HW131725   6.085   4.286   7.337 -1.1201 -0.7047  2.0822
 9931SOL    HW231726   6.197   4.184   7.341 -0.4043 -0.1395 -1.0305
 9932SOL     OW31727   5.037   6.796   1.584  0.7707  0.1292 -0.0183
 9932SOL    HW131728   5.005   6.873   1.632 -0.4500  0.4851 -1.3573
 9932SOL    HW231729   5.076   6.740   1.652 -2.8821 -0.4583  1.8229
 9933SOL     OW31730   3.086   6.806   7.500 -0.1110  0.0421 -0.2193
 9933SOL    HW131731   3.139   6.802   7.421 -2.2774  0.8207 -1.8196
 9933SOL    HW231732   3.129   6.746   7.561  1.5962 -0.6523 -2.0001
 9934SOL     OW31733   0.798   2.372   3.310 -0.0783 -0.9969 -0.1211
 9934SOL    HW131734   0.892   2.356   3.317 -0.0988 -0.8271  0.5212
 9934SOL    HW231735   0.757   2.297   3.353 -0.2454 -1.1356 -0.5092
 9935SOL     OW31736   8.410   7.477   5.882  0.0831  0.1715  0.6833
 9935SOL    HW131737   8.353   7.553   5.882 -0.8781 -0.5257  1.5053
 9935SOL    HW231738   8.392   7.433   5.799 -0.8245 -0.2177  1.0802
 9936SOL     OW31739   6.835   8.825   1.343  0.0458 -0.3600  0.3504
 9936SOL    HW131740   6.885   8.747   1.319  1.1117  0.3962  0.0473
 9936SOL    HW231741   6.901   8.889   1.367 -0.8315  0.3792  0.8370
 9937SOL     OW31742   3.302   5.902   0.807  0.2159  1.0964 -0.5072
 9937SOL    HW131743   3.290   5.809   0.823 -1.3693  1.1868 -0.9576
 9937SOL    HW231744   3.229   5.944   0.853  0.3264  2.0138 -1.1297
 9938SOL     OW31745   6.488   2.248   7.089  0.4368  0.3026 -0.3225
 9938SOL    HW131746   6.418   2.219   7.031  0.9633  0.0455 -0.8391
 9938SOL    HW231747   6.519   2.168   7.132  0.1669  0.4668  0.1903
 9939SOL     OW31748   7.597   1.095   1.691  0.1529  0.4303 -0.9950
 9939SOL    HW131749   7.548   1.047   1.625  1.3813 -3.3205  0.5830
 9939SOL    HW231750   7.689   1.074   1.672  0.7063  1.5314  0.3042
 9940SOL     OW31751   1.060   3.107   3.230  0.0872 -0.4886  0.6522
 9940SOL    HW131752   0.998   3.159   3.281  1.8218  0.5003  1.8814
 9940SOL    HW231753   1.100   3.048   3.295  1.5438  0.0153  0.2660
 9941SOL     OW31754   3.287   0.937   0.227 -0.0780  0.0486  0.0725
 9941SOL    HW131755   3.273   0.852   0.268 -2.0242  0.1692 -0.2805
 9941SOL    HW231756   3.372   0.966   0.262  0.3062 -1.7128  0.7102
 9942SOL     OW31757   5.398   3.330   2.424  0.2385  0.2990 -0.3881
 9942SOL    HW131758   5.418   3.259   2.485  0.2659  0.0491 -0.6868
 9942SOL    HW231759   5.438   3.303   2.341  0.4786  0.7872 -0.4323
 9943SOL     OW31760   6.320   7.140   6.475 -0.2905 -0.1889 -0.0135
 9943SOL    HW131761   6.273   7.163   6.555  0.1341 -0.3386  0.2762
 9943SOL    HW231762   6.251   7.132   6.409 -0.5625  0.7640  0.1439
 9944SOL     OW31763   3.047   0.772   1.930  0.4817 -0.5569 -0.0020
 9944SOL    HW131764   3.040   0.718   2.009 -0.1361 -0.7841 -0.2067
 9944SOL    HW231765   3.118   0.833   1.950 -0.8489  0.6040  1.4890
 9945SOL     OW31766   8.676   7.447   4.859  0.1478  0.7378 -0.1363
 9945SOL    HW131767   8.731   7.466   4.782 -0.6192 -0.4358 -1.0105
 9945SOL    HW231768   8.635   7.530   4.880  0.5232  1.1242 -0.8731
 9946SOL     OW31769   5.189   3.920   4.676  0.6219  0.0586 -0.4828
 9946SOL    HW131770   5.225   3.831   4.682 -1.0718 -0.6961 -1.0500
 9946SOL    HW231771   5.099   3.912   4.706  0.3155  1.5108 -0.9295
 9947SOL     OW31772   6.499   3.795   0.974 -0.0335  0.7286  0.1313
 9947SOL    HW131773   6.488   3.840   0.890 -2.2363  0.2221  0.1057
 9947SOL    HW231774   6.463   3.707   0.959 -2.6596  1.3453  2.1706
 9948SOL     OW31775   5.635   0.335   2.117 -0.1616  0.6387 -0.3422
 9948SOL    HW131776   5.642   0.394   2.192 -2.1334  1.0002 -0.3687
 9948SOL    HW231777   5.718   0.288   2.114 -0.1378  0.4251  2.2259
 9949SOL     OW31778   7.097   7.711   6.684  0.1584 -0.1359 -0.1035
 9949SOL    HW131779   7.103   7.638   6.746  1.6046 -0.2112 -0.3134
 9949SOL    HW231780   7.007   7.706   6.651 -1.1295  0.6975  2.9249
 9950SOL     OW31781   1.186   4.339   7.908  0.4780  0.2209 -0.5991
 9950SOL    HW131782   1.193   4.287   7.828  1.2744  1.3004 -1.2646
 9950SOL    HW231783   1.093   4.360   7.914  0.0739 -1.5358 -0.1152
 9951SOL     OW31784   3.817   1.158   8.365  0.6933  0.8444  0.3931
 9951SOL    HW131785   3.906   1.128   8.382  0.2944 -0.6009  0.0548
 9951SOL    HW231786   3.819   1.190   8.275  0.4050 -1.2179 -0.4014
 9952SOL     OW31787   4.097   5.379   4.228 -0.5094  0.8205  0.5866
 9952SOL    HW131788   4.122   5.471   4.239 -0.2518  0.7435  0.6599
 9952SOL    HW231789   4.167   5.330   4.271 -0.8366  0.6016  0.8693
 9953SOL     OW31790   5.051   4.066   7.439  0.4701  0.1396 -0.5594
 9953SOL    HW131791   5.040   4.010   7.516 -0.7187  2.1080  0.7915
 9953SOL    HW231792   5.143   4.091   7.440  0.2836  0.8724  0.7983
 9954SOL     OW31793   3.089   7.807   6.292  0.1086  0.2447  0.2048
 9954SOL    HW131794   3.071   7.821   6.385 -1.0894 -0.3697  0.0866
 9954SOL    HW231795   3.130   7.721   6.288  0.4325  0.3992  0.1923
 9955SOL     OW31796   1.049   1.179   8.002  0.3030  0.3750 -0.7833
 9955SOL    HW131797   1.058   1.252   7.941  1.0661 -1.3625 -2.8912
 9955SOL    HW231798   0.974   1.130   7.970 -0.7671  0.6516  1.1431
 9956SOL     OW31799   1.474   0.502   5.768 -0.1806 -0.3387  0.1426
 9956SOL    HW131800   1.432   0.422   5.738  0.5587 -1.0226  0.9083
 9956SOL    HW231801   1.525   0.476   5.844  0.4753  0.7588  0.1020
 9957SOL     OW31802   7.321   1.977   7.445  0.1041 -0.1542  0.2775
 9957SOL    HW131803   7.254   1.963   7.512 -0.8362 -1.2158 -0.8188
 9957SOL    HW231804   7.319   2.071   7.428 -0.2262  0.0052  1.1450
 9958SOL     OW31805   5.862   3.557   5.845 -0.0190 -0.4409  0.7954
 9958SOL    HW131806   5.896   3.637   5.806  0.3512 -0.2753  1.4331
 9958SOL    HW231807   5.912   3.486   5.804 -1.3602 -0.4952 -0.8673
 9959SOL     OW31808   6.374   7.222   2.675 -0.3247 -0.1993 -0.1255
 9959SOL    HW131809   6.454   7.249   2.721  0.9478 -1.3392 -1.5701
 9959SOL    HW231810   6.358   7.291   2.612  0.5750 -0.7969 -1.0379
 9960SOL     OW31811   6.187   2.145   0.403  0.0239  0.0381 -0.2915
 9960SOL    HW131812   6.097   2.139   0.371 -0.5584  0.1069  1.2479
 9960SOL    HW231813   6.238   2.169   0.326 -1.2833  0.0966 -1.1752
 9961SOL     OW31814   2.887   5.968   7.872 -0.1910 -0.2937  0.0850
 9961SOL    HW131815   2.948   6.001   7.939  0.7609 -1.8208  0.0144
 9961SOL    HW231816   2.942   5.917   7.813 -1.2571 -0.1189 -1.0942
 9962SOL     OW31817   7.783   6.212   7.584 -0.1466 -0.1265  0.3272
 9962SOL    HW131818   7.827   6.232   7.667 -0.9926  1.4740  0.4380
 9962SOL    HW231819   7.690   6.206   7.607 -0.2075 -1.7828 -0.1849
 9963SOL     OW31820   1.995   0.399   4.398 -0.4277  0.3612  0.1161
 9963SOL    HW131821   2.018   0.313   4.363  1.0257  0.5332  0.5515
 9963SOL    HW231822   1.900   0.397   4.408 -0.3334 -1.6336  1.2042
 9964SOL     OW31823   0.567   2.729   4.658 -0.2932  0.2243  0.4109
 9964SOL    HW131824   0.595   2.658   4.716 -1.4023  0.3013  1.0605
 9964SOL    HW231825   0.483   2.700   4.623  0.4650  0.0711 -1.3758
 9965SOL     OW31826   2.537   4.073   1.110  0.2797  0.1430 -0.4061
 9965SOL    HW131827   2.527   4.030   1.195 -2.1059  1.0238 -0.1687
 9965SOL    HW231828   2.500   4.011   1.048 -1.9585  1.2083 -0.2207
 9966SOL     OW31829   2.687   2.251   7.269 -0.4452  0.1523 -0.1167
 9966SOL    HW131830   2.715   2.287   7.184 -0.6189  1.8923  0.5242
 9966SOL    HW231831   2.599   2.218   7.253  0.3007 -1.4711 -1.1079
 9967SOL     OW31832   4.105   1.741   8.370  0.0959 -0.5177 -0.1711
 9967SOL    HW131833   4.181   1.787   8.336  0.2994  0.4582  1.4828
 9967SOL    HW231834   4.033   1.802   8.360  0.0927 -0.3465  0.7720
 9968SOL     OW31835   3.794   3.627   6.476  0.9266 -0.3059  0.1887
 9968SOL    HW131836   3.793   3.668   6.390  1.9134  0.6903  0.6225
 9968SOL    HW231837   3.732   3.554   6.469 -0.5634  0.9883 -0.7502
 9969SOL     OW31838   1.860   7.582   4.778  0.3679  0.4735 -0.2161
 9969SOL    HW131839   1.886   7.673   4.766  0.9893  0.2788 -0.3478
 9969SOL    HW231840   1.770   7.587   4.812 -0.3009  1.0965 -1.9722
 9970SOL     OW31841   8.803   1.476   4.989  0.6662  0.1130 -0.1991
 9970SOL    HW131842   8.784   1.536   5.061  0.4550 -1.4896  1.1463
 9970SOL    HW231843   8.727   1.481   4.932  0.4904  0.8167  0.0841
 9971SOL     OW31844   1.645   3.597   2.607  0.3317  0.2759 -0.5429
 9971SOL    HW131845   1.640   3.602   2.702  0.4033  4.1086 -0.5997
 9971SOL    HW231846   1.559   3.563   2.580  0.3020 -0.8255  0.8408
 9972SOL     OW31847   4.187   1.415   0.574  0.0258 -0.3712 -0.0584
 9972SOL    HW131848   4.199   1.465   0.494 -0.6240  0.2382  0.2092
 9972SOL    HW231849   4.230   1.331   0.557  0.2925 -0.0797 -0.8670
 9973SOL     OW31850   0.531   3.155   1.175 -0.4805 -0.1274 -1.1761
 9973SOL    HW131851   0.524   3.225   1.110  2.2655 -0.4711 -1.9479
 9973SOL    HW231852   0.604   3.181   1.231 -1.1893 -1.0819  0.2503
 9974SOL     OW31853   7.985   0.061   7.592 -0.4109 -0.2101 -0.4119
 9974SOL    HW131854   8.042   0.114   7.538 -0.2776 -0.4343 -0.4929
 9974SOL    HW231855   7.959  -0.012   7.536 -2.0708  0.7167 -0.9197
 9975SOL     OW31856   0.531   5.352   1.104  0.0115 -0.3185  0.3253
 9975SOL    HW131857   0.465   5.288   1.075  1.1075 -1.3341  0.0193
 9975SOL    HW231858   0.484   5.435   1.104 -1.0901 -0.9018 -0.5711
 9976SOL     OW31859   5.971   3.448   1.487  0.1208 -0.2537 -0.0855
 9976SOL    HW131860   5.921   3.394   1.426  1.4819 -1.0246 -0.5677
 9976SOL    HW231861   5.985   3.531   1.441  2.7137 -1.4698 -1.6709
 9977SOL     OW31862   3.486   1.815   8.380  0.4431  0.2635 -0.6042
 9977SOL    HW131863   3.465   1.764   8.302 -0.3468 -0.3040 -0.0493
 9977SOL    HW231864   3.403   1.817   8.429  0.4354  2.1760 -0.6482
 9978SOL     OW31865   4.234   3.310   4.364  0.0825 -0.1839  0.1283
 9978SOL    HW131866   4.258   3.280   4.277  0.8514  1.0383 -0.0973
 9978SOL    HW231867   4.236   3.230   4.418  0.7574 -0.7520 -0.7131
 9979SOL     OW31868   1.966   6.015   2.780 -0.4191 -0.0136  0.0694
 9979SOL    HW131869   1.895   5.967   2.823 -2.0948  0.1495 -2.3567
 9979SOL    HW231870   2.037   5.951   2.772 -1.8712 -1.5599 -1.2837
 9980SOL     OW31871   1.697   1.083   3.751  0.2395  0.3936  0.5906
 9980SOL    HW131872   1.779   1.119   3.715  0.8891 -1.1792  0.4206
 9980SOL    HW231873   1.685   1.001   3.704 -2.1954  1.2214 -0.3576
 9981SOL     OW31874   0.465   1.524   0.434  0.3915  0.0392 -0.2760
 9981SOL    HW131875   0.451   1.438   0.474  2.2259  0.4236  1.3632
 9981SOL    HW231876   0.388   1.575   0.459 -0.0949 -0.7319 -0.1484
 9982SOL     OW31877   7.278   7.307   8.203  0.1574 -0.0308 -0.6207
 9982SOL    HW131878   7.218   7.233   8.192  0.5992 -0.3416 -0.9707
 9982SOL    HW231879   7.364   7.272   8.181  0.6769  0.0778  1.1128
 9983SOL     OW31880   4.926   3.646   3.502 -0.6161 -0.1955 -0.1068
 9983SOL    HW131881   4.842   3.645   3.458 -1.2448 -2.0663  1.0160
 9983SOL    HW231882   4.972   3.569   3.469  0.4100  0.4489 -0.2361
 9984SOL     OW31883   2.401   1.441   3.517 -0.3119  0.7553  0.2204
 9984SOL    HW131884   2.414   1.422   3.610  0.0671 -0.3743 -0.0396
 9984SOL    HW231885   2.394   1.354   3.477  3.3973  0.9763 -1.3475
 9985SOL     OW31886   6.490   3.732   5.923  0.6120 -0.0826 -0.2571
 9985SOL    HW131887   6.571   3.773   5.893  0.3190  0.3438 -0.4756
 9985SOL    HW231888   6.480   3.764   6.013 -0.1757  1.2048 -0.7802
 9986SOL     OW31889   3.694   1.357   2.045  0.7151 -0.1679 -0.3410
 9986SOL    HW131890   3.760   1.309   1.994 -0.0390 -0.2565 -1.2805
 9986SOL    HW231891   3.744   1.405   2.110  1.6692 -0.5901 -0.7374
 9987SOL     OW31892   3.040   0.664   3.307  0.0993  0.0172 -0.6332
 9987SOL    HW131893   3.011   0.702   3.224  0.9598  0.9068 -0.5442
 9987SOL    HW231894   3.105   0.598   3.281 -1.0999 -1.1637 -0.7620
 9988SOL     OW31895   2.105   1.225   1.790 -0.4539  0.9553  0.2753
 9988SOL    HW131896   2.015   1.248   1.766 -0.3805  1.7629  0.7511
 9988SOL    HW231897   2.159   1.290   1.745 -0.0995  0.5049  0.0343
 9989SOL     OW31898   6.844   0.610   5.863  0.6311 -0.2740 -0.3866
 9989SOL    HW131899   6.832   0.692   5.910  0.1401 -0.2013 -0.6257
 9989SOL    HW231900   6.828   0.633   5.771 -1.0621 -0.9381 -0.2929
 9990SOL     OW31901   4.671   1.861   6.382  0.1375 -0.2392 -0.4714
 9990SOL    HW131902   4.738   1.920   6.348  0.4161 -0.3205 -0.0725
 9990SOL    HW231903   4.611   1.919   6.429  0.1246 -0.2116 -0.5211
 9991SOL     OW31904   8.200   3.716   5.637  0.0915  0.0595  0.0474
 9991SOL    HW131905   8.209   3.812   5.641  0.5233  0.0276 -0.0944
 9991SOL    HW231906   8.254   3.684   5.709  1.5924 -0.1550 -1.1127
 9992SOL     OW31907   2.173   2.283   0.419 -0.0216  0.1456 -0.7491
 9992SOL    HW131908   2.264   2.312   0.406 -0.1377 -0.2066 -2.5006
 9992SOL    HW231909   2.172   2.252   0.510  1.2027  1.5789 -0.2032
 9993SOL     OW31910   3.437   7.159   1.422 -0.5025  0.3102  0.4391
 9993SOL    HW131911   3.426   7.114   1.506  0.4002 -1.6102 -0.4164
 9993SOL    HW231912   3.368   7.124   1.367  0.4996 -0.4144 -0.3841
 9994SOL     OW31913   3.956   3.727   2.034  0.2098 -0.0450  0.2456
 9994SOL    HW131914   3.892   3.696   2.099 -0.1399 -0.2947 -0.2155
 9994SOL    HW231915   3.903   3.754   1.959  0.6980 -1.8449 -0.8150
 9995SOL     OW31916   0.237   6.161   5.720  0.4136  0.1988  0.6992
 9995SOL    HW131917   0.170   6.205   5.772  0.2175  1.3978 -0.4973
 9995SOL    HW231918   0.306   6.140   5.783 -0.2455  0.6933  1.6146
 9996SOL     OW31919   8.548   8.160   4.531  0.3994 -0.2092 -0.1491
 9996SOL    HW131920   8.612   8.205   4.587 -0.8068  1.6621 -0.1657
 9996SOL    HW231921   8.523   8.226   4.466 -0.8788 -1.1931 -0.6966
 9997SOL     OW31922   5.101   4.263   3.591  0.2226 -0.8525  0.0587
 9997SOL    HW131923   5.146   4.195   3.642 -0.0027  0.6590  2.4739
 9997SOL    HW231924   5.172   4.311   3.548  0.6469 -0.8491  0.7359
 9998SOL     OW31925   6.345   0.029   2.808  0.2904  0.5235  0.2582
 9998SOL    HW131926   6.271  -0.020   2.772 -1.2793  3.1494 -0.3441
 9998SOL    HW231927   6.309   0.075   2.884  2.2567 -0.8047  2.1216
 9999SOL     OW31928   4.713   3.191   5.757 -0.1403 -0.1705  0.1379
 9999SOL    HW131929   4.807   3.207   5.749 -0.0536 -0.4462  0.6168
 9999SOL    HW231930   4.674   3.254   5.696  0.2778  0.7735  0.8234
10000SOL     OW31931   0.698   5.947   0.728 -0.2224 -0.1244 -0.0142
10000SOL    HW131932   0.672   5.859   0.754  1.8716 -0.4876  0.9815
10000SOL    HW231933   0.708   5.995   0.810  0.5373  0.4741 -0.4401
10001SOL     OW31934   5.385   1.220   4.472  0.5438  0.0217  0.1869
10001SOL    HW131935   5.424   1.245   4.388 -0.9244  1.8519 -0.0211
10001SOL    HW231936   5.448   1.249   4.537 -0.3411  3.0377 -0.1363
10002SOL     OW31937   4.664   2.585   5.684  0.4159 -0.3386 -0.0178
10002SOL    HW131938   4.643   2.642   5.611 -1.1568 -0.3566  0.3798
10002SOL    HW231939   4.621   2.502   5.663  0.7239 -0.6328  0.4879
10003SOL     OW31940   8.042   8.039   6.208 -0.2010  0.5595 -0.6181
10003SOL    HW131941   8.068   8.106   6.270 -0.5489  0.3149 -0.2030
10003SOL    HW231942   7.983   7.982   6.257 -1.4734  1.0601 -1.4916
10004SOL     OW31943   7.637   2.922   6.673  0.2440  0.2824 -0.3112
10004SOL    HW131944   7.715   2.871   6.651  1.0663  1.0149  0.8380
10004SOL    HW231945   7.573   2.897   6.606  0.7479 -1.9167 -0.0590
10005SOL     OW31946   0.366   5.508   1.438 -0.1516  0.1535  0.0895
10005SOL    HW131947   0.289   5.535   1.387 -1.4433 -0.4902  1.6488
10005SOL    HW231948   0.432   5.574   1.416 -1.1315  0.7436 -1.2625
10006SOL     OW31949   7.727   3.312   5.739  0.1610 -0.3848  0.2853
10006SOL    HW131950   7.801   3.263   5.776 -0.3570 -0.0823  1.8058
10006SOL    HW231951   7.653   3.251   5.745  0.6569 -1.5737 -3.4078
10007SOL     OW31952   8.036   5.136   5.503  0.6148 -0.4723  0.2638
10007SOL    HW131953   8.036   5.089   5.420 -1.0706  1.1446 -0.7441
10007SOL    HW231954   8.097   5.209   5.489  1.1625 -0.8136  0.8505
10008SOL     OW31955   7.503   4.892   4.801  0.0050 -0.1920 -0.2822
10008SOL    HW131956   7.514   4.896   4.896  2.2274  1.3515 -0.5379
10008SOL    HW231957   7.586   4.860   4.768 -0.2891  0.5268 -1.7931
10009SOL     OW31958   4.763   6.440   1.059  0.3604  0.0138  0.6114
10009SOL    HW131959   4.701   6.483   1.119 -0.3209  0.2436 -0.2409
10009SOL    HW231960   4.732   6.350   1.052 -0.6388  0.4381 -0.7797
10010SOL     OW31961   4.234   4.330   1.840 -0.1772  0.0244 -0.3686
10010SOL    HW131962   4.275   4.351   1.925 -1.6230  0.0637  0.3439
10010SOL    HW231963   4.220   4.235   1.844 -2.7576  0.3763  0.6472
10011SOL     OW31964   8.810   8.514   2.710  0.4142 -0.0158  0.4976
10011SOL    HW131965   8.742   8.447   2.703 -0.0487  0.4922  0.1851
10011SOL    HW231966   8.811   8.558   2.625  0.2083  0.8744  0.9457
10012SOL     OW31967   8.022   1.096   7.647 -0.0058  0.0487  0.1278
10012SOL    HW131968   8.032   1.032   7.717  2.0851  0.4781  0.2788
10012SOL    HW231969   8.051   1.050   7.568  1.6877  0.7954  0.2655
10013SOL     OW31970   2.358   6.706   2.304 -0.3615  0.0287 -0.4740
10013SOL    HW131971   2.269   6.723   2.275 -0.2764 -0.3339 -0.9406
10013SOL    HW231972   2.354   6.622   2.349 -0.3650  0.2843  0.0161
10014SOL     OW31973   8.172   0.118   7.394  0.3428 -0.5178  0.0604
10014SOL    HW131974   8.235   0.050   7.417  1.0021  0.0491 -0.0173
10014SOL    HW231975   8.171   0.120   7.298  0.7682 -0.0262  0.0623
10015SOL     OW31976   2.551   8.672   4.275 -0.5680 -0.5337  0.8092
10015SOL    HW131977   2.561   8.712   4.362 -1.0008  2.6264 -0.4421
10015SOL    HW231978   2.629   8.700   4.227 -0.7412 -1.5353 -0.0988
10016SOL     OW31979   7.949   5.992   8.249  0.3064 -0.0714 -0.6270
10016SOL    HW131980   7.974   5.966   8.160  0.8300 -0.1400 -0.4608
10016SOL    HW231981   7.854   5.980   8.251  0.5117 -1.8945 -0.5703
10017SOL     OW31982   0.694   5.343   7.486  0.6084  0.0830  0.3920
10017SOL    HW131983   0.645   5.420   7.516 -1.3439 -1.2354  0.7829
10017SOL    HW231984   0.631   5.271   7.491  2.1078 -1.3999 -0.7995
10018SOL     OW31985   5.472   8.155   3.911 -0.9733 -0.1111 -0.7586
10018SOL    HW131986   5.463   8.229   3.971  0.9219 -0.2056 -0.2741
10018SOL    HW231987   5.526   8.092   3.959  2.4114  0.6546 -3.1635
10019SOL     OW31988   4.235   6.234   4.964  0.2460  0.2510  0.1068
10019SOL    HW131989   4.263   6.235   5.056  1.1270  0.1822 -0.1497
10019SOL    HW231990   4.239   6.142   4.939  1.7051  0.4473 -0.4840
10020SOL     OW31991   5.748   4.287   4.028  0.1360  0.1495  0.3817
10020SOL    HW131992   5.662   4.263   3.993 -0.1684  1.3034  0.3148
10020SOL    HW231993   5.808   4.223   3.989 -0.5035  0.1033 -0.5706
10021SOL     OW31994   8.005   4.616   6.122  0.1258 -0.1679 -0.4852
10021SOL    HW131995   8.068   4.547   6.101 -1.2190 -1.2186 -1.2404
10021SOL    HW231996   7.940   4.611   6.053 -0.4377  1.3647 -0.1149
10022SOL     OW31997   3.560   5.904   3.781  0.0186  0.0255 -0.3520
10022SOL    HW131998   3.637   5.950   3.813 -0.7130  0.4178  0.9095
10022SOL    HW231999   3.595   5.825   3.738  1.1042  0.0317  0.4868
10023SOL     OW32000   4.231   4.204   8.084 -0.2379  0.7100 -0.2737
10023SOL    HW132001   4.138   4.202   8.108 -0.1948 -0.4079 -0.1294
10023SOL    HW232002   4.231   4.214   7.989 -0.4644  2.0820 -0.1509
10024SOL     OW32003   3.546   5.354   3.984  0.2873  0.2835  0.1134
10024SOL    HW132004   3.493   5.430   4.009 -0.6140 -0.4133  0.4105
10024SOL    HW232005   3.519   5.335   3.894  0.3594  0.1937  0.1108
10025SOL     OW32006   6.911   7.938   2.149  0.2433  0.3216  0.5319
10025SOL    HW132007   6.944   7.917   2.237  0.0224  1.8088  0.9837
10025SOL    HW232008   6.927   8.031   2.139 -1.2144  0.4981 -0.3720
10026SOL     OW32009   0.641   2.090   4.975 -0.8508  0.1986 -0.6912
10026SOL    HW132010   0.593   2.105   5.057 -0.1700  2.2395 -0.6232
10026SOL    HW232011   0.674   2.000   4.983 -2.0604 -0.1730  0.5927
10027SOL     OW32012   6.863   3.953   6.106 -0.5229 -0.0964 -0.0447
10027SOL    HW132013   6.859   3.871   6.155  0.7021  0.4721  1.0564
10027SOL    HW232014   6.821   4.017   6.163  0.2018  0.4156 -0.0671
10028SOL     OW32015   8.144   7.927   3.822 -0.1090 -0.1812  0.0407
10028SOL    HW132016   8.172   7.982   3.895  2.7011 -0.8196 -0.4184
10028SOL    HW232017   8.102   7.852   3.862 -1.6707  1.0370  0.7878
10029SOL     OW32018   2.976   1.209   0.253 -0.2864 -0.9963 -0.1352
10029SOL    HW132019   2.940   1.297   0.238  2.1608 -0.0565 -0.9522
10029SOL    HW232020   2.980   1.202   0.349 -0.3697 -0.1623 -0.0598
10030SOL     OW32021   5.166   7.188   1.550  0.8477 -0.0266  0.4952
10030SOL    HW132022   5.228   7.157   1.484  0.1883 -2.6956  1.0160
10030SOL    HW232023   5.084   7.201   1.502  0.9262  0.0964  0.3973
10031SOL     OW32024   0.325   0.798   3.634 -0.1778  0.1148 -0.0408
10031SOL    HW132025   0.341   0.736   3.562 -0.3471  1.0606 -0.9277
10031SOL    HW232026   0.397   0.782   3.695  0.2400 -0.3998 -0.6423
10032SOL     OW32027   3.538   3.905   3.927 -0.1353  0.0199 -0.2314
10032SOL    HW132028   3.526   3.997   3.950  0.6739  0.4304 -1.3846
10032SOL    HW232029   3.537   3.903   3.832 -2.2213 -1.4804 -0.2585
10033SOL     OW32030   7.062   7.228   3.269  0.8191 -0.3495 -0.6972
10033SOL    HW132031   6.984   7.242   3.322  1.1132  1.8534 -0.7698
10033SOL    HW232032   7.120   7.175   3.324 -0.2695 -1.0685 -0.2256
10034SOL     OW32033   3.822   1.744   4.496  0.8517 -0.0531 -0.3481
10034SOL    HW132034   3.886   1.801   4.455 -0.5815  0.6588 -1.7278
10034SOL    HW232035   3.760   1.804   4.538  1.4035 -0.7406  1.5392
10035SOL     OW32036   0.493   3.499   7.017 -0.4229  0.2674 -0.5804
10035SOL    HW132037   0.477   3.411   7.050 -2.2258  0.7846  0.0328
10035SOL    HW232038   0.560   3.535   7.076  0.8683 -0.8816 -1.2702
10036SOL     OW32039   0.604   0.768   5.701 -0.3494  0.1672 -0.6048
10036SOL    HW132040   0.683   0.778   5.755 -0.6924 -0.4822  0.0350
10036SOL    HW232041   0.578   0.858   5.682  0.0078  0.4076 -0.0196
10037SOL     OW32042   2.382   8.356   0.096 -0.4297 -0.1454  0.3034
10037SOL    HW132043   2.289   8.361   0.118 -0.6132  1.7654 -0.6418
10037SOL    HW232044   2.425   8.328   0.176 -1.7827 -0.6699  0.8677
10038SOL     OW32045   0.953   2.781   7.275  0.0358 -0.0537 -0.1456
10038SOL    HW132046   1.022   2.783   7.209 -0.5449  0.6972 -0.7543
10038SOL    HW232047   0.969   2.857   7.330  0.6626 -0.8148  0.7600
10039SOL     OW32048   1.916   5.029   2.694  0.2816  0.3090  0.1792
10039SOL    HW132049   1.917   5.119   2.662  1.2196  0.6608  1.1389
10039SOL    HW232050   1.979   5.028   2.767  1.6403 -1.5255 -0.9081
10040SOL     OW32051   1.700   4.440   5.867 -0.4879  0.4426  0.1558
10040SOL    HW132052   1.622   4.390   5.844  0.5559 -1.2836  0.1387
10040SOL    HW232053   1.768   4.404   5.810  0.5181  1.2379  0.8279
10041SOL     OW32054   4.448   5.937   6.333 -0.0882  0.3447 -0.5258
10041SOL    HW132055   4.493   6.017   6.308  0.0718 -0.0139 -1.4292
10041SOL    HW232056   4.461   5.930   6.428 -1.3685  2.1442 -0.1814
10042SOL     OW32057   1.401   2.304   8.691  0.3641  0.3800 -0.6664
10042SOL    HW132058   1.340   2.343   8.628  0.8909  2.8400  0.2080
10042SOL    HW232059   1.345   2.275   8.764 -0.0084 -0.0682 -1.1266
10043SOL     OW32060   7.423   0.109   1.094  0.0855 -0.2644 -0.1826
10043SOL    HW132061   7.426   0.064   1.178 -3.3107  0.8783  0.7180
10043SOL    HW232062   7.392   0.042   1.033 -0.0258 -0.4331  0.0563
10044SOL     OW32063   2.745   6.287   8.697  0.0000 -0.4513 -0.2579
10044SOL    HW132064   2.762   6.280   8.603  2.4879 -0.2767  0.1032
10044SOL    HW232065   2.774   6.375   8.720  0.5421 -0.9019  0.8585
10045SOL     OW32066   1.981   4.792   0.459 -0.0966 -0.4212  0.5541
10045SOL    HW132067   1.906   4.732   0.460 -0.2799 -0.2066 -0.1638
10045SOL    HW232068   1.974   4.838   0.543 -0.2125 -1.0783  0.9130
10046SOL     OW32069   4.012   5.230   1.175 -0.0657 -0.1677 -0.2696
10046SOL    HW132070   4.014   5.320   1.208  0.1755 -0.0410 -0.6234
10046SOL    HW232071   4.087   5.225   1.115 -0.5179 -0.3804 -0.8262
10047SOL     OW32072   3.958   3.354   5.550 -0.6317  0.2865 -0.2292
10047SOL    HW132073   3.949   3.291   5.479  1.3147 -1.0568  0.6492
10047SOL    HW232074   4.018   3.420   5.516  0.3698 -0.4032  0.1534
10048SOL     OW32075   4.715   1.239   0.556  0.2886 -0.3677  0.6674
10048SOL    HW132076   4.691   1.264   0.467 -2.0228 -0.7308  1.1062
10048SOL    HW232077   4.809   1.222   0.553  0.6247  1.4286 -1.2433
10049SOL     OW32078   6.899   7.456   3.603  0.2513  0.3023 -0.5846
10049SOL    HW132079   6.940   7.452   3.690 -3.2876 -0.8715  1.2435
10049SOL    HW232080   6.940   7.531   3.560  3.7459 -0.4078  1.1446
10050SOL     OW32081   7.520   8.013   0.426  0.2000 -0.2405 -0.1481
10050SOL    HW132082   7.572   7.933   0.417 -0.8314 -0.9427 -0.0122
10050SOL    HW232083   7.444   7.999   0.370 -0.0963  0.5578  0.0469
10051SOL     OW32084   6.734   5.054   3.532 -0.1480 -0.2150  0.0752
10051SOL    HW132085   6.661   5.100   3.491  0.8359 -0.8167 -2.5914
10051SOL    HW232086   6.695   4.975   3.569 -0.8611 -0.7548 -1.7122
10052SOL     OW32087   8.112   6.976   7.284 -0.3299 -0.0094 -0.1497
10052SOL    HW132088   8.188   7.019   7.325 -1.5667  2.6952 -0.4721
10052SOL    HW232089   8.151   6.910   7.226  1.7913  1.1614 -0.1875
10053SOL     OW32090   4.224   6.947   6.079 -0.2045  0.3869  0.3124
10053SOL    HW132091   4.178   7.006   6.019 -0.4655 -0.3691 -0.2415
10053SOL    HW232092   4.272   7.006   6.138  1.1665  1.1561 -1.4797
10054SOL     OW32093   3.630   0.811   0.961 -0.2343 -0.2752  0.5551
10054SOL    HW132094   3.709   0.864   0.961 -0.4763  0.0960  0.1253
10054SOL    HW232095   3.568   0.861   0.908 -0.1652 -1.4220 -0.6659
10055SOL     OW32096   7.798   3.031   6.410 -0.0891 -0.3797 -0.1639
10055SOL    HW132097   7.732   3.086   6.368 -0.2545 -0.4934 -0.0531
10055SOL    HW232098   7.790   2.946   6.367  0.3856 -0.2270 -0.5593
10056SOL     OW32099   0.580   3.461   0.108  0.0641  0.8360  0.0895
10056SOL    HW132100   0.536   3.420   0.182 -2.2884  0.7917 -1.2575
10056SOL    HW232101   0.535   3.545   0.096 -0.1333  0.5106 -1.7478
10057SOL     OW32102   3.099   7.033   8.330 -0.6508 -0.0242  0.0189
10057SOL    HW132103   3.015   7.061   8.367  0.3849 -0.3426  2.9048
10057SOL    HW232104   3.084   6.943   8.302 -1.4996  0.2223 -0.3413
10058SOL     OW32105   0.185   8.723   8.436  0.1000  0.2620  0.2604
10058SOL    HW132106   0.182   8.791   8.369 -0.2946 -1.1002 -1.1507
10058SOL    HW232107   0.256   8.665   8.408 -0.8162 -0.9548  0.3736
10059SOL     OW32108   6.731   3.625   7.572 -0.6267 -0.2539  1.1447
10059SOL    HW132109   6.779   3.584   7.644  1.0299 -0.1991  0.1281
10059SOL    HW232110   6.775   3.710   7.559 -0.6461 -0.4246 -0.1565
10060SOL     OW32111   8.179   4.677   1.595  0.0962  0.5656  0.3743
10060SOL    HW132112   8.156   4.667   1.687 -0.5418 -2.0495  0.0176
10060SOL    HW232113   8.095   4.670   1.548  0.7740 -3.3481 -0.6121
10061SOL     OW32114   8.701   2.804   4.428  0.1631 -0.0498 -0.7315
10061SOL    HW132115   8.611   2.836   4.436  0.2112  0.0407 -0.5492
10061SOL    HW232116   8.753   2.866   4.479  0.2214 -0.5801 -0.1374
10062SOL     OW32117   1.989   3.898   8.477 -0.3132 -0.2020  0.1665
10062SOL    HW132118   2.018   3.810   8.455  0.4362 -0.5442  2.2899
10062SOL    HW232119   2.051   3.956   8.432  0.0312 -0.7796 -0.1166
10063SOL     OW32120   4.630   1.294   4.079 -0.4480  0.4843  0.1021
10063SOL    HW132121   4.550   1.347   4.089 -1.3385 -0.4867 -1.4637
10063SOL    HW232122   4.598   1.206   4.060  1.0272 -0.2594  0.8758
10064SOL     OW32123   1.997   1.881   6.707  0.5019  0.0461 -0.1581
10064SOL    HW132124   1.979   1.862   6.615 -0.1045 -1.5426  0.2560
10064SOL    HW232125   2.074   1.828   6.728 -0.8253 -1.5888  0.8575
10065SOL     OW32126   3.468   1.027   8.872  0.2900 -0.2315  0.3819
10065SOL    HW132127   3.560   1.035   8.846  0.0014 -1.4882 -1.2087
10065SOL    HW232128   3.442   1.116   8.896  1.4330  0.5046 -0.9396
10066SOL     OW32129   6.397   1.286   7.892  0.2409  0.5584  0.1052
10066SOL    HW132130   6.389   1.374   7.856  0.9483  1.0102  1.0108
10066SOL    HW232131   6.308   1.261   7.918 -0.1548  0.5217 -1.2279
10067SOL     OW32132   8.703   6.747   1.409  0.7717  0.2744  0.6126
10067SOL    HW132133   8.736   6.806   1.341 -1.1358 -0.6471 -1.1868
10067SOL    HW232134   8.733   6.660   1.382 -0.0273 -0.1043  0.9153
10068SOL     OW32135   7.112   7.539   3.017  0.2938 -0.6207  0.2281
10068SOL    HW132136   7.087   7.448   3.001  0.8432 -0.5002 -1.5150
10068SOL    HW232137   7.043   7.591   2.976  0.8254 -0.2722 -0.2375
10069SOL     OW32138   1.899   8.653   5.165  0.9422  0.3420 -0.0374
10069SOL    HW132139   1.863   8.711   5.098  0.2425  1.3407  1.1662
10069SOL    HW232140   1.993   8.651   5.146  0.8429  1.0959 -0.6844
10070SOL     OW32141   4.669   0.989   3.828 -0.2325 -0.3460  0.2689
10070SOL    HW132142   4.661   0.997   3.923  1.2686  1.7860  0.3067
10070SOL    HW232143   4.707   0.903   3.814 -0.0846 -0.5307  1.6319
10071SOL     OW32144   1.237   1.233   0.677 -0.2507  0.3213  0.5139
10071SOL    HW132145   1.287   1.155   0.704  0.2373  0.1030 -0.9746
10071SOL    HW232146   1.205   1.213   0.589  1.5114  2.5442 -0.7234
10072SOL     OW32147   3.987   2.031   3.020  0.6109 -0.5517 -0.1451
10072SOL    HW132148   3.958   1.964   2.958  1.4177 -2.1317  1.1066
10072SOL    HW232149   4.079   2.046   2.997  0.3734  0.3023 -0.5573
10073SOL     OW32150   1.242   2.732   0.847  0.4277 -0.0833  0.1748
10073SOL    HW132151   1.255   2.658   0.789 -0.9339 -0.3981  0.2460
10073SOL    HW232152   1.148   2.751   0.843  0.9574  2.8932 -1.3801
10074SOL     OW32153   1.298   6.127   1.780 -0.3784 -0.5870 -0.2738
10074SOL    HW132154   1.234   6.180   1.827  1.2328  1.0443  0.2372
10074SOL    HW232155   1.313   6.051   1.837  0.2119  0.4610  1.0507
10075SOL     OW32156   6.105   3.758   3.383  0.2321  0.1719  0.1023
10075SOL    HW132157   6.033   3.807   3.343  0.2288  0.2912  0.2549
10075SOL    HW232158   6.184   3.806   3.357  0.3040 -0.2508 -0.5019
10076SOL     OW32159   5.190   0.566   3.749  0.6337 -0.5721  0.1665
10076SOL    HW132160   5.266   0.512   3.728  0.9643 -0.8891  2.0100
10076SOL    HW232161   5.115   0.508   3.737  0.9643 -1.4303  1.8142
10077SOL     OW32162   2.028   3.184   0.755 -0.1592  0.5051  0.3001
10077SOL    HW132163   1.997   3.274   0.765 -0.4183  0.5160 -0.4898
10077SOL    HW232164   2.113   3.183   0.799 -0.3591  1.0146  0.7114
10078SOL     OW32165   2.475   0.851   6.834 -0.6195  0.1079  0.1090
10078SOL    HW132166   2.554   0.860   6.782 -0.1365 -0.9658  0.6134
10078SOL    HW232167   2.503   0.806   6.913 -2.1357 -2.8421 -0.8601
10079SOL     OW32168   4.736   5.278   3.027 -0.0391  0.5046  0.6552
10079SOL    HW132169   4.771   5.205   3.077 -0.8654 -1.0586 -0.9315
10079SOL    HW232170   4.709   5.342   3.093  0.9004 -0.5228  2.0751
10080SOL     OW32171   4.600   0.963   4.094  0.4078  0.3876 -0.4636
10080SOL    HW132172   4.645   0.931   4.172  0.1421 -1.4544 -1.0163
10080SOL    HW232173   4.525   1.012   4.127  0.1172 -0.6407  0.4562
10081SOL     OW32174   1.272   0.883   4.825 -0.2623  0.0562  0.4426
10081SOL    HW132175   1.305   0.866   4.737  0.2742  1.9841  0.2395
10081SOL    HW232176   1.300   0.806   4.876  0.0071 -0.7626 -0.8859
10082SOL     OW32177   2.206   5.102   7.505  0.3354  0.7234 -0.1727
10082SOL    HW132178   2.114   5.109   7.481 -0.3187 -1.8032  1.2721
10082SOL    HW232179   2.221   5.175   7.564 -0.2696  2.0618 -1.5870
10083SOL     OW32180   5.815   3.168   6.303  0.5823  0.2828  0.6134
10083SOL    HW132181   5.904   3.194   6.279  0.4700  0.9306  0.8677
10083SOL    HW232182   5.760   3.206   6.234  0.4318  0.5588  0.8841
10084SOL     OW32183   5.165   3.022   1.440  0.2698  0.2423  0.6130
10084SOL    HW132184   5.235   2.961   1.416 -1.8449 -1.2553 -2.4550
10084SOL    HW232185   5.103   2.969   1.489 -0.7130  0.3439 -0.4704
10085SOL     OW32186   3.937   6.368   2.830  0.3664 -0.1819 -0.1683
10085SOL    HW132187   3.983   6.452   2.836  0.1429  0.0203 -1.0475
10085SOL    HW232188   4.002   6.308   2.793 -0.0049  0.0718 -1.2856
10086SOL     OW32189   6.651   5.816   2.074  0.2117 -0.5522 -0.2082
10086SOL    HW132190   6.631   5.883   2.140 -0.7714 -0.9459 -0.1050
10086SOL    HW232191   6.747   5.812   2.074  0.2959  0.8954 -0.2564
10087SOL     OW32192   1.160   3.839   4.222  0.0125 -0.0621  0.0339
10087SOL    HW132193   1.183   3.806   4.135 -1.4744 -2.9870  0.5904
10087SOL    HW232194   1.068   3.865   4.214  0.1819  0.6943  0.4790
10088SOL     OW32195   0.483   0.950   7.712  0.5920 -0.2018 -0.3062
10088SOL    HW132196   0.452   0.975   7.624  2.0204 -0.4433 -0.9043
10088SOL    HW232197   0.540   1.022   7.738 -0.4527  0.2568  0.7957
10089SOL     OW32198   2.788   1.745   6.943 -0.2617 -0.2714 -0.4567
10089SOL    HW132199   2.709   1.762   6.891  0.9594  0.0038 -2.3314
10089SOL    HW232200   2.795   1.650   6.946 -0.7177 -0.2993 -0.1748
10090SOL     OW32201   3.306   4.201   0.128 -0.2587 -0.4788 -0.8041
10090SOL    HW132202   3.221   4.186   0.168  0.0770  0.4236  0.2896
10090SOL    HW232203   3.354   4.119   0.142  0.2461  0.1531  1.7330
10091SOL     OW32204   1.628   4.990   7.559 -0.5035  0.4479  0.2515
10091SOL    HW132205   1.681   4.976   7.481  0.4466 -0.1077  0.9949
10091SOL    HW232206   1.544   4.948   7.539  0.4627 -1.6037  0.3538
10092SOL     OW32207   5.403   5.451   3.472 -0.2916 -0.2423 -0.7524
10092SOL    HW132208   5.377   5.359   3.478  0.6604 -0.5167 -0.6401
10092SOL    HW232209   5.455   5.456   3.392  2.4697 -0.5694  0.8764
10093SOL     OW32210   4.954   6.301   6.020 -0.0561 -0.5411  0.3470
10093SOL    HW132211   5.009   6.272   6.092  0.2038  1.5120  1.0340
10093SOL    HW232212   5.016   6.317   5.948  0.3024  1.5360  1.0456
10094SOL     OW32213   0.924   5.632   7.821  0.7584  0.3371 -0.2883
10094SOL    HW132214   0.976   5.555   7.845  1.2632  1.4189  2.4379
10094SOL    HW232215   0.839   5.597   7.797  1.3590 -1.1521 -0.3418
10095SOL     OW32216   0.670   1.627   8.072  0.3287 -0.0147 -0.2050
10095SOL    HW132217   0.652   1.704   8.127  0.1067 -0.3010  0.1260
10095SOL    HW232218   0.725   1.661   8.001  1.0218  0.2724  0.4539
10096SOL     OW32219   6.967   5.285   8.728 -0.1252 -0.3841 -0.1343
10096SOL    HW132220   7.030   5.239   8.783  1.2975  0.0422 -1.3140
10096SOL    HW232221   7.010   5.289   8.642 -0.8127  1.8252 -0.4336
10097SOL     OW32222   8.795   5.289   1.378  0.3644 -0.1038  0.5819
10097SOL    HW132223   8.773   5.202   1.346  0.5288  0.2488 -0.5165
10097SOL    HW232224   8.840   5.274   1.461  0.4436 -1.0561  0.3715
10098SOL     OW32225   2.722   2.356   0.416 -0.0485  0.4867  0.2871
10098SOL    HW132226   2.762   2.388   0.336 -0.6798  0.7325  0.0610
10098SOL    HW232227   2.789   2.366   0.483  0.6321 -0.1134 -0.2900
10099SOL     OW32228   2.800   3.616   2.286 -0.2800  0.0773 -0.0211
10099SOL    HW132229   2.893   3.597   2.295 -0.2352 -0.0589 -0.7374
10099SOL    HW232230   2.759   3.573   2.361  0.1230 -0.6303 -0.2065
10100SOL     OW32231   4.522   7.457   1.845  0.5603  0.0457  0.1339
10100SOL    HW132232   4.575   7.472   1.923  0.0139  0.4181  0.4456
10100SOL    HW232233   4.582   7.420   1.781  1.3349  1.0365  0.2706
10101SOL     OW32234   2.489   2.044   5.409 -0.6686  0.0080 -0.2512
10101SOL    HW132235   2.482   1.969   5.468 -1.3804  0.2601  0.0054
10101SOL    HW232236   2.569   2.028   5.359 -1.0187 -1.1217 -0.4856
10102SOL     OW32237   3.929   1.330   0.623  0.6421  0.0163 -0.3374
10102SOL    HW132238   3.881   1.375   0.554  1.1074  1.5170  0.2718
10102SOL    HW232239   4.016   1.370   0.622  0.8642 -0.3910  0.6707
10103SOL     OW32240   6.571   2.755   6.169 -0.3857 -0.0438  0.1568
10103SOL    HW132241   6.612   2.752   6.256  0.6183  1.3141 -0.2359
10103SOL    HW232242   6.513   2.831   6.173  0.0158  0.3004 -0.5011
10104SOL     OW32243   1.622   7.699   1.326 -0.0908  0.2836  0.2513
10104SOL    HW132244   1.699   7.673   1.276  0.2079 -2.4320  1.9714
10104SOL    HW232245   1.656   7.757   1.394 -0.4512  3.6834 -2.1715
10105SOL     OW32246   4.844   4.334   3.674  0.2821 -0.3143  0.0349
10105SOL    HW132247   4.848   4.429   3.689 -0.6866  0.1310 -2.1139
10105SOL    HW232248   4.931   4.311   3.642  0.3264 -0.0076 -0.0708
10106SOL     OW32249   8.344   2.794   1.431 -0.0169  0.2003  0.5521
10106SOL    HW132250   8.259   2.826   1.399 -0.1826 -0.1488  0.6474
10106SOL    HW232251   8.400   2.796   1.353 -0.5418 -1.0825  0.1209
10107SOL     OW32252   0.732   4.591   5.900 -0.3478  0.3344  0.0680
10107SOL    HW132253   0.794   4.527   5.864  0.5574  1.7565 -1.0137
10107SOL    HW232254   0.765   4.675   5.869 -1.3528  1.3612  1.6756
10108SOL     OW32255   5.244   0.925   7.261  0.0259 -0.0219 -0.0793
10108SOL    HW132256   5.267   0.847   7.311  0.0405  1.0888  1.7247
10108SOL    HW232257   5.233   0.994   7.326  0.7408  1.6902 -1.6539
10109SOL     OW32258   0.224   7.034   2.419  0.1305  0.4413 -0.0011
10109SOL    HW132259   0.130   7.014   2.414  0.5983 -1.8181 -1.0494
10109SOL    HW232260   0.229   7.128   2.403 -1.8824  0.4419 -1.0005
10110SOL     OW32261   4.809   1.578   2.216  1.0355  0.1761 -0.2102
10110SOL    HW132262   4.890   1.598   2.169  0.8852  0.3634 -0.3939
10110SOL    HW232263   4.746   1.642   2.183  1.2907  1.2339  1.3088
10111SOL     OW32264   0.974   5.441   4.685 -0.5524 -0.2401 -0.0370
10111SOL    HW132265   0.974   5.503   4.612  2.3918 -0.6489 -0.5236
10111SOL    HW232266   0.952   5.357   4.646 -1.4747 -0.0373  0.0370
10112SOL     OW32267   3.747   6.453   8.463  0.4214 -0.2401 -0.0813
10112SOL    HW132268   3.793   6.377   8.498 -0.7964 -2.9561 -3.6793
10112SOL    HW232269   3.658   6.422   8.447 -0.1676  1.9855 -1.6133
10113SOL     OW32270   5.396   6.690   7.408 -0.0118 -0.3618  0.3213
10113SOL    HW132271   5.359   6.697   7.496 -1.5151 -0.8466 -0.2227
10113SOL    HW232272   5.330   6.732   7.351  0.0461 -1.6408 -0.7489
10114SOL     OW32273   5.708   7.237   6.909 -0.4392  0.0136 -0.0851
10114SOL    HW132274   5.796   7.217   6.941 -0.5300 -0.1663  0.0533
10114SOL    HW232275   5.665   7.280   6.983 -0.6516 -0.4091  0.0398
10115SOL     OW32276   6.781   3.290   8.659 -0.3461 -0.4528 -0.7498
10115SOL    HW132277   6.775   3.385   8.654 -0.3559 -0.4533 -0.7504
10115SOL    HW232278   6.811   3.263   8.572 -1.5358 -0.5447 -1.1440
10116SOL     OW32279   1.789   5.528   8.097 -0.3647 -0.2931  0.4611
10116SOL    HW132280   1.827   5.454   8.146 -0.2876  0.8844  2.2600
10116SOL    HW232281   1.754   5.586   8.164 -0.5527  1.2591 -0.9206
10117SOL     OW32282   4.466   1.314   3.023  0.2426  0.1223  0.2473
10117SOL    HW132283   4.542   1.316   2.965 -0.0708  1.3032 -0.1621
10117SOL    HW232284   4.413   1.389   2.995 -1.0297 -0.6194  0.5811
10118SOL     OW32285   7.710   8.500   6.633  0.0938  0.0023  0.2254
10118SOL    HW132286   7.768   8.565   6.674 -2.2722  1.5326  1.4276
10118SOL    HW232287   7.624   8.517   6.673 -1.4463 -1.3753 -2.2352
10119SOL     OW32288   6.920   4.147   8.619 -0.2570  0.8612 -0.3667
10119SOL    HW132289   6.905   4.062   8.577 -0.4721  0.1747  1.0332
10119SOL    HW232290   6.866   4.208   8.571  0.0016  0.2282 -1.4864
10120SOL     OW32291   7.554   7.276   0.889 -0.4676  0.0663  0.1575
10120SOL    HW132292   7.605   7.196   0.883  0.6350  0.7888 -0.3971
10120SOL    HW232293   7.589   7.333   0.821 -0.0928  1.6483  1.5925
10121SOL     OW32294   4.988   0.419   1.741  0.1087 -0.1495 -0.0439
10121SOL    HW132295   4.932   0.452   1.812 -0.8236 -1.5698 -0.0586
10121SOL    HW232296   5.004   0.327   1.765  1.4550 -0.0897 -0.6659
10122SOL     OW32297   5.569   8.842   3.159  0.4060 -0.1115  0.6680
10122SOL    HW132298   5.596   8.934   3.166  1.6381 -0.3883 -0.2269
10122SOL    HW232299   5.644   8.798   3.120 -0.7502 -1.2201 -0.3689
10123SOL     OW32300   3.186   0.615   5.479  0.4576  0.0028 -0.4940
10123SOL    HW132301   3.278   0.613   5.508  0.2444 -1.0476  0.1579
10123SOL    HW232302   3.149   0.532   5.509 -0.5167  0.0761 -1.4276
10124SOL     OW32303   7.824   2.805   0.828 -0.1967  0.4449  0.4302
10124SOL    HW132304   7.778   2.723   0.843 -0.1383  0.2302 -0.4948
10124SOL    HW232305   7.916   2.784   0.839 -0.1641  0.3211 -0.0516
10125SOL     OW32306   7.067   5.638   6.526  0.5883 -0.2694  0.6108
10125SOL    HW132307   7.016   5.578   6.472 -0.0771  0.7359  0.0853
10125SOL    HW232308   7.071   5.595   6.612 -1.5018 -0.2226  0.7925
10126SOL     OW32309   0.581   3.305   5.428  0.5791  0.8077 -0.1419
10126SOL    HW132310   0.649   3.373   5.424  0.2230  1.1199 -1.8887
10126SOL    HW232311   0.527   3.321   5.351 -0.2628 -0.7030  0.0937
10127SOL     OW32312   1.041   6.105   0.935 -0.3504 -0.3110 -0.0231
10127SOL    HW132313   1.049   6.122   0.841 -1.0031  0.3921  0.0365
10127SOL    HW232314   0.977   6.035   0.941 -0.8928  0.1776 -0.0680
10128SOL     OW32315   7.837   2.121   6.104  0.1324  0.4001  0.1984
10128SOL    HW132316   7.859   2.028   6.102  0.4325  0.4295  1.2529
10128SOL    HW232317   7.758   2.128   6.051 -0.8937 -0.7656  1.4811
10129SOL     OW32318   0.256   6.015   6.391  0.0643  0.0898  0.5033
10129SOL    HW132319   0.286   5.978   6.308 -0.1639  2.4462 -0.7051
10129SOL    HW232320   0.189   6.078   6.366 -0.7058  0.1549  2.5919
10130SOL     OW32321   4.679   2.256   5.326  1.1251 -0.0176  0.1964
10130SOL    HW132322   4.599   2.221   5.288  0.4595  1.2845  0.3259
10130SOL    HW232323   4.703   2.194   5.394  0.4875 -0.6629 -0.1580
10131SOL     OW32324   1.264   6.330   2.144  0.0961  0.5378 -0.6594
10131SOL    HW132325   1.296   6.249   2.182 -0.4344  0.0481 -1.2393
10131SOL    HW232326   1.344   6.379   2.122  0.4220  0.0773 -0.5137
10132SOL     OW32327   6.639   3.121   4.987 -0.1809 -0.2379 -1.0969
10132SOL    HW132328   6.556   3.089   4.954 -0.1211 -0.1701 -1.3130
10132SOL    HW232329   6.629   3.120   5.082 -0.7826  0.7030 -1.1364
10133SOL     OW32330   4.485   4.444   2.896  0.3143  0.4510 -0.3286
10133SOL    HW132331   4.402   4.413   2.932 -0.2336  0.9055 -1.1755
10133SOL    HW232332   4.546   4.437   2.969 -0.6053  0.6610  0.4867
10134SOL     OW32333   3.916   0.419   1.129  0.9943 -0.6208 -0.6027
10134SOL    HW132334   3.871   0.385   1.052 -1.4980 -0.1934  0.5584
10134SOL    HW232335   3.847   0.463   1.179  2.8000  0.3080  1.2021
10135SOL     OW32336   3.767   1.174   1.131 -0.6085 -0.3577 -0.4342
10135SOL    HW132337   3.788   1.256   1.087  0.7366 -0.7866 -0.6258
10135SOL    HW232338   3.768   1.109   1.061 -1.9153 -0.5209 -0.3260
10136SOL     OW32339   1.745   2.439   3.304 -0.6947  0.4928  0.0711
10136SOL    HW132340   1.816   2.443   3.240 -0.4954 -2.2951 -0.0301
10136SOL    HW232341   1.779   2.483   3.382  0.0852  1.5588 -0.8399
10137SOL     OW32342   4.914   3.504   6.814  0.3512  0.1019 -0.3137
10137SOL    HW132343   4.995   3.506   6.866  0.4867 -0.4780 -0.4908
10137SOL    HW232344   4.847   3.477   6.876  0.6116 -1.1403 -0.5466
10138SOL     OW32345   4.024   5.955   0.444  0.2685 -0.3919  0.0283
10138SOL    HW132346   4.090   5.981   0.380  0.3342 -2.9691 -1.0819
10138SOL    HW232347   3.940   5.975   0.402  0.3276 -1.2819 -0.5535
10139SOL     OW32348   4.511   4.326   5.549 -0.2336  0.0960 -0.2405
10139SOL    HW132349   4.474   4.256   5.602 -0.5918  0.3388 -0.1702
10139SOL    HW232350   4.553   4.385   5.612  1.7825 -1.0308 -0.4166
10140SOL     OW32351   6.028   5.515   6.283  0.0302 -0.4152  0.1836
10140SOL    HW132352   6.073   5.565   6.351  1.8130 -3.3551  1.3730
10140SOL    HW232353   6.085   5.521   6.206  0.3933 -0.8599  0.4182
10141SOL     OW32354   7.146   0.998   4.018  0.1228 -0.2640 -0.2668
10141SOL    HW132355   7.147   0.932   3.948 -0.4235 -2.3390  1.5746
10141SOL    HW232356   7.226   1.049   4.003  0.3222 -0.9978 -2.0472
10142SOL     OW32357   1.396   8.713   2.840  0.3600 -0.2491 -0.3262
10142SOL    HW132358   1.306   8.745   2.841  0.4285  0.1255 -2.3722
10142SOL    HW232359   1.420   8.710   2.747  2.7437  0.4712  0.1939
10143SOL     OW32360   7.302   0.240   6.633  0.5656  0.0458 -0.3916
10143SOL    HW132361   7.391   0.207   6.621  1.2576  1.5361  0.3279
10143SOL    HW232362   7.254   0.168   6.673  1.3934 -0.8398 -0.9529
10144SOL     OW32363   0.380   3.741   2.417  0.2661 -0.1525 -0.0304
10144SOL    HW132364   0.448   3.732   2.350 -0.4010  2.2858 -1.1642
10144SOL    HW232365   0.298   3.737   2.367 -0.2715  0.7432  0.7510
10145SOL     OW32366   6.115   4.851   1.847 -0.1843  0.3161 -0.7878
10145SOL    HW132367   6.086   4.760   1.856 -0.6930  0.5143 -0.3735
10145SOL    HW232368   6.175   4.850   1.773  2.5806 -1.0481  1.2605
10146SOL     OW32369   2.597   0.135   0.129 -0.2999  0.3651 -0.3222
10146SOL    HW132370   2.587   0.043   0.154 -1.0445  0.0044 -1.8432
10146SOL    HW232371   2.691   0.145   0.115  0.0267  0.3407  1.5782
10147SOL     OW32372   5.586   7.018   0.601 -0.0070 -0.4561  0.5045
10147SOL    HW132373   5.675   7.044   0.578 -0.7011  2.2140  0.5471
10147SOL    HW232374   5.532   7.055   0.531 -1.3140  0.3878  1.8997
10148SOL     OW32375   1.007   7.617   8.562 -0.2274  0.0368 -0.6639
10148SOL    HW132376   0.931   7.648   8.612 -0.4700  2.1936 -2.2261
10148SOL    HW232377   1.057   7.565   8.624 -0.9904  1.7734  1.5443
10149SOL     OW32378   7.867   5.941   0.523 -0.1284  0.5327 -0.0627
10149SOL    HW132379   7.856   5.949   0.429 -2.2010  0.0580  0.0892
10149SOL    HW232380   7.835   6.025   0.558  1.7356  1.1889  0.2078
10150SOL     OW32381   3.939   4.980   8.422 -0.4200 -0.0220  0.0603
10150SOL    HW132382   3.992   4.955   8.498 -0.5483  1.0553  0.5330
10150SOL    HW232383   3.880   4.906   8.408  0.2917 -0.6568  0.3813
10151SOL     OW32384   3.596   3.051   7.615 -0.2748  0.2191 -0.3603
10151SOL    HW132385   3.609   2.989   7.543  0.5391 -0.1308  0.0799
10151SOL    HW232386   3.535   3.116   7.579  1.8271  1.3496 -2.1936
10152SOL     OW32387   4.335   4.281   3.837  0.2857  0.0663 -0.7026
10152SOL    HW132388   4.385   4.354   3.801  2.7431 -1.8432 -1.4676
10152SOL    HW232389   4.375   4.263   3.922  0.0007 -0.6215 -0.7030
10153SOL     OW32390   0.710   3.829   6.940 -0.4888  0.1252 -0.0914
10153SOL    HW132391   0.738   3.884   6.866  1.1924  0.8520  1.0318
10153SOL    HW232392   0.651   3.765   6.901 -0.6302  1.2554 -1.8533
10154SOL     OW32393   2.246   6.879   2.936 -1.0254 -0.1027 -0.3671
10154SOL    HW132394   2.227   6.963   2.894  1.3318  1.4118  1.2840
10154SOL    HW232395   2.277   6.823   2.865 -0.0408  1.3778 -1.1754
10155SOL     OW32396   0.033   0.744   6.255  0.4887  0.6469 -0.0263
10155SOL    HW132397  -0.015   0.666   6.228 -0.8697  0.6079  2.2066
10155SOL    HW232398  -0.028   0.816   6.238  0.0290  0.7250  1.6872
10156SOL     OW32399   7.492   0.237   1.526 -0.2925  0.0776  0.3639
10156SOL    HW132400   7.576   0.259   1.566  0.4754 -2.7087  0.5174
10156SOL    HW232401   7.429   0.243   1.598  0.3387 -0.7578  1.0061
10157SOL     OW32402   1.775   5.707   3.879 -0.0225 -0.0538  0.4808
10157SOL    HW132403   1.752   5.768   3.950  0.1369 -0.5688  0.9841
10157SOL    HW232404   1.737   5.745   3.801 -3.1100 -1.1269  1.3415
10158SOL     OW32405   3.221   4.276   5.407 -0.6238  0.1279 -0.1201
10158SOL    HW132406   3.249   4.245   5.493 -1.6916  0.2247  0.2728
10158SOL    HW232407   3.265   4.360   5.396 -0.3208  0.0178  0.2412
10159SOL     OW32408   8.631   4.428   3.723  0.7259  0.2716  0.1152
10159SOL    HW132409   8.715   4.382   3.712  1.3998  1.6610 -0.7613
10159SOL    HW232410   8.605   4.451   3.634 -0.1458  0.6561  0.4621
10160SOL     OW32411   0.708   7.929   0.814  0.4069  0.8600  0.4677
10160SOL    HW132412   0.717   8.024   0.813  0.7608  0.8552 -1.8436
10160SOL    HW232413   0.798   7.897   0.819  0.4957  0.7005 -1.4974
10161SOL     OW32414   6.584   5.835   5.399  0.0477  0.3031  0.1230
10161SOL    HW132415   6.608   5.786   5.478 -1.4095  1.4271  1.3244
10161SOL    HW232416   6.509   5.789   5.363  0.5735 -0.0812 -0.5018
10162SOL     OW32417   6.293   4.869   7.514  0.3057 -0.5582  0.1626
10162SOL    HW132418   6.321   4.894   7.603  0.1067  2.2557 -0.4693
10162SOL    HW232419   6.202   4.897   7.509 -0.1807 -2.1422 -0.4733
10163SOL     OW32420   7.339   0.563   8.768  0.2721 -0.1909 -0.4369
10163SOL    HW132421   7.307   0.628   8.830 -0.7210 -1.3599  0.3447
10163SOL    HW232422   7.260   0.521   8.735  0.8563 -0.5022 -1.4857
10164SOL     OW32423   7.523   5.440   6.356  0.2836 -0.0899 -0.5877
10164SOL    HW132424   7.506   5.471   6.267  2.6230  0.2579 -0.9822
10164SOL    HW232425   7.456   5.373   6.371 -1.4626  1.2823 -1.7906
10165SOL     OW32426   4.489   6.868   2.893 -0.1666 -0.2019 -0.1301
10165SOL    HW132427   4.447   6.876   2.807  3.0458  1.2947 -1.7612
10165SOL    HW232428   4.468   6.950   2.937 -1.1379 -0.6214  0.2153
10166SOL     OW32429   6.126   4.086   3.569 -0.1902  0.3305 -0.1817
10166SOL    HW132430   6.162   4.149   3.507  0.8500 -0.5634 -0.5190
10166SOL    HW232431   6.101   4.011   3.516  1.1177 -0.6216  0.4909
10167SOL     OW32432   7.649   3.944   7.248  0.2888  0.0114  0.0647
10167SOL    HW132433   7.678   3.997   7.322  2.2783  0.7634 -1.1722
10167SOL    HW232434   7.729   3.904   7.214 -0.8371 -1.9150 -0.5008
10168SOL     OW32435   7.890   4.133   5.043  0.0922 -0.6799  0.0309
10168SOL    HW132436   7.969   4.079   5.034  0.1981 -0.4754 -0.2889
10168SOL    HW232437   7.876   4.139   5.138  0.9296 -0.0585  0.1358
10169SOL     OW32438   0.752   5.809   2.014 -0.4106  0.3907  0.2122
10169SOL    HW132439   0.659   5.833   2.020 -0.5742  0.0051 -0.5748
10169SOL    HW232440   0.772   5.815   1.920  0.5935  1.2801  0.4752
10170SOL     OW32441   6.209   1.540   3.518 -0.3673 -0.2092 -0.2125
10170SOL    HW132442   6.286   1.597   3.523 -0.6573  0.2196 -0.5086
10170SOL    HW232443   6.235   1.459   3.561 -0.5558  0.8111  1.9282
10171SOL     OW32444   7.331   7.404   6.827 -0.5757  0.2535  0.4074
10171SOL    HW132445   7.257   7.429   6.882 -0.5506  1.1511  0.0461
10171SOL    HW232446   7.355   7.316   6.857 -2.5784 -0.5985 -0.2807
10172SOL     OW32447   2.645   1.162   2.684 -0.2610  0.2188  0.0356
10172SOL    HW132448   2.686   1.076   2.674  0.4288  0.6003 -0.5283
10172SOL    HW232449   2.717   1.224   2.670 -0.6619  0.8817  0.8595
10173SOL     OW32450   5.784   0.622   6.212 -0.0087 -0.1846  0.3594
10173SOL    HW132451   5.783   0.717   6.212  0.8176 -0.1187 -1.7192
10173SOL    HW232452   5.876   0.598   6.217  0.1077 -0.7125 -2.4892
10174SOL     OW32453   7.051   5.936   5.056 -0.4013  0.2115  0.9207
10174SOL    HW132454   6.977   5.879   5.038 -0.3125  0.0440  1.0822
10174SOL    HW232455   7.067   5.926   5.150 -0.1578  0.2274  0.8809
10175SOL     OW32456   0.557   3.791   4.527  0.1995 -0.6093 -0.3161
10175SOL    HW132457   0.463   3.779   4.538  0.0346 -1.9318 -2.4451
10175SOL    HW232458   0.594   3.704   4.544  0.8129 -0.5536 -1.2937
10176SOL     OW32459   6.266   4.153   0.992 -0.0888 -0.8442 -0.3921
10176SOL    HW132460   6.195   4.108   0.946  0.2846 -2.1662  0.2992
10176SOL    HW232461   6.259   4.122   1.083  2.0565 -1.8650 -0.5370
10177SOL     OW32462   6.054   7.537   2.510 -0.2451 -0.1825  0.2223
10177SOL    HW132463   6.009   7.553   2.593  0.1849  1.3716  0.2009
10177SOL    HW232464   6.025   7.609   2.453  1.1995  0.0767 -0.2301
10178SOL     OW32465   3.461   5.425   6.263 -0.0476  0.3249 -0.1634
10178SOL    HW132466   3.551   5.396   6.250 -0.6252 -0.7023 -2.2757
10178SOL    HW232467   3.416   5.402   6.182 -1.8150  2.4601  0.1100
10179SOL     OW32468   5.162   8.305   1.583 -0.0837  0.0387 -0.3550
10179SOL    HW132469   5.080   8.265   1.611 -0.3583 -0.0422 -1.2497
10179SOL    HW232470   5.195   8.248   1.514  0.8742 -0.0756  0.1836
10180SOL     OW32471   5.304   2.666   4.693 -0.7113 -0.1111  0.4144
10180SOL    HW132472   5.227   2.722   4.701  0.4018  2.0789 -2.4459
10180SOL    HW232473   5.373   2.712   4.741 -0.2824 -0.0479 -0.2451
10181SOL     OW32474   5.243   0.285   6.065  0.0153 -0.3962 -0.8623
10181SOL    HW132475   5.208   0.197   6.076 -0.0220 -0.1394  1.4316
10181SOL    HW232476   5.168   0.337   6.035 -1.5857 -0.0420  3.1179
10182SOL     OW32477   2.976   3.146   6.078  0.2256 -0.3206  0.1630
10182SOL    HW132478   2.917   3.087   6.125 -0.5818 -0.2459 -0.7318
10182SOL    HW232479   2.964   3.124   5.985  1.7825 -0.4648 -0.0385
10183SOL     OW32480   4.741   7.050   0.933  0.1667 -0.1661 -0.0832
10183SOL    HW132481   4.683   7.040   0.858  0.0906  0.2060 -0.0760
10183SOL    HW232482   4.818   7.095   0.899  0.0338  0.2111  0.1036
10184SOL     OW32483   1.194   8.789   3.457  0.1956  0.3020 -0.5180
10184SOL    HW132484   1.162   8.700   3.440  0.1898  0.3754 -0.8990
10184SOL    HW232485   1.208   8.792   3.552 -0.0787 -0.0137 -0.4663
10185SOL     OW32486   2.002   1.786   5.604 -0.4143 -0.1431  0.1162
10185SOL    HW132487   2.045   1.859   5.559  1.2607 -1.2125 -0.0917
10185SOL    HW232488   2.047   1.708   5.572 -0.1223 -1.0636  2.5652
10186SOL     OW32489   6.728   7.090   7.951  0.1325  0.8825 -0.3194
10186SOL    HW132490   6.779   7.084   7.870 -2.7806 -0.8221 -2.2104
10186SOL    HW232491   6.660   7.154   7.932 -1.0096 -0.0566  0.4680
10187SOL     OW32492   4.699   6.534   4.657  0.3845 -0.3330  0.4867
10187SOL    HW132493   4.609   6.544   4.688 -0.8068 -4.0752 -1.1106
10187SOL    HW232494   4.728   6.451   4.694  2.3741 -0.2745 -0.7825
10188SOL     OW32495   0.533   5.471   3.827 -0.0254  0.4306  0.5161
10188SOL    HW132496   0.601   5.538   3.820  0.8981 -0.5676 -0.4073
10188SOL    HW232497   0.547   5.432   3.914  1.8037 -0.9872 -0.3551
10189SOL     OW32498   8.710   2.073   1.791 -0.0682 -0.5668  0.2754
10189SOL    HW132499   8.782   2.038   1.738 -1.2979 -3.4850  0.3514
10189SOL    HW232500   8.632   2.059   1.738 -0.8320  0.6669  1.0312
10190SOL     OW32501   4.981   1.881   5.535  0.3898  0.0602 -0.2362
10190SOL    HW132502   5.053   1.857   5.594 -0.7587 -2.0764  0.3946
10190SOL    HW232503   5.010   1.851   5.449  0.5614 -0.0869 -0.1282
10191SOL     OW32504   1.651   7.375   7.361  0.1566 -0.0625 -0.0180
10191SOL    HW132505   1.634   7.371   7.267  0.3269  1.6681 -0.1413
10191SOL    HW232506   1.727   7.432   7.370 -0.7953  1.0605  1.2510
10192SOL     OW32507   3.112   5.367   2.286  0.3201  0.1544 -0.0266
10192SOL    HW132508   3.081   5.278   2.300 -1.0072  0.5339 -0.3381
10192SOL    HW232509   3.076   5.417   2.359  0.9630  0.4554  0.0896
10193SOL     OW32510   7.321   3.315   1.239 -0.3276 -0.6091 -0.0767
10193SOL    HW132511   7.339   3.405   1.213 -0.3314 -0.1038  1.5635
10193SOL    HW232512   7.243   3.321   1.295 -1.6749 -1.9236 -1.6858
10194SOL     OW32513   4.382   6.037   0.421 -0.3809 -0.2242 -0.2240
10194SOL    HW132514   4.413   6.111   0.473  1.2972 -0.3113 -1.0109
10194SOL    HW232515   4.307   6.071   0.372  1.4186  1.6095 -1.9630
10195SOL     OW32516   7.656   6.259   1.128  0.8229  0.6546  0.0932
10195SOL    HW132517   7.657   6.256   1.224 -2.3280 -1.1647  0.1910
10195SOL    HW232518   7.569   6.292   1.106  0.0442 -2.4872 -2.0704
10196SOL     OW32519   6.326   4.459   8.113 -0.4004  0.1464  0.2401
10196SOL    HW132520   6.318   4.417   8.027 -2.8217  1.4675 -0.2925
10196SOL    HW232521   6.301   4.392   8.176 -1.6376  0.0088 -0.3723
10197SOL     OW32522   4.195   3.898   8.804 -0.2280  0.2053  0.0140
10197SOL    HW132523   4.212   3.908   8.897  1.0199 -0.6137 -0.1154
10197SOL    HW232524   4.269   3.941   8.761 -0.4323 -0.0384 -0.5956
10198SOL     OW32525   3.559   4.030   3.635  0.0533  0.5650 -0.2154
10198SOL    HW132526   3.606   3.975   3.572  0.2255 -0.2302  0.5858
10198SOL    HW232527   3.516   4.097   3.581 -0.9978 -0.9285 -1.3361
10199SOL     OW32528   0.059   1.677   4.081  0.6809 -0.3947 -0.5043
10199SOL    HW132529   0.107   1.595   4.089  0.9619 -0.1316  0.8718
10199SOL    HW232530   0.003   1.680   4.159  0.5381  0.6198 -0.6223
10200SOL     OW32531   5.977   0.271   2.548  0.2452 -0.3344  0.1413
10200SOL    HW132532   5.910   0.247   2.612  1.1346 -1.1700  0.7877
10200SOL    HW232533   5.956   0.219   2.471  0.4311 -0.9693  0.5144
10201SOL     OW32534   8.329   2.593   4.856  0.0912 -0.1729  0.1026
10201SOL    HW132535   8.379   2.664   4.897  0.0525 -0.6135  0.9452
10201SOL    HW232536   8.339   2.607   4.762 -0.4915  1.3448  0.2473
10202SOL     OW32537   4.287   3.666   0.414  0.5006 -0.2933 -0.0309
10202SOL    HW132538   4.254   3.750   0.445  0.7385 -0.7597  1.5537
10202SOL    HW232539   4.368   3.688   0.366 -1.2735  0.7128 -2.7969
10203SOL     OW32540   5.812   5.430   7.111  0.5506 -0.1997  0.3096
10203SOL    HW132541   5.831   5.390   7.026  0.8430 -0.2452  0.3942
10203SOL    HW232542   5.738   5.488   7.094 -0.5024 -1.4826  0.3804
10204SOL     OW32543   7.968   8.012   8.119 -0.4592  0.3768  0.1469
10204SOL    HW132544   7.950   7.972   8.034  2.6844  0.7774 -0.8223
10204SOL    HW232545   7.911   8.089   8.121 -2.3799 -0.9456 -0.4389
10205SOL     OW32546   0.102   2.914   1.182 -0.1839  0.3502  0.4359
10205SOL    HW132547   0.052   2.994   1.199  1.2375  1.6764 -1.2475
10205SOL    HW232548   0.187   2.929   1.223 -0.7451 -1.5121  2.5016
10206SOL     OW32549   1.922   1.890   4.528 -0.2836 -0.3278 -0.5417
10206SOL    HW132550   1.958   1.867   4.443  2.7800 -1.0915  0.8330
10206SOL    HW232551   1.955   1.978   4.546 -2.2463  0.5027 -0.7572
10207SOL     OW32552   5.814   6.662   7.156  0.5012 -0.3542 -0.1385
10207SOL    HW132553   5.797   6.701   7.070  0.9400  0.9821  0.3453
10207SOL    HW232554   5.886   6.601   7.141 -0.8682 -1.8010 -1.1077
10208SOL     OW32555   1.496   5.698   6.472  0.0906  0.7415  0.0544
10208SOL    HW132556   1.561   5.665   6.410 -0.8995 -1.1744 -0.0560
10208SOL    HW232557   1.455   5.771   6.427  1.7937  1.6818 -0.0639
10209SOL     OW32558   2.585   8.579   6.532  0.1584  0.0412  0.2249
10209SOL    HW132559   2.491   8.579   6.550  0.1734 -1.4867  0.4042
10209SOL    HW232560   2.593   8.542   6.445  0.5758  0.5927  0.0217
10210SOL     OW32561   4.750   0.008   5.995  0.0179  0.1852 -0.7102
10210SOL    HW132562   4.670  -0.023   6.038 -0.1961  1.5983 -0.0239
10210SOL    HW232563   4.811  -0.066   6.001 -1.5258 -1.2708 -2.1163
10211SOL     OW32564   0.899   1.584   3.925 -0.2599 -0.0677  0.3111
10211SOL    HW132565   0.825   1.637   3.898 -1.3567 -1.7841 -0.2696
10211SOL    HW232566   0.915   1.526   3.850 -1.7359 -3.2643  2.2434
10212SOL     OW32567   2.497   8.452   2.558 -0.1840  0.0096 -0.0467
10212SOL    HW132568   2.414   8.500   2.569 -0.7654 -0.4190 -2.1650
10212SOL    HW232569   2.533   8.486   2.476  1.6862  0.0506  0.7470
10213SOL     OW32570   4.691   0.522   4.713  0.0840  0.5673  0.4735
10213SOL    HW132571   4.696   0.428   4.727 -0.9795  0.0173 -2.2212
10213SOL    HW232572   4.599   0.539   4.694  0.1678  2.2681  1.3158
10214SOL     OW32573   7.327   6.349   8.411  0.1649  0.3216  0.2623
10214SOL    HW132574   7.249   6.325   8.462  0.7988  0.1417  1.1740
10214SOL    HW232575   7.388   6.384   8.476  1.2756 -0.5831 -0.2612
10215SOL     OW32576   2.794   4.916   3.853 -0.1192  0.2229 -0.1534
10215SOL    HW132577   2.834   4.850   3.910  0.0200  1.4560  1.2495
10215SOL    HW232578   2.866   4.945   3.797 -0.0299 -0.3556 -0.3535
10216SOL     OW32579   0.426   7.352   5.381  0.5250 -0.3430 -0.1323
10216SOL    HW132580   0.384   7.283   5.329 -0.0889  1.5759 -2.3157
10216SOL    HW232581   0.520   7.338   5.370  0.5145 -2.2732  1.5434
10217SOL     OW32582   6.072   7.132   1.999  0.0166  0.5853 -0.7347
10217SOL    HW132583   6.081   7.101   2.089 -0.7689 -1.9599 -1.4440
10217SOL    HW232584   5.979   7.126   1.981  0.1465  1.2583 -1.6601
10218SOL     OW32585   1.846   8.739   0.491 -0.1085  0.0434  0.3849
10218SOL    HW132586   1.881   8.721   0.578  0.4389 -1.2476 -0.0784
10218SOL    HW232587   1.910   8.796   0.450  0.5452 -0.7905  0.2142
10219SOL     OW32588   6.800   1.749   3.432  0.1646  0.0680 -0.1505
10219SOL    HW132589   6.744   1.826   3.426  1.1140  0.7357 -0.9184
10219SOL    HW232590   6.889   1.785   3.430  0.6286 -1.0730 -0.9531
10220SOL     OW32591   6.161   8.549   1.555  0.6168 -0.4937 -0.3286
10220SOL    HW132592   6.172   8.618   1.489  0.5548 -0.1602  0.0032
10220SOL    HW232593   6.071   8.560   1.586  1.2616  0.7252  1.3067
10221SOL     OW32594   7.168   0.026   3.964  0.2106 -0.1086 -0.0587
10221SOL    HW132595   7.210   0.077   3.895 -0.0357 -0.1811 -0.2632
10221SOL    HW232596   7.228   0.032   4.038  0.7757 -0.5505 -0.4756
10222SOL     OW32597   3.366   4.282   3.269  0.1979 -0.3687 -0.4420
10222SOL    HW132598   3.355   4.190   3.248 -0.8102 -0.1679 -0.8871
10222SOL    HW232599   3.340   4.329   3.189  3.2048  0.2811 -1.1491
10223SOL     OW32600   7.009   0.115   2.471 -0.8561  0.6421  0.3231
10223SOL    HW132601   7.014   0.050   2.540 -0.4704  3.1589  2.8226
10223SOL    HW232602   7.052   0.074   2.396  0.0095 -1.6756  1.9901
10224SOL     OW32603   5.980   3.652   7.806 -0.0383  0.3910  0.2254
10224SOL    HW132604   6.025   3.728   7.840 -1.0625  0.6813  1.0037
10224SOL    HW232605   5.892   3.658   7.843 -0.8360  0.0371 -1.4938
10225SOL     OW32606   0.205   0.252   6.649  0.4675 -0.5255 -0.4410
10225SOL    HW132607   0.196   0.188   6.721  1.9291 -0.1005  0.1505
10225SOL    HW232608   0.182   0.202   6.570 -0.6790 -1.1378  0.2495
10226SOL     OW32609   3.659   3.208   2.115  0.9508  0.0182  0.5964
10226SOL    HW132610   3.600   3.157   2.170  0.8633  1.5756  2.0448
10226SOL    HW232611   3.609   3.287   2.094  1.4837  0.0541 -0.6356
10227SOL     OW32612   4.972   6.266   6.622  0.4514 -0.0661 -0.0496
10227SOL    HW132613   4.984   6.172   6.607  2.0210  0.2509 -1.0265
10227SOL    HW232614   5.019   6.283   6.704  0.1272 -0.1451  0.1516
10228SOL     OW32615   2.861   6.928   2.820  0.0049 -0.2251 -0.1867
10228SOL    HW132616   2.909   6.998   2.867 -0.8797 -0.9146  1.8728
10228SOL    HW232617   2.786   6.972   2.781  1.4415  0.6022 -2.2097
10229SOL     OW32618   6.981   2.483   6.802 -0.0470  0.5992  0.1060
10229SOL    HW132619   6.988   2.568   6.845  0.9570 -0.1080  1.4306
10229SOL    HW232620   6.918   2.435   6.855  0.1497  0.1802 -0.0340
10230SOL     OW32621   1.561   0.591   5.501  0.2995  0.5138  0.1829
10230SOL    HW132622   1.625   0.654   5.534  0.3651 -0.5255  2.1813
10230SOL    HW232623   1.519   0.556   5.580 -2.0665  0.4625 -1.0282
10231SOL     OW32624   0.104   3.814   4.936  0.1703  0.2453  0.2165
10231SOL    HW132625   0.168   3.880   4.909 -0.9066  1.4547  0.5307
10231SOL    HW232626   0.116   3.743   4.873  2.8324 -0.2620  1.1525
10232SOL     OW32627   1.374   5.661   1.962 -0.0272  0.1684  0.6608
10232SOL    HW132628   1.310   5.605   1.918 -1.5448  2.5890 -0.4114
10232SOL    HW232629   1.329   5.693   2.040 -0.1666  1.8244 -0.0539
10233SOL     OW32630   3.705   2.859   6.743  0.4378 -0.3166 -0.0949
10233SOL    HW132631   3.741   2.936   6.699  0.2402 -1.1227 -1.7355
10233SOL    HW232632   3.625   2.891   6.785  0.7620  0.5327 -0.1061
10234SOL     OW32633   8.221   0.671   1.290 -0.0925 -0.2830  0.1942
10234SOL    HW132634   8.208   0.576   1.286 -0.0290 -0.3006  0.4106
10234SOL    HW232635   8.254   0.687   1.378  1.0448 -0.2093 -0.2241
10235SOL     OW32636   1.997   8.418   6.565 -0.1557  0.7015  0.3765
10235SOL    HW132637   2.042   8.413   6.649 -0.6281  1.7228  0.7104
10235SOL    HW232638   1.915   8.370   6.579 -0.7407  1.8082  0.8629
10236SOL     OW32639   3.196   1.354   1.228  0.0135  0.2955 -0.5188
10236SOL    HW132640   3.145   1.430   1.254  1.2146  1.5901 -1.7997
10236SOL    HW232641   3.283   1.370   1.264  0.0459 -0.9667  0.0203
10237SOL     OW32642   1.806   0.922   8.611  0.1914  0.2708  0.3855
10237SOL    HW132643   1.738   0.990   8.617  1.2004  1.2703  0.7881
10237SOL    HW232644   1.846   0.936   8.526 -0.9806 -1.2069 -0.4594
10238SOL     OW32645   3.628   5.594   1.473  0.8500 -0.0112 -0.4058
10238SOL    HW132646   3.664   5.537   1.404  0.4450 -0.0361 -0.6008
10238SOL    HW232647   3.586   5.534   1.534  0.9939  0.0297 -0.2672
10239SOL     OW32648   8.822   7.600   1.672 -0.4317  0.0861  0.3721
10239SOL    HW132649   8.901   7.640   1.636 -0.2665  0.0880  0.7387
10239SOL    HW232650   8.816   7.635   1.761 -0.9028  0.1729  0.3108
10240SOL     OW32651   2.708   4.504   7.638  0.6227 -0.1847  0.4568
10240SOL    HW132652   2.614   4.521   7.625  0.6033 -0.7017 -0.0889
10240SOL    HW232653   2.733   4.448   7.565  1.2411 -0.4980  0.9007
10241SOL     OW32654   0.308   4.532   7.540  0.5518 -0.0938  0.2660
10241SOL    HW132655   0.248   4.459   7.552  0.5876 -0.0889  0.4748
10241SOL    HW232656   0.325   4.534   7.446  0.8849 -0.6161  0.3166
10242SOL     OW32657   7.527   0.582   7.896  0.1241  0.0715  0.3939
10242SOL    HW132658   7.604   0.535   7.864  1.3488  2.4247 -0.3268
10242SOL    HW232659   7.453   0.538   7.854  1.2938 -0.4323 -1.2525
10243SOL     OW32660   4.513   4.466   1.982  0.7496  0.0580 -0.1432
10243SOL    HW132661   4.500   4.390   1.924  2.0516 -0.4526  0.1860
10243SOL    HW232662   4.523   4.427   2.069 -0.0644  0.7405  0.2678
10244SOL     OW32663   8.021   2.296   8.808  0.0299  0.3518 -0.2761
10244SOL    HW132664   7.952   2.362   8.802 -0.6095 -0.0938  1.4151
10244SOL    HW232665   8.080   2.316   8.736 -0.6980  2.1164 -0.4389
10245SOL     OW32666   0.412   3.694   7.490 -0.3652 -0.6645 -0.4170
10245SOL    HW132667   0.387   3.685   7.582  0.2069 -0.8236 -0.2733
10245SOL    HW232668   0.370   3.620   7.447 -0.4065 -0.7496 -0.2333
10246SOL     OW32669   5.848   6.526   1.920  0.0939 -0.2381  0.0040
10246SOL    HW132670   5.784   6.551   1.853  0.2952 -0.1600 -0.1615
10246SOL    HW232671   5.817   6.442   1.953  0.7202 -0.9567 -1.1446
10247SOL     OW32672   3.264   7.413   4.402  0.0527  0.3006  0.4683
10247SOL    HW132673   3.227   7.368   4.478  2.0665 -1.1774  0.6475
10247SOL    HW232674   3.261   7.506   4.426  0.6343 -0.1230  2.3903
10248SOL     OW32675   7.597   2.605   7.614  0.4265 -0.2808  0.1506
10248SOL    HW132676   7.611   2.511   7.598  2.2348  0.0192 -0.1651
10248SOL    HW232677   7.506   2.619   7.590 -0.5105 -2.3430  2.0613
10249SOL     OW32678   2.210   8.826   3.353  0.2204  0.2162 -0.0150
10249SOL    HW132679   2.195   8.894   3.419 -0.9117  1.5748 -1.5829
10249SOL    HW232680   2.305   8.822   3.343  0.3557  3.7122 -1.8835
10250SOL     OW32681   1.202   0.003   6.639  0.1361  0.5220  0.7289
10250SOL    HW132682   1.267   0.072   6.625 -0.9843  1.4842 -0.0296
10250SOL    HW232683   1.228  -0.039   6.720  2.4252  0.0173 -0.1871
10251SOL     OW32684   2.542   2.462   1.045  0.0054 -0.0356  0.4324
10251SOL    HW132685   2.549   2.517   0.967  1.2927 -0.3472  0.3123
10251SOL    HW232686   2.475   2.505   1.098  0.4618  1.2487  0.0121
10252SOL     OW32687   3.843   2.487   4.117  0.1588 -0.9639  0.5818
10252SOL    HW132688   3.908   2.479   4.186  0.9475 -0.3187 -0.0707
10252SOL    HW232689   3.893   2.488   4.036 -0.5137  1.0536  0.1300
10253SOL     OW32690   3.300   1.703   2.502  0.1607  0.1298  0.3012
10253SOL    HW132691   3.326   1.614   2.523 -0.9464 -0.4937 -0.8206
10253SOL    HW232692   3.375   1.739   2.454 -0.4216 -1.1740 -1.7041
10254SOL     OW32693   5.000   2.758   4.576  0.5271 -0.4929  0.5251
10254SOL    HW132694   4.960   2.790   4.495  1.8894 -0.5455 -0.2001
10254SOL    HW232695   4.962   2.672   4.591  0.4675 -0.5951 -0.2185
10255SOL     OW32696   3.678   6.201   5.076 -0.1186 -0.3907 -0.0130
10255SOL    HW132697   3.725   6.154   5.146  2.4458  1.2562 -0.4829
10255SOL    HW232698   3.637   6.275   5.121 -0.7859 -0.8425  0.1326
10256SOL     OW32699   0.216   1.491   4.197  0.1682 -0.2042 -0.4266
10256SOL    HW132700   0.258   1.569   4.233  0.1537 -0.3466 -0.0909
10256SOL    HW232701   0.240   1.421   4.258  0.4052 -0.5169 -0.8716
10257SOL     OW32702   0.215   3.665   8.200 -0.0497  0.2949  0.5158
10257SOL    HW132703   0.146   3.719   8.161 -0.3506 -0.3104  0.2061
10257SOL    HW232704   0.253   3.618   8.126 -0.2242 -0.4073  0.8661
10258SOL     OW32705   4.179   6.853   6.501  0.2449 -0.6069 -0.6184
10258SOL    HW132706   4.135   6.813   6.425  0.9555 -2.8443  0.0731
10258SOL    HW232707   4.243   6.787   6.529  0.5137  0.4761  1.4841
10259SOL     OW32708   0.398   0.424   4.805  0.1087 -1.1187  0.9592
10259SOL    HW132709   0.305   0.409   4.824 -0.1265 -1.3383 -0.2348
10259SOL    HW232710   0.427   0.484   4.874 -0.5126 -2.2456  2.2532
10260SOL     OW32711   6.000   6.805   0.638  0.4101 -0.2049 -0.3504
10260SOL    HW132712   5.971   6.748   0.567  2.5776  0.1859 -1.6490
10260SOL    HW232713   6.034   6.746   0.705  2.0797 -0.5139 -1.4257
10261SOL     OW32714   3.249   2.250   6.460  0.1069  0.0808  0.4213
10261SOL    HW132715   3.336   2.264   6.495  0.2187  0.3752  0.0403
10261SOL    HW232716   3.190   2.272   6.532  0.2758  2.4264 -0.0474
10262SOL     OW32717   2.517   4.872   2.915  0.2833  0.4003  0.1101
10262SOL    HW132718   2.501   4.834   3.001  0.2086 -2.8354 -1.1879
10262SOL    HW232719   2.486   4.962   2.922 -0.0145  0.1603  3.3249
10263SOL     OW32720   1.839   6.619   6.991  0.3265  0.0755  0.1864
10263SOL    HW132721   1.898   6.550   6.960  2.5424  0.0885  3.7757
10263SOL    HW232722   1.895   6.695   7.004 -1.0054  0.9495  1.1527
10264SOL     OW32723   1.554   1.397   3.176  0.5975 -1.0920  0.3272
10264SOL    HW132724   1.642   1.415   3.209  0.3271 -0.5372  0.7593
10264SOL    HW232725   1.496   1.416   3.249 -0.0501  0.5735 -0.5394
10265SOL     OW32726   6.606   4.142   1.256 -0.4088 -0.8401 -0.1106
10265SOL    HW132727   6.660   4.215   1.226 -1.1626 -0.1406  0.1963
10265SOL    HW232728   6.619   4.074   1.191  0.9415 -0.7400  0.0226
10266SOL     OW32729   5.267   2.308   3.724 -0.3195  0.1309  0.0503
10266SOL    HW132730   5.248   2.364   3.799  0.8764  0.4007  0.1698
10266SOL    HW232731   5.182   2.273   3.698 -0.7797  0.1528  1.4351
10267SOL     OW32732   0.706   7.816   7.470  0.4574 -0.4951 -0.5515
10267SOL    HW132733   0.794   7.815   7.509  0.3244 -0.1636 -0.2373
10267SOL    HW232734   0.651   7.858   7.536 -0.4021 -2.6599  0.2112
10268SOL     OW32735   3.650   8.679   6.133  0.2584 -0.3188 -0.4489
10268SOL    HW132736   3.705   8.673   6.054 -1.9950  0.1105 -2.1539
10268SOL    HW232737   3.708   8.653   6.204  2.2948 -1.1609 -2.2874
10269SOL     OW32738   1.336   4.665   7.658  0.2149  0.0184  0.4286
10269SOL    HW132739   1.330   4.652   7.753  0.1000  0.7160  0.5212
10269SOL    HW232740   1.299   4.585   7.621  1.0205 -0.6216  0.9604
10270SOL     OW32741   6.198   5.425   4.403 -0.3207 -0.4634  0.2667
10270SOL    HW132742   6.115   5.377   4.403 -0.3982 -0.3349 -0.2831
10270SOL    HW232743   6.226   5.425   4.312  0.3930 -0.6837  0.4784
10271SOL     OW32744   5.677   1.195   0.851  0.4378  0.0651 -0.0493
10271SOL    HW132745   5.702   1.285   0.874  1.5830  0.1182 -1.3928
10271SOL    HW232746   5.731   1.140   0.907 -0.2682  0.1909  0.7788
10272SOL     OW32747   0.365   2.022   8.577  0.7161 -0.0883 -0.0358
10272SOL    HW132748   0.425   1.986   8.643  0.1582 -2.0561 -0.5269
10272SOL    HW232749   0.349   1.949   8.518 -0.4616  1.0391 -1.1637
10273SOL     OW32750   2.712   5.740   7.899  0.7011 -0.1162 -0.0654
10273SOL    HW132751   2.661   5.821   7.895  0.8828 -0.0617 -3.0037
10273SOL    HW232752   2.648   5.671   7.880  1.1992 -0.2980 -1.1201
10274SOL     OW32753   7.966   4.086   7.574 -0.0609 -0.4490 -0.5351
10274SOL    HW132754   7.906   4.020   7.540 -1.5775  0.3800  0.4695
10274SOL    HW232755   7.919   4.127   7.646  1.3599  0.8563 -0.3039
10275SOL     OW32756   3.596   5.942   7.030  0.1555 -0.0019 -0.0036
10275SOL    HW132757   3.679   5.896   7.013 -0.5343 -1.6952  0.9144
10275SOL    HW232758   3.620   6.034   7.033  2.2262 -0.5108  1.2806
10276SOL     OW32759   3.579   6.646   5.764  0.1554 -0.5795 -0.5275
10276SOL    HW132760   3.657   6.637   5.819  1.5953 -0.5430 -2.4538
10276SOL    HW232761   3.515   6.587   5.803  0.6122  0.4160  1.9274
10277SOL     OW32762   2.553   6.670   3.265 -0.0740 -0.1732 -0.0423
10277SOL    HW132763   2.631   6.720   3.244  0.2687 -1.0345 -0.8804
10277SOL    HW232764   2.481   6.732   3.256  0.4021  0.3319 -0.4084
10278SOL     OW32765   6.752   5.501   7.789 -0.4467  0.1748 -0.5530
10278SOL    HW132766   6.791   5.520   7.703 -1.2362 -0.5551 -1.0895
10278SOL    HW232767   6.810   5.435   7.827  0.1962  0.8713 -0.2844
10279SOL     OW32768   1.319   8.359   7.492 -0.2313  0.0725 -0.0734
10279SOL    HW132769   1.312   8.376   7.586 -0.1395  0.4002 -0.1270
10279SOL    HW232770   1.241   8.306   7.472 -0.3132  0.1017  0.1623
10280SOL     OW32771   5.624   0.383   3.157  0.3288  0.0262 -0.3395
10280SOL    HW132772   5.588   0.438   3.088  0.8929  0.3753 -0.3639
10280SOL    HW232773   5.712   0.417   3.171  0.0058  0.3819  0.9944
10281SOL     OW32774   3.820   8.832   6.512  0.0414 -0.0241 -0.6868
10281SOL    HW132775   3.912   8.819   6.490  0.2225  1.3187 -0.8127
10281SOL    HW232776   3.819   8.844   6.607 -0.0721 -0.5319 -0.6210
10282SOL     OW32777   5.108   0.881   4.595 -0.7550 -0.2054  0.4249
10282SOL    HW132778   5.154   0.844   4.519 -0.1722  0.7954  0.2579
10282SOL    HW232779   5.162   0.957   4.620 -0.3313 -1.1318  2.5362
10283SOL     OW32780   3.633   0.409   3.065 -0.2264  0.5486 -0.3708
10283SOL    HW132781   3.724   0.436   3.052 -0.5722  0.7708 -2.6732
10283SOL    HW232782   3.617   0.424   3.158  2.0095  0.7170  0.0491
10284SOL     OW32783   4.258   0.938   0.797  0.2849 -0.4318 -0.1878
10284SOL    HW132784   4.201   1.000   0.752  0.5802 -0.0712 -0.0658
10284SOL    HW232785   4.344   0.980   0.798  0.3890 -0.6482  0.2850
10285SOL     OW32786   0.488   2.752   7.659 -0.4048  0.0805  0.0985
10285SOL    HW132787   0.521   2.816   7.596 -0.7778  0.2050  0.0264
10285SOL    HW232788   0.460   2.804   7.734 -0.0310 -0.0620  0.3376
10286SOL     OW32789   6.562   3.488   2.310 -0.6267  0.1637 -0.6906
10286SOL    HW132790   6.627   3.469   2.243 -0.8202  1.9457 -1.4190
10286SOL    HW232791   6.494   3.421   2.298 -0.1822 -0.1280 -1.6311
10287SOL     OW32792   4.608   0.796   7.225  0.1727  0.2296  0.0649
10287SOL    HW132793   4.596   0.863   7.157 -0.7722  0.9943  0.9564
10287SOL    HW232794   4.558   0.828   7.300 -1.2819 -2.0561  0.1532
10288SOL     OW32795   1.682   4.498   4.284  0.3071  0.6551 -0.5911
10288SOL    HW132796   1.619   4.544   4.228 -0.9158  0.8172  0.8523
10288SOL    HW232797   1.669   4.405   4.263 -0.4723  0.6835 -0.2674
10289SOL     OW32798   7.126   2.838   3.955  0.3836  0.0829  0.2391
10289SOL    HW132799   7.099   2.765   3.899  0.3577 -0.2422  0.6653
10289SOL    HW232800   7.216   2.816   3.980  0.5584  0.4593 -0.0463
10290SOL     OW32801   5.533   7.385   7.077  0.4740 -0.2458  0.2546
10290SOL    HW132802   5.514   7.470   7.117  0.9223  0.3644 -0.7977
10290SOL    HW232803   5.461   7.329   7.106  0.6215  0.2470  1.6553
10291SOL     OW32804   8.853   4.935   6.885  0.4507  0.0445 -0.3893
10291SOL    HW132805   8.879   5.021   6.920 -0.6928  0.0646  0.4949
10291SOL    HW232806   8.892   4.872   6.945 -1.9803  0.0913  1.4166
10292SOL     OW32807   3.927   5.703   0.144 -0.1351  0.1088  0.1657
10292SOL    HW132808   3.891   5.750   0.069 -0.9945  0.9607  1.0805
10292SOL    HW232809   3.851   5.687   0.201  0.2751 -1.6621  0.2675
10293SOL     OW32810   6.173   6.192   6.454  0.6513  0.1311 -0.3997
10293SOL    HW132811   6.215   6.196   6.540  0.9179  0.7926 -0.5594
10293SOL    HW232812   6.243   6.164   6.394 -0.1763 -3.2491  0.0179
10294SOL     OW32813   0.005   8.324   7.555 -0.1663  0.1114  0.2238
10294SOL    HW132814   0.076   8.274   7.595  0.2902  0.0782 -0.6108
10294SOL    HW232815  -0.053   8.257   7.517 -0.8492  0.1187  1.1994
10295SOL     OW32816   8.013   6.917   1.675 -0.3690  0.9239  0.6329
10295SOL    HW132817   7.953   6.865   1.621  0.6214  0.0999  0.2842
10295SOL    HW232818   7.957   6.956   1.742 -1.4540  1.0560 -0.3140
10296SOL     OW32819   7.182   0.252   4.711  0.1680  0.4641  0.1953
10296SOL    HW132820   7.210   0.201   4.635 -0.2940  1.0679 -0.3803
10296SOL    HW232821   7.110   0.201   4.748 -0.0408  0.5030 -0.1550
10297SOL     OW32822   3.078   2.070   8.113  0.4803  0.1623  0.3359
10297SOL    HW132823   3.032   2.145   8.078 -3.4209 -2.2618 -0.3386
10297SOL    HW232824   3.050   2.065   8.205  0.7084 -0.4259  0.3835
10298SOL     OW32825   5.877   3.027   4.582 -0.3063  0.1100 -0.2948
10298SOL    HW132826   5.800   2.972   4.595  0.1328 -0.0351  2.1598
10298SOL    HW232827   5.843   3.108   4.545 -1.5322 -0.2110  0.0918
10299SOL     OW32828   7.128   6.776   6.572 -1.0921  0.2129  0.3417
10299SOL    HW132829   7.222   6.773   6.589 -0.8869  2.3897 -0.1427
10299SOL    HW232830   7.121   6.788   6.477 -1.7983  1.6335  0.5543
10300SOL     OW32831   0.753   8.282   6.100 -0.0345 -0.1603 -0.0017
10300SOL    HW132832   0.678   8.299   6.044 -0.3809 -0.4511  0.3682
10300SOL    HW232833   0.782   8.369   6.128  0.3806  0.0094 -0.9298
10301SOL     OW32834   2.877   0.958   5.080 -0.4702 -0.4475  0.3543
10301SOL    HW132835   2.825   0.912   5.146 -0.3631 -0.3538  0.5057
10301SOL    HW232836   2.814   1.013   5.034 -0.0726  2.0837  2.5829
10302SOL     OW32837   4.614   6.287   0.071 -0.6347 -0.4454  0.3472
10302SOL    HW132838   4.643   6.267   0.160 -0.4654 -1.3952  0.0868
10302SOL    HW232839   4.621   6.204   0.024 -0.7109  0.0472 -0.5595
10303SOL     OW32840   1.830   7.533   4.295 -0.0033 -0.3212 -0.3448
10303SOL    HW132841   1.878   7.502   4.372  0.3047 -1.4722 -0.9762
10303SOL    HW232842   1.751   7.574   4.330  1.4532  1.7883  0.7366
10304SOL     OW32843   4.866   7.810   4.132  0.2530  0.0550 -0.0160
10304SOL    HW132844   4.778   7.777   4.151  0.3928 -1.1794 -1.3666
10304SOL    HW232845   4.886   7.867   4.207 -1.3285 -0.3276  0.7553
10305SOL     OW32846   4.595   4.085   4.511  0.4310  0.1761  0.9878
10305SOL    HW132847   4.623   4.152   4.574  0.3434  0.3271  0.8667
10305SOL    HW232848   4.500   4.085   4.517  0.3661  0.9092  0.1234
10306SOL     OW32849   3.183   8.699   6.608  0.1733 -0.6200 -0.8234
10306SOL    HW132850   3.193   8.672   6.517  0.8926 -1.5128 -0.4915
10306SOL    HW232851   3.121   8.772   6.605  1.0957  0.1543 -2.1618
10307SOL     OW32852   4.554   1.114   2.524  0.1105  0.2484  0.0965
10307SOL    HW132853   4.493   1.082   2.458  0.0925  0.8583 -0.1916
10307SOL    HW232854   4.540   1.057   2.599  0.7469 -1.0255 -0.7059
10308SOL     OW32855   8.394   7.354   2.162 -0.1262 -0.6742 -0.5987
10308SOL    HW132856   8.459   7.375   2.096 -0.6366  0.7746 -0.6771
10308SOL    HW232857   8.426   7.397   2.242 -0.7809 -0.2843 -0.5416
10309SOL     OW32858   7.308   2.935   5.476 -0.4299  0.0331  0.3113
10309SOL    HW132859   7.319   2.873   5.404  1.5106 -0.8521  1.2910
10309SOL    HW232860   7.278   2.882   5.549 -1.0611  0.6916  0.5449
10310SOL     OW32861   7.637   4.047   0.660 -0.2914  0.0034  0.0610
10310SOL    HW132862   7.638   4.009   0.748 -0.6744  0.0758  0.0957
10310SOL    HW232863   7.554   4.018   0.623  0.2386 -0.7297 -0.5838
10311SOL     OW32864   8.666   2.921   5.965 -0.5076  0.1940  0.3248
10311SOL    HW132865   8.676   2.832   5.932 -1.2595 -0.5799  2.0422
10311SOL    HW232866   8.748   2.939   6.011 -0.8201 -0.0777  0.9934
10312SOL     OW32867   1.809   4.184   7.658  0.4447 -0.2495  0.2016
10312SOL    HW132868   1.742   4.128   7.696 -0.2839  0.1750 -0.4227
10312SOL    HW232869   1.814   4.157   7.566  0.0468  0.7242 -0.1197
10313SOL     OW32870   5.070   8.575   6.433 -0.0351 -0.3264  0.0781
10313SOL    HW132871   5.121   8.506   6.474  0.5259  0.2204  0.3150
10313SOL    HW232872   4.999   8.593   6.495 -0.2822 -0.8006 -0.0634
10314SOL     OW32873   6.059   5.684   0.493 -0.0670  0.1201 -0.3239
10314SOL    HW132874   5.995   5.659   0.426 -0.4157  1.0261 -0.3487
10314SOL    HW232875   6.072   5.605   0.545 -0.0638 -0.5011 -1.2339
10315SOL     OW32876   4.050   2.495   3.563 -0.7069 -1.1042  0.3760
10315SOL    HW132877   4.003   2.545   3.496 -0.2460  1.3670  1.7770
10315SOL    HW232878   4.089   2.422   3.514 -0.0715  0.7844 -2.1780
10316SOL     OW32879   3.975   2.477   3.815  0.1662  0.3745 -0.0455
10316SOL    HW132880   4.042   2.522   3.866  1.4213 -1.2528 -0.1544
10316SOL    HW232881   4.002   2.488   3.724  0.7949 -0.9793 -0.0489
10317SOL     OW32882   1.727   0.400   0.683  0.0158 -0.3994  0.5699
10317SOL    HW132883   1.676   0.469   0.725 -0.2890  0.9446 -1.8234
10317SOL    HW232884   1.788   0.446   0.625  0.6805 -2.1142 -0.1769
10318SOL     OW32885   0.770   8.438   4.783  0.3358 -0.2050 -0.0497
10318SOL    HW132886   0.733   8.510   4.832  0.2982 -0.4485  0.2808
10318SOL    HW232887   0.857   8.469   4.756  0.4950 -0.1997  0.4654
10319SOL     OW32888   6.796   1.979   0.943 -0.3733  0.0864  0.3795
10319SOL    HW132889   6.763   2.044   1.005  1.0298 -1.2322  2.6987
10319SOL    HW232890   6.739   1.903   0.955 -2.2385  0.8636 -2.5808
10320SOL     OW32891   5.652   6.223   8.583 -0.1604  0.1065 -0.3347
10320SOL    HW132892   5.688   6.142   8.619 -1.4570 -0.8498 -1.1274
10320SOL    HW232893   5.566   6.232   8.623 -0.3537  0.6762 -0.8587
10321SOL     OW32894   6.717   4.191   6.953  0.8198 -0.5091 -0.0283
10321SOL    HW132895   6.699   4.162   7.042 -0.0328  3.1264  1.1409
10321SOL    HW232896   6.634   4.226   6.921  0.7707 -2.7986 -2.8387
10322SOL     OW32897   7.547   5.919   0.048  0.1217  0.0465 -0.3273
10322SOL    HW132898   7.605   5.856   0.090 -0.8145 -0.6991 -0.1055
10322SOL    HW232899   7.602   5.996   0.032  1.2838 -0.8038 -0.5768
10323SOL     OW32900   2.703   4.619   4.963  0.1942 -0.4403 -0.6077
10323SOL    HW132901   2.764   4.585   4.897 -1.1885  0.0235 -2.1872
10323SOL    HW232902   2.740   4.590   5.046  3.7548  1.5880 -1.2870
10324SOL     OW32903   1.079   4.569   6.007  0.1827  0.1693 -0.5832
10324SOL    HW132904   1.024   4.628   5.955 -0.2549  0.3681  0.0924
10324SOL    HW232905   1.020   4.500   6.037  0.4539 -0.0091 -0.4511
10325SOL     OW32906   2.234   4.024   3.439 -0.0671 -0.5156  0.2025
10325SOL    HW132907   2.275   3.979   3.365  0.4663  0.3366 -0.0307
10325SOL    HW232908   2.151   4.056   3.406 -0.6099 -1.5956  0.4642
10326SOL     OW32909   4.475   7.529   0.743  1.0121 -0.0084  0.7818
10326SOL    HW132910   4.425   7.574   0.812  0.0502  1.1173 -0.5937
10326SOL    HW232911   4.481   7.438   0.773  3.1719  0.9646  3.7577
10327SOL     OW32912   1.732   1.987   5.325 -0.2833  0.5645 -0.2337
10327SOL    HW132913   1.781   1.998   5.244 -0.0045  0.0579 -0.1376
10327SOL    HW232914   1.793   1.943   5.384 -0.8101  0.0421 -0.0691
10328SOL     OW32915   4.558   2.576   1.488 -0.2459 -0.0468  0.3100
10328SOL    HW132916   4.594   2.521   1.557 -1.9337 -0.0595  1.2260
10328SOL    HW232917   4.546   2.662   1.529 -1.2755 -0.0602  0.0633
10329SOL     OW32918   7.862   7.232   5.230  0.0859 -0.5494  0.3646
10329SOL    HW132919   7.885   7.325   5.238 -0.8034 -0.4642  2.6941
10329SOL    HW232920   7.942   7.190   5.200  0.6822  0.8598 -0.1171
10330SOL     OW32921   8.434   6.140   8.716  0.0150  0.5920 -0.1837
10330SOL    HW132922   8.504   6.075   8.723  0.1938  0.8512  0.5345
10330SOL    HW232923   8.386   6.134   8.799 -1.0879  0.1248 -0.8284
10331SOL     OW32924   5.289   4.440   1.866 -0.3233 -0.0583  0.3081
10331SOL    HW132925   5.336   4.411   1.944  0.3220  1.3903  0.4904
10331SOL    HW232926   5.199   4.409   1.879  0.2957 -1.8680  0.4943
10332SOL     OW32927   2.874   5.200   6.050  0.2999  0.5717  0.3809
10332SOL    HW132928   2.920   5.120   6.076 -0.5513  0.2757  1.0460
10332SOL    HW232929   2.943   5.260   6.022  1.0654  0.0517  1.1062
10333SOL     OW32930   1.315   2.086   6.606  0.3805 -0.0492 -0.5006
10333SOL    HW132931   1.353   2.113   6.690  1.1242  0.8444 -1.1036
10333SOL    HW232932   1.221   2.101   6.617  0.6314  1.6728 -0.3635
10334SOL     OW32933   8.128   6.283   3.853 -0.1573  0.3292  0.2653
10334SOL    HW132934   8.111   6.241   3.938  1.3796 -1.0053 -0.0373
10334SOL    HW232935   8.042   6.285   3.810 -0.8673  0.5523  1.6343
10335SOL     OW32936   6.452   6.166   7.298 -0.0887  0.2226 -0.0658
10335SOL    HW132937   6.454   6.076   7.265  1.2101 -0.2235  1.1533
10335SOL    HW232938   6.387   6.210   7.243  1.3435 -0.6960 -2.6519
10336SOL     OW32939   0.775   8.252   1.807 -0.2732 -0.6118 -0.3566
10336SOL    HW132940   0.837   8.180   1.791  0.5072  0.4389 -2.3286
10336SOL    HW232941   0.792   8.277   1.898  1.1928 -1.3207 -0.3951
10337SOL     OW32942   1.355   0.033   0.266 -0.1189 -0.0550  0.2680
10337SOL    HW132943   1.444   0.059   0.241  0.5416 -1.8680  0.5640
10337SOL    HW232944   1.345   0.064   0.356  1.4088 -2.3985  1.3419
10338SOL     OW32945   4.711   5.058   8.713  1.0340 -0.8304 -0.4491
10338SOL    HW132946   4.629   5.036   8.757  1.2835 -2.1719 -0.6222
10338SOL    HW232947   4.777   5.052   8.782  1.4133 -2.8566 -0.9285
10339SOL     OW32948   3.756   1.603   5.243  0.7612  0.2243  0.6066
10339SOL    HW132949   3.678   1.647   5.275 -0.6497 -0.2507 -1.9516
10339SOL    HW232950   3.828   1.645   5.290 -1.0099  0.1881  3.5694
10340SOL     OW32951   6.241   0.453   7.217  0.1663 -0.1869  0.4197
10340SOL    HW132952   6.266   0.545   7.218 -2.0366  0.4752 -0.1369
10340SOL    HW232953   6.236   0.430   7.124  2.1536 -1.3536  0.5421
10341SOL     OW32954   3.805   5.346   1.459  0.2841  0.2303  0.0554
10341SOL    HW132955   3.782   5.346   1.367 -0.5944  0.8438  0.2668
10341SOL    HW232956   3.752   5.276   1.498  0.7446 -0.1122  0.0852
10342SOL     OW32957   8.243   0.494   0.517  0.2268  0.4345 -0.2118
10342SOL    HW132958   8.262   0.584   0.489 -0.7845  0.3432 -1.2805
10342SOL    HW232959   8.159   0.474   0.477 -0.0433 -0.6564  0.8312
10343SOL     OW32960   8.713   8.439   1.912 -0.0763 -0.2528 -0.4047
10343SOL    HW132961   8.739   8.401   1.996 -0.4918 -0.0080 -0.1610
10343SOL    HW232962   8.660   8.516   1.936  1.5390  1.0625 -0.8672
10344SOL     OW32963   4.524   2.256   8.015 -0.0405  0.1876  0.2399
10344SOL    HW132964   4.468   2.198   7.964  0.5071  0.0157 -0.1725
10344SOL    HW232965   4.559   2.318   7.952 -1.3597  1.5846  0.8270
10345SOL     OW32966   6.267   5.331   8.164 -0.1989  0.0317  0.6294
10345SOL    HW132967   6.303   5.269   8.228  1.0528  0.8813  0.7972
10345SOL    HW232968   6.298   5.299   8.079  0.0535  0.1590  0.6726
10346SOL     OW32969   8.861   4.188   2.254 -0.2015  0.5868  0.3240
10346SOL    HW132970   8.833   4.135   2.329  0.2960  0.9307  0.7566
10346SOL    HW232971   8.898   4.125   2.192 -2.4188  0.0147 -0.5418
10347SOL     OW32972   7.583   3.522   1.470  0.5003  0.4665 -0.4836
10347SOL    HW132973   7.504   3.556   1.511  0.2057 -0.2152 -0.4733
10347SOL    HW232974   7.638   3.599   1.456 -0.0697  0.9137 -0.2878
10348SOL     OW32975   5.194   4.539   4.226 -0.1921  0.0417 -0.1485
10348SOL    HW132976   5.275   4.585   4.204 -0.5638  1.0545  0.4929
10348SOL    HW232977   5.202   4.453   4.184  0.2815  0.8877 -1.8738
10349SOL     OW32978   3.700   7.488   3.293  0.2004  0.1182 -0.2048
10349SOL    HW132979   3.609   7.458   3.292 -0.0074  0.6161 -2.7108
10349SOL    HW232980   3.751   7.409   3.275  0.4368 -0.3946  2.3245
10350SOL     OW32981   5.674   2.923   8.347 -0.4319 -0.6501 -0.0454
10350SOL    HW132982   5.644   2.892   8.262 -1.6059  1.5212 -0.5156
10350SOL    HW232983   5.764   2.953   8.332 -0.8871  0.4422 -0.7794
10351SOL     OW32984   5.783   4.393   7.830  0.1031  0.4058  0.7202
10351SOL    HW132985   5.804   4.474   7.877  1.8580 -0.3310  1.2665
10351SOL    HW232986   5.856   4.334   7.849  1.9629  0.5990 -4.2969
10352SOL     OW32987   3.060   3.332   5.280  0.6450  0.1262  0.4907
10352SOL    HW132988   3.118   3.379   5.220 -0.3329  0.7304  0.0011
10352SOL    HW232989   3.093   3.355   5.367 -0.6149  2.8877  0.3367
10353SOL     OW32990   2.414   1.378   4.027 -0.1733  0.0081 -0.1443
10353SOL    HW132991   2.408   1.437   4.102  0.9225  0.0136 -0.0473
10353SOL    HW232992   2.427   1.291   4.065  0.3050  0.0001 -0.3249
10354SOL     OW32993   8.206   3.541   4.484 -0.3037  0.1774  0.3228
10354SOL    HW132994   8.295   3.545   4.449 -0.4523  1.3886  0.0654
10354SOL    HW232995   8.201   3.454   4.525  1.9534  1.1441  2.9318
10355SOL     OW32996   4.044   6.365   1.185 -0.4820  0.0259 -0.4451
10355SOL    HW132997   4.105   6.359   1.112 -1.5547 -1.9553 -1.2643
10355SOL    HW232998   4.003   6.451   1.174  0.8541  0.6349 -0.9149
10356SOL     OW32999   7.765   5.321   2.558 -0.1791  0.1739 -0.2922
10356SOL    HW133000   7.716   5.364   2.629  2.8491  1.2092  1.3269
10356SOL    HW233001   7.798   5.393   2.505  1.4817 -0.3024  0.0292
10357SOL     OW33002   8.120   5.536   5.975  0.0080 -0.5602 -0.1415
10357SOL    HW133003   8.203   5.584   5.967  0.1302 -0.7202  0.1587
10357SOL    HW233004   8.133   5.478   6.049 -0.9955  0.6851  1.0618
10358SOL     OW33005   0.829   0.586   2.900  0.5412  0.2478  0.5529
10358SOL    HW133006   0.837   0.672   2.861  0.7445 -0.1368 -0.2682
10358SOL    HW233007   0.918   0.550   2.898  0.2857 -0.3694 -0.0398
10359SOL     OW33008   0.455   4.995   4.651 -0.4030  0.2868 -0.4068
10359SOL    HW133009   0.385   5.024   4.593  0.2820  0.1836 -1.3179
10359SOL    HW233010   0.522   4.962   4.591  0.8245  1.2640  0.3821
10360SOL     OW33011   2.644   4.679   7.217  0.2567  0.7497 -0.0458
10360SOL    HW133012   2.619   4.660   7.127 -0.5326  0.4537  0.2208
10360SOL    HW233013   2.660   4.592   7.256  1.0712  0.9027 -0.0341
10361SOL     OW33014   0.616   7.814   0.289 -0.0339  0.2429  0.1363
10361SOL    HW133015   0.533   7.849   0.257 -0.7648 -1.0144  0.5931
10361SOL    HW233016   0.654   7.885   0.340 -0.9105  0.7789  0.0620
10362SOL     OW33017   1.535   6.664   2.364 -0.4549 -0.2003  0.4232
10362SOL    HW133018   1.510   6.754   2.385 -1.1516 -0.4042  0.4917
10362SOL    HW233019   1.619   6.651   2.409 -0.6597  0.2106  0.9296
10363SOL     OW33020   0.328   2.468   8.110 -0.6692 -0.0644  0.1606
10363SOL    HW133021   0.399   2.506   8.058  0.3100 -0.5902  1.0744
10363SOL    HW233022   0.344   2.501   8.199 -1.5384 -0.2451  0.3900
10364SOL     OW33023   8.655   5.048   6.657 -0.0246 -0.1060  0.7448
10364SOL    HW133024   8.687   5.031   6.746  1.8476  1.4329  0.4131
10364SOL    HW233025   8.640   4.961   6.620  1.9971 -0.8562  1.5869
10365SOL     OW33026   7.335   0.113   4.962  0.1462  0.6931 -0.1091
10365SOL    HW133027   7.267   0.158   4.912  0.1223 -1.2455 -1.9856
10365SOL    HW233028   7.317   0.020   4.949  2.0182  0.1088  0.9771
10366SOL     OW33029   0.229   1.956   6.921  0.2008  0.1579 -0.4281
10366SOL    HW133030   0.251   1.864   6.937  1.5898  0.6648  0.7748
10366SOL    HW233031   0.134   1.960   6.933  0.2632 -0.9026  0.6050
10367SOL     OW33032   8.539   6.213   0.997 -0.1540 -0.2235 -0.0597
10367SOL    HW133033   8.447   6.206   0.972  0.2058 -0.3906 -1.3714
10367SOL    HW233034   8.583   6.246   0.919  0.5947  1.9558  1.1842
10368SOL     OW33035   7.924   7.563   2.199  0.3582 -0.7533 -0.5407
10368SOL    HW133036   8.014   7.536   2.220  0.1152 -2.1723 -1.2448
10368SOL    HW233037   7.922   7.566   2.103 -0.2721 -0.4505 -0.5202
10369SOL     OW33038   7.782   5.785   4.767  0.1701 -0.3518  0.1542
10369SOL    HW133039   7.733   5.824   4.839  0.7929 -1.2066  1.0582
10369SOL    HW233040   7.868   5.766   4.803  0.5456 -0.6596 -0.8565
10370SOL     OW33041   4.615   8.052   0.582 -0.1566  0.1644  0.0074
10370SOL    HW133042   4.543   8.105   0.549 -0.1360  0.5187  0.5138
10370SOL    HW233043   4.591   7.962   0.560 -1.6133  0.0941  1.7015
10371SOL     OW33044   3.469   0.843   3.093  0.5165  0.8551  0.5191
10371SOL    HW133045   3.411   0.915   3.118  0.4195  0.6599  0.8606
10371SOL    HW233046   3.478   0.791   3.172 -0.6850 -0.3947 -0.1267
10372SOL     OW33047   0.165   8.057   4.861  0.3457 -0.1243  0.2008
10372SOL    HW133048   0.107   8.072   4.935 -0.3929  1.4466 -0.6424
10372SOL    HW233049   0.126   7.984   4.813 -0.4698  0.3744  0.1003
10373SOL     OW33050   3.066   6.852   1.792  0.4662  0.0376  0.4938
10373SOL    HW133051   3.017   6.861   1.875  0.8539  0.9653  0.6270
10373SOL    HW233052   3.153   6.886   1.812  0.4583  0.5791 -0.3974
10374SOL     OW33053   5.013   1.770   5.287  0.2090  0.0904  0.0868
10374SOL    HW133054   5.057   1.685   5.286 -0.0623 -0.0464 -0.0919
10374SOL    HW233055   4.969   1.776   5.203  1.0775  0.8608 -0.3284
10375SOL     OW33056   8.404   1.187   4.651  0.0986  0.0307 -0.4223
10375SOL    HW133057   8.318   1.224   4.671  0.8722  2.0042 -0.6053
10375SOL    HW233058   8.447   1.180   4.736 -0.2691 -1.1534 -0.3049
10376SOL     OW33059   4.446   7.912   2.840  0.1835 -0.2315  0.0046
10376SOL    HW133060   4.522   7.946   2.793  1.8473 -0.3688  2.4324
10376SOL    HW233061   4.476   7.831   2.881 -1.5465 -0.7640  0.3346
10377SOL     OW33062   8.153   0.226   5.112  0.2948  0.2012  0.3365
10377SOL    HW133063   8.247   0.239   5.097  0.3519 -0.5595 -0.0213
10377SOL    HW233064   8.146   0.214   5.207  0.7557 -1.1485  0.2175
10378SOL     OW33065   3.788   3.180   4.007 -0.6482 -0.0761  0.2331
10378SOL    HW133066   3.782   3.159   4.100 -0.4933 -1.3428 -0.0249
10378SOL    HW233067   3.734   3.259   3.997  0.2552  0.7606  1.5731
10379SOL     OW33068   4.249   6.391   2.591  0.1652 -0.1307  0.1915
10379SOL    HW133069   4.210   6.304   2.602  1.2978 -0.8421 -1.0877
10379SOL    HW233070   4.182   6.440   2.543  1.0442 -1.6383 -2.8578
10380SOL     OW33071   4.153   4.093   4.103  0.2336 -0.1674  0.1001
10380SOL    HW133072   4.189   4.015   4.146 -1.5300  0.5203  3.1120
10380SOL    HW233073   4.185   4.166   4.157 -2.2626  0.7348  0.4768
10381SOL     OW33074   7.057   4.173   4.173  0.0152  0.4362  0.7060
10381SOL    HW133075   7.121   4.114   4.213  0.6511  0.5015 -0.2057
10381SOL    HW233076   6.976   4.121   4.168  0.7646 -0.6426 -0.8041
10382SOL     OW33077   6.554   7.777   1.242  0.5770 -0.0778 -0.1645
10382SOL    HW133078   6.521   7.718   1.174  1.7570 -0.5609 -0.3427
10382SOL    HW233079   6.622   7.827   1.199  0.7150  0.2584  0.4323
10383SOL     OW33080   1.703   4.631   1.728 -0.6727 -0.2186 -0.0114
10383SOL    HW133081   1.671   4.620   1.818  1.6985 -0.7275  0.8575
10383SOL    HW233082   1.674   4.552   1.682  1.0443 -1.7595  1.3423
10384SOL     OW33083   7.701   0.464   3.598  0.1283 -0.2042  0.1183
10384SOL    HW133084   7.631   0.530   3.592 -0.6685 -0.9348  1.0732
10384SOL    HW233085   7.683   0.418   3.680  1.7468 -0.4129  0.3796
10385SOL     OW33086   7.085   7.503   0.528 -0.1436  0.5472 -0.1423
10385SOL    HW133087   7.091   7.416   0.567  0.4198  0.8688  0.5088
10385SOL    HW233088   7.142   7.499   0.451  0.2194  0.4571  0.1244
10386SOL     OW33089   2.300   4.493   0.420  0.8751  0.6232 -0.2896
10386SOL    HW133090   2.282   4.559   0.352 -1.2829 -0.6191 -1.0135
10386SOL    HW233091   2.214   4.471   0.455  1.7597 -0.3697  1.3541
10387SOL     OW33092   5.943   1.914   7.015 -0.4195  0.4865 -0.2025
10387SOL    HW133093   5.920   1.823   7.000  0.3269  0.3394 -0.5225
10387SOL    HW233094   5.927   1.958   6.932 -0.1295  0.5026 -0.2519
10388SOL     OW33095   8.855   7.450   5.049 -0.7477  0.1193  0.1470
10388SOL    HW133096   8.786   7.439   4.984 -1.8627 -1.1258  1.4635
10388SOL    HW233097   8.936   7.453   4.998 -1.6713  0.4072 -1.3603
10389SOL     OW33098   2.573   6.027   6.540  0.6157  0.0409 -0.2191
10389SOL    HW133099   2.657   5.987   6.563  0.3046 -0.7628 -0.4553
10389SOL    HW233100   2.530   6.041   6.624  0.9506  0.3871 -0.1017
10390SOL     OW33101   5.225   0.232   6.798 -0.1642  0.3277  0.1941
10390SOL    HW133102   5.210   0.326   6.804 -0.0247  0.3437  0.3073
10390SOL    HW233103   5.320   0.223   6.790 -0.2805  0.2747 -1.4508
10391SOL     OW33104   3.320   2.382   3.089 -0.4020  0.5247  0.8867
10391SOL    HW133105   3.382   2.354   3.022 -1.0751 -0.1080  0.5051
10391SOL    HW233106   3.234   2.360   3.053 -0.8639  1.5061  1.3426
10392SOL     OW33107   3.392   1.917   4.715 -0.3875  0.2861  0.5314
10392SOL    HW133108   3.376   1.857   4.788 -0.8966  2.8738  2.7106
10392SOL    HW233109   3.320   1.900   4.654  0.6786 -2.7348 -0.0437
10393SOL     OW33110   0.913   2.540   4.877 -0.2062 -0.1805  0.1405
10393SOL    HW133111   0.894   2.496   4.960  2.2263 -1.3206  0.1870
10393SOL    HW233112   0.843   2.513   4.819 -2.0362  0.7403  1.8141
10394SOL     OW33113   6.760   2.361   3.156  0.2781 -0.3637  0.1729
10394SOL    HW133114   6.674   2.352   3.196  0.1606 -1.4571 -0.2945
10394SOL    HW233115   6.815   2.299   3.204  0.3194 -1.1261 -0.8537
10395SOL     OW33116   4.122   6.515   3.488  0.4847  0.4174  0.0387
10395SOL    HW133117   4.107   6.555   3.574  0.6465  0.2450  0.1494
10395SOL    HW233118   4.105   6.422   3.502 -1.5974  0.6502 -0.6307
10396SOL     OW33119   2.930   5.480   5.882  0.3000 -0.3783  0.1141
10396SOL    HW133120   2.963   5.517   5.964 -0.4426 -2.3123  1.3686
10396SOL    HW233121   3.008   5.470   5.827  0.9930 -0.0719  1.0118
10397SOL     OW33122   6.934   7.177   8.398 -0.3934 -0.8138 -0.3110
10397SOL    HW133123   6.913   7.097   8.447  1.3519 -2.3598 -1.9132
10397SOL    HW233124   7.004   7.218   8.448 -0.3092 -1.0593 -0.2252
10398SOL     OW33125   4.059   3.832   7.281 -0.4362  0.2563  0.5859
10398SOL    HW133126   4.015   3.865   7.202 -0.4159  0.7559  0.7812
10398SOL    HW233127   4.152   3.830   7.258 -0.5788 -1.1267  0.0555
10399SOL     OW33128   0.881   1.838   7.432 -0.0931  0.3482 -0.2524
10399SOL    HW133129   0.786   1.836   7.420 -0.0117  3.0441 -2.3227
10399SOL    HW233130   0.894   1.891   7.511 -0.2971 -0.5248  0.3762
10400SOL     OW33131   8.379   2.407   7.115 -0.1154  0.2220 -0.2916
10400SOL    HW133132   8.369   2.400   7.210  0.0977  0.5732 -0.2410
10400SOL    HW233133   8.329   2.333   7.080  0.8606 -0.6737  0.1502
10401SOL     OW33134   5.880   5.875   0.178 -0.5298  0.2319 -0.0590
10401SOL    HW133135   5.798   5.908   0.215 -1.2112 -0.0528 -1.2340
10401SOL    HW233136   5.871   5.891   0.084  1.5664  1.8606 -0.0276
10402SOL     OW33137   2.351   1.430   4.336  0.2750 -0.6800 -0.7504
10402SOL    HW133138   2.345   1.382   4.419  0.5989 -0.2540 -0.4713
10402SOL    HW233139   2.278   1.398   4.284 -0.2403 -0.5784 -0.0977
10403SOL     OW33140   8.561   0.121   2.486 -0.3839  0.1538 -0.7277
10403SOL    HW133141   8.552   0.088   2.576  0.2103  0.2055 -0.6508
10403SOL    HW233142   8.593   0.046   2.436  0.9398  0.5840 -0.5598
10404SOL     OW33143   5.717   1.808   5.698  0.0646 -0.4254 -0.6798
10404SOL    HW133144   5.666   1.868   5.753 -1.2025 -1.0598 -1.1366
10404SOL    HW233145   5.752   1.863   5.628  1.0117  0.2335  0.2718
10405SOL     OW33146   4.951   8.703   8.396  0.3780  0.5142 -0.7062
10405SOL    HW133147   4.987   8.791   8.403 -1.5654  1.3088 -0.0363
10405SOL    HW233148   4.869   8.714   8.347 -0.3328 -0.7702  0.1365
10406SOL     OW33149   3.423   8.748   5.998  0.1042  0.2176  0.0158
10406SOL    HW133150   3.436   8.838   5.966  0.6313 -0.2376 -1.1242
10406SOL    HW233151   3.480   8.742   6.074  0.8142  0.5666 -0.4720
10407SOL     OW33152   7.899   3.416   7.245  0.9502  0.6500  0.0158
10407SOL    HW133153   7.954   3.340   7.226  0.2630 -0.4908  2.2515
10407SOL    HW233154   7.921   3.440   7.335  0.3146  2.3910 -0.2532
10408SOL     OW33155   7.884   6.991   6.046 -0.2134  0.2043 -0.2309
10408SOL    HW133156   7.876   7.086   6.037  0.0781  0.1980 -0.6126
10408SOL    HW233157   7.974   6.977   6.076  0.4758 -0.0520 -2.2574
10409SOL     OW33158   4.277   1.148   0.596 -0.7042  0.4055  0.2296
10409SOL    HW133159   4.231   1.070   0.567  0.3219 -0.0981 -0.1155
10409SOL    HW233160   4.370   1.123   0.595 -0.2025  2.1054 -1.4188
10410SOL     OW33161   8.758   2.949   8.080  0.5788  0.2274  0.2983
10410SOL    HW133162   8.710   2.867   8.068  1.1221  0.1103 -1.4219
10410SOL    HW233163   8.850   2.922   8.090  0.9311  0.6243 -1.4879
10411SOL     OW33164   0.002   3.872   1.866 -0.1821  0.1666 -0.0493
10411SOL    HW133165   0.036   3.812   1.801  2.1447  1.1929  0.1220
10411SOL    HW233166  -0.025   3.816   1.939  0.4940 -0.7645 -0.4965
10412SOL     OW33167   1.912   1.483   4.021 -0.4101 -0.4298 -0.0653
10412SOL    HW133168   1.883   1.567   3.986  1.4912 -0.5749 -2.2408
10412SOL    HW233169   1.921   1.498   4.116  0.4043  2.0043 -0.4485
10413SOL     OW33170   8.570   4.208   1.498  0.3086 -0.3300 -0.6305
10413SOL    HW133171   8.594   4.171   1.583  0.3067 -0.4674 -0.6903
10413SOL    HW233172   8.475   4.204   1.497  0.1667  1.5704  0.2335
10414SOL     OW33173   3.974   0.200   1.720  0.4096 -0.2648  0.8948
10414SOL    HW133174   3.929   0.238   1.645 -1.4779  0.4403  2.2733
10414SOL    HW233175   3.947   0.108   1.721  0.0413 -0.1598  0.9535
10415SOL     OW33176   7.587   0.786   8.752  0.3341  0.0886 -0.0084
10415SOL    HW133177   7.539   0.748   8.678  2.2974 -0.9595 -0.8311
10415SOL    HW233178   7.623   0.868   8.718  1.2052 -0.3745 -0.2314
10416SOL     OW33179   5.329   1.218   3.800 -0.5889  0.2888 -0.2242
10416SOL    HW133180   5.256   1.279   3.806  0.3992  1.3969  1.7915
10416SOL    HW233181   5.333   1.177   3.887  2.0418  1.3957  0.2876
10417SOL     OW33182   3.054   6.515   3.096 -0.2893 -0.1635 -0.1329
10417SOL    HW133183   2.989   6.451   3.125 -0.1156  0.0628  0.7753
10417SOL    HW233184   3.050   6.512   3.000 -0.5744 -1.2316 -0.0955
10418SOL     OW33185   1.501   3.369   0.371  0.9191 -0.3683 -0.0852
10418SOL    HW133186   1.459   3.307   0.312 -1.7946  1.0738  0.2128
10418SOL    HW233187   1.521   3.445   0.317  1.0553 -0.1443  0.2726
10419SOL     OW33188   2.812   3.726   7.843 -0.2953 -0.1371 -0.1189
10419SOL    HW133189   2.902   3.735   7.812 -0.5759 -0.4256 -1.0766
10419SOL    HW233190   2.761   3.786   7.789 -0.8870 -1.0664 -0.6345
10420SOL     OW33191   4.228   3.075   5.273 -0.3906  0.4825 -0.2281
10420SOL    HW133192   4.297   3.078   5.206 -0.3840 -1.5830 -0.3784
10420SOL    HW233193   4.220   2.983   5.295 -2.0586  0.8523  0.9169
10421SOL     OW33194   8.292   5.925   4.263  0.0118  0.2588  0.6226
10421SOL    HW133195   8.351   5.857   4.230 -1.0986 -0.4153 -0.0074
10421SOL    HW233196   8.351   5.994   4.293  1.1403 -0.6170  0.4966
10422SOL     OW33197   2.660   7.692   3.647 -0.1838 -0.0887 -0.7197
10422SOL    HW133198   2.644   7.785   3.663 -0.6951 -0.2320 -0.3730
10422SOL    HW233199   2.583   7.663   3.597 -0.7609 -0.6541  0.4448
10423SOL     OW33200   4.429   3.259   0.435  0.5107  0.5967 -0.0126
10423SOL    HW133201   4.450   3.193   0.501 -2.5589 -0.4480  0.0626
10423SOL    HW233202   4.376   3.324   0.481  0.5819  1.2799 -0.8631
10424SOL     OW33203   5.797   4.343   0.828  0.0433 -0.5522  0.2362
10424SOL    HW133204   5.845   4.302   0.755  0.7920  1.5399 -0.5143
10424SOL    HW233205   5.861   4.346   0.899 -0.1436 -1.0100  0.4313
10425SOL     OW33206   3.341   8.390   3.267  0.2553  0.1100  0.0563
10425SOL    HW133207   3.419   8.438   3.298 -0.9381  1.6022  0.8712
10425SOL    HW233208   3.294   8.367   3.346  0.2450 -1.5147 -0.3990
10426SOL     OW33209   0.623   3.806   5.769 -0.5372 -0.0495 -0.4760
10426SOL    HW133210   0.668   3.775   5.691  0.8632 -0.4745  0.4550
10426SOL    HW233211   0.664   3.890   5.789  0.1765 -0.6374  0.6286
10427SOL     OW33212   6.915   4.376   2.821  0.7470 -0.3196  0.0371
10427SOL    HW133213   6.945   4.297   2.777 -0.0591 -1.8731  2.1052
10427SOL    HW233214   6.923   4.357   2.914  0.3850  2.0070  0.6291
10428SOL     OW33215   1.483   2.459   6.593 -0.6790 -0.1404  0.3804
10428SOL    HW133216   1.526   2.527   6.541 -0.0101  0.0927  1.2281
10428SOL    HW233217   1.403   2.439   6.544 -0.2695  0.3700 -0.5186
10429SOL     OW33218   1.664   0.676   7.850 -0.0069  0.1739 -0.0007
10429SOL    HW133219   1.622   0.590   7.848  1.0791 -0.3790  0.0366
10429SOL    HW233220   1.596   0.736   7.882 -0.3455 -0.9421  1.4599
10430SOL     OW33221   0.994   2.968   2.237 -0.3642  0.3503 -0.2858
10430SOL    HW133222   1.064   3.004   2.291  0.4667  0.0543 -1.1329
10430SOL    HW233223   0.917   2.969   2.293  0.2990  0.7636  0.6382
10431SOL     OW33224   0.811   3.645   8.660  0.0785 -0.4264  0.1117
10431SOL    HW133225   0.832   3.639   8.753 -0.9467 -0.6193  0.3546
10431SOL    HW233226   0.885   3.690   8.621  0.8128 -0.8970  0.9166
10432SOL     OW33227   4.054   4.877   7.378  0.4700 -0.1534 -0.1056
10432SOL    HW133228   4.033   4.960   7.336  1.9919  0.4466  0.2499
10432SOL    HW233229   3.990   4.870   7.449 -0.6843 -0.0890 -1.1050
10433SOL     OW33230   2.648   5.321   6.059  0.2233  0.0661  0.3884
10433SOL    HW133231   2.738   5.292   6.075  0.1835  0.3127  1.0718
10433SOL    HW233232   2.638   5.313   5.964  0.4395 -1.4805  0.4719
10434SOL     OW33233   2.006   7.937   2.688 -0.3538 -0.3891  0.1751
10434SOL    HW133234   2.000   8.010   2.626  0.5129 -0.3417  0.1346
10434SOL    HW233235   1.920   7.935   2.731 -0.1003  1.2516  0.8444
10435SOL     OW33236   2.043   8.397   5.216  0.9328 -0.7371 -0.2190
10435SOL    HW133237   2.120   8.430   5.169  0.6383 -0.2829 -0.3907
10435SOL    HW233238   2.045   8.444   5.300  0.0436  0.3686 -0.7966
10436SOL     OW33239   7.107   0.449   2.892 -0.2671  0.7532 -0.2065
10436SOL    HW133240   7.202   0.448   2.908 -0.4060 -1.0861  0.7100
10436SOL    HW233241   7.096   0.394   2.814 -0.4775  2.1766 -1.2218
10437SOL     OW33242   8.866   4.952   2.117 -0.2328  0.2100 -0.2490
10437SOL    HW133243   8.852   4.881   2.180  0.8667 -0.5124 -0.7904
10437SOL    HW233244   8.865   4.909   2.032 -0.7663  1.0415 -0.6790
10438SOL     OW33245   6.778   4.753   7.387  0.0627  0.5340  0.0662
10438SOL    HW133246   6.815   4.677   7.432 -1.3679  0.1583  0.6631
10438SOL    HW233247   6.749   4.811   7.457  2.7753  2.5483 -0.3348
10439SOL     OW33248   8.790   2.487   7.620 -0.5585 -0.9965  0.1973
10439SOL    HW133249   8.844   2.556   7.657 -0.2646 -0.1742 -1.6283
10439SOL    HW233250   8.793   2.416   7.684  0.0382  0.2512  1.6049
10440SOL     OW33251   6.811   0.618   0.372  0.3334 -0.5339  0.3702
10440SOL    HW133252   6.827   0.706   0.406  1.3703 -0.8137  0.6404
10440SOL    HW233253   6.846   0.620   0.283  1.2094 -0.9259  0.6940
10441SOL     OW33254   3.468   8.297   8.321  0.0680 -0.3071  0.6734
10441SOL    HW133255   3.393   8.291   8.380 -0.5248 -0.2579 -0.0583
10441SOL    HW233256   3.543   8.273   8.375 -0.6356 -1.6353  1.0973
10442SOL     OW33257   0.268   7.974   0.483  0.6203  0.5398  0.0683
10442SOL    HW133258   0.261   7.879   0.490  3.5850  0.3441  2.1681
10442SOL    HW233259   0.347   7.996   0.533  0.0641  4.1221 -0.3798
10443SOL     OW33260   0.666   0.486   0.104 -0.2536 -0.1935 -0.0010
10443SOL    HW133261   0.643   0.578   0.092 -0.9374 -0.1960  1.1413
10443SOL    HW233262   0.741   0.488   0.163 -0.4258 -0.3813  0.2222
10444SOL     OW33263   0.970   2.465   5.658  0.3941 -0.3089  0.5308
10444SOL    HW133264   1.049   2.510   5.628 -0.3419 -0.5792 -2.0124
10444SOL    HW233265   0.919   2.533   5.702  1.6924  0.0090  1.6432
10445SOL     OW33266   7.657   0.487   7.011 -0.2078  0.6242 -0.2042
10445SOL    HW133267   7.615   0.573   7.010 -1.6767 -0.0465 -1.4514
10445SOL    HW233268   7.649   0.458   7.102 -3.3881  0.1805 -0.4897
10446SOL     OW33269   1.674   2.456   7.301  0.1089 -0.3765 -0.2984
10446SOL    HW133270   1.709   2.529   7.250 -1.7360  1.3707  0.7532
10446SOL    HW233271   1.748   2.425   7.353  0.5757  2.1281  0.7128
10447SOL     OW33272   1.761   2.766   1.030  0.0724 -0.5168  0.6489
10447SOL    HW133273   1.680   2.754   0.981 -0.8260  1.1037  1.6643
10447SOL    HW233274   1.738   2.745   1.120  0.5373  0.7324  1.0823
10448SOL     OW33275   7.161   5.649   0.151  0.0989 -0.2567  1.0701
10448SOL    HW133276   7.204   5.588   0.211  0.8161 -1.0843 -0.2435
10448SOL    HW233277   7.161   5.605   0.066  2.4100  2.2812 -0.4210
10449SOL     OW33278   6.235   6.326   0.793 -0.3917  0.1260  0.7388
10449SOL    HW133279   6.296   6.300   0.724  0.1122  0.0984  1.1877
10449SOL    HW233280   6.185   6.398   0.754 -0.2493 -0.0179  0.2762
10450SOL     OW33281   5.095   1.568   1.640 -0.3148 -0.3798 -0.1191
10450SOL    HW133282   5.150   1.646   1.637 -1.3391  0.5510  2.3081
10450SOL    HW233283   5.031   1.581   1.571 -0.8931  1.3307  0.6849
10451SOL     OW33284   6.753   5.138   0.143  1.1493  0.2949  0.4161
10451SOL    HW133285   6.672   5.171   0.181 -0.1182 -0.3624 -1.5463
10451SOL    HW233286   6.811   5.214   0.139  0.2628  1.0165  0.9041
10452SOL     OW33287   6.941   8.636   8.810  0.5287 -0.1199 -0.0692
10452SOL    HW133288   6.962   8.543   8.820 -0.8660 -0.5791 -0.9876
10452SOL    HW233289   6.917   8.645   8.717  0.8563  1.2066 -0.0460
10453SOL     OW33290   4.047   0.931   4.874 -0.2520  0.2813 -0.4482
10453SOL    HW133291   3.963   0.890   4.897  1.0664 -2.5204 -0.2420
10453SOL    HW233292   4.067   0.898   4.787  0.1676  1.8359 -0.9868
10454SOL     OW33293   8.032   2.865   1.751  0.1357 -0.3319  0.1491
10454SOL    HW133294   8.006   2.836   1.664  1.6445  0.7443 -0.7035
10454SOL    HW233295   7.954   2.909   1.786 -0.8045 -1.6408 -0.2185
10455SOL     OW33296   0.175   6.896   6.894  0.1443  0.0866 -0.1293
10455SOL    HW133297   0.089   6.913   6.854  0.5062 -2.8682 -2.5714
10455SOL    HW233298   0.161   6.820   6.951  1.1797 -0.8607 -1.0780
10456SOL     OW33299   1.043   1.917   3.442 -0.1017 -0.5623  0.0535
10456SOL    HW133300   1.024   1.917   3.348 -1.2867  0.8876  0.2583
10456SOL    HW233301   1.132   1.953   3.448 -1.0018  1.9308 -0.4121
10457SOL     OW33302   2.187   7.586   6.535  0.7606 -0.3082  0.1893
10457SOL    HW133303   2.172   7.498   6.571  0.8757  0.5905  2.6153
10457SOL    HW233304   2.116   7.638   6.570  2.0408  1.0912  0.7990
10458SOL     OW33305   2.961   0.722   6.227 -0.2072  0.1381 -0.7978
10458SOL    HW133306   2.965   0.630   6.255  0.9588  0.9373  2.0166
10458SOL    HW233307   3.052   0.749   6.220 -0.5304  1.0109 -2.0333
10459SOL     OW33308   1.094   1.299   2.834  0.4442 -0.3610  0.6531
10459SOL    HW133309   1.189   1.287   2.842  0.4299 -0.3821  0.7858
10459SOL    HW233310   1.084   1.367   2.767  0.5561 -0.2955  0.7020
10460SOL     OW33311   5.086   0.554   4.567 -0.4097 -0.3354 -0.5967
10460SOL    HW133312   5.165   0.606   4.579 -0.3519 -0.6190  0.3277
10460SOL    HW233313   5.117   0.472   4.530 -0.2062 -0.6136  0.1695
10461SOL     OW33314   2.578   2.493   8.271 -0.2410 -0.3048  0.4902
10461SOL    HW133315   2.647   2.515   8.209 -1.7450 -1.2267 -1.6596
10461SOL    HW233316   2.624   2.462   8.349  1.7921 -1.2232 -0.9814
10462SOL     OW33317   7.300   5.716   1.196  0.0427 -0.5451 -0.8161
10462SOL    HW133318   7.257   5.796   1.226  0.5543 -0.9855  1.2560
10462SOL    HW233319   7.385   5.744   1.164 -0.3242 -0.1086 -1.4241
10463SOL     OW33320   6.878   4.994   8.305 -0.3229 -0.1095  0.2254
10463SOL    HW133321   6.972   5.000   8.285 -0.4080 -0.6692 -0.3768
10463SOL    HW233322   6.871   5.027   8.395  0.6938 -1.6973  0.9316
10464SOL     OW33323   4.378   6.718   6.624 -0.2752 -0.4788  0.2167
10464SOL    HW133324   4.341   6.770   6.695 -0.3346 -2.3170  1.5850
10464SOL    HW233325   4.367   6.627   6.651  2.1912 -1.1948 -0.8534
10465SOL     OW33326   8.124   0.624   7.944 -0.3358 -0.1687 -0.3813
10465SOL    HW133327   8.159   0.635   8.032  0.6150 -0.9182 -0.6580
10465SOL    HW233328   8.045   0.571   7.956 -0.8136  0.6180  0.1144
10466SOL     OW33329   4.117   2.833   6.938  0.1431  0.1132  0.4615
10466SOL    HW133330   4.153   2.844   6.850  0.4110  1.2258  0.6961
10466SOL    HW233331   4.114   2.738   6.951  0.1156 -0.0647 -0.7359
10467SOL     OW33332   3.288   8.375   2.068 -1.1151  0.2178 -0.3443
10467SOL    HW133333   3.335   8.448   2.028  0.6632 -0.2489  0.7662
10467SOL    HW233334   3.244   8.413   2.144 -0.3565  0.2174  0.1139
10468SOL     OW33335   1.753   6.089   0.462 -0.1017 -0.0194 -0.7844
10468SOL    HW133336   1.681   6.039   0.425 -1.6376  0.8998  0.8346
10468SOL    HW233337   1.743   6.080   0.556  1.1315  1.2007 -0.5046
10469SOL     OW33338   2.787   4.171   1.163 -0.1576 -0.0327  0.2066
10469SOL    HW133339   2.695   4.143   1.170 -0.1049 -0.6613 -1.2848
10469SOL    HW233340   2.796   4.238   1.230 -2.5630  2.2776 -1.5357
10470SOL     OW33341   7.523   2.786   4.871  0.1548 -0.0880  0.4085
10470SOL    HW133342   7.586   2.774   4.800 -0.5686  0.8661 -0.4283
10470SOL    HW233343   7.575   2.823   4.942  0.9655 -1.4080  0.5322
10471SOL     OW33344   6.556   8.672   8.338 -0.2146 -0.2324 -0.1518
10471SOL    HW133345   6.544   8.630   8.423  0.5883 -0.5651 -0.1935
10471SOL    HW233346   6.480   8.645   8.286 -0.8786  0.2460  0.5635
10472SOL     OW33347   6.071   2.228   7.974  0.4937 -0.1185 -0.3574
10472SOL    HW133348   6.139   2.179   8.022  0.6160  0.4182  0.0289
10472SOL    HW233349   6.081   2.200   7.883  1.3893  0.1166 -0.3429
10473SOL     OW33350   5.701   6.759   8.483  0.2427 -0.0879  0.4519
10473SOL    HW133351   5.628   6.778   8.424 -0.2326  1.8025  1.5537
10473SOL    HW233352   5.747   6.686   8.442 -0.0764  1.0866 -2.2176
10474SOL     OW33353   6.472   1.743   2.808  0.6739  0.3224  0.1480
10474SOL    HW133354   6.481   1.682   2.734  2.1987 -0.7680  1.1703
10474SOL    HW233355   6.391   1.716   2.851 -0.8904  1.7175 -1.7066
10475SOL     OW33356   1.470   8.117   1.865 -0.1811 -0.3599 -0.3503
10475SOL    HW133357   1.533   8.046   1.880 -0.8481 -0.8942 -0.0349
10475SOL    HW233358   1.387   8.083   1.898 -0.6780  0.2735 -0.9250
10476SOL     OW33359   8.654   3.148   4.446 -0.1353 -0.0737 -0.1696
10476SOL    HW133360   8.588   3.080   4.435 -0.2736 -0.2769  1.5687
10476SOL    HW233361   8.661   3.159   4.541  0.3506  1.8903 -0.3907
10477SOL     OW33362   4.215   8.607   8.035 -0.3763 -0.0896  0.3179
10477SOL    HW133363   4.218   8.549   7.958  1.7035 -0.3338  0.5302
10477SOL    HW233364   4.193   8.549   8.108 -1.1110 -0.0897  0.0959
10478SOL     OW33365   5.562   8.572   6.655  0.2708  0.5900  0.1929
10478SOL    HW133366   5.596   8.526   6.732  0.9549  2.5268  1.1186
10478SOL    HW233367   5.473   8.598   6.681 -0.4296 -0.8512 -0.6408
10479SOL     OW33368   4.324   0.175   3.705  0.7480  0.4817  0.1763
10479SOL    HW133369   4.327   0.123   3.625  1.3503 -0.8359  1.0175
10479SOL    HW233370   4.238   0.158   3.742  1.2193 -0.5715  0.8398
10480SOL     OW33371   1.455   1.134   2.636 -0.0771  0.7174  0.4561
10480SOL    HW133372   1.473   1.069   2.568 -1.6038  0.9361 -0.2053
10480SOL    HW233373   1.541   1.157   2.672  0.6085 -0.5680 -0.3143
10481SOL     OW33374   1.948   8.699   6.476  0.1459  0.0750 -0.1632
10481SOL    HW133375   2.007   8.744   6.536 -2.3231 -0.7382  3.1373
10481SOL    HW233376   1.967   8.606   6.488 -0.0229 -0.0959 -1.0982
10482SOL     OW33377   4.674   8.239   1.876 -0.1678 -0.1163  0.1072
10482SOL    HW133378   4.621   8.285   1.940  1.0526  1.1877  0.2365
10482SOL    HW233379   4.761   8.234   1.916  0.9731  1.8889 -1.8846
10483SOL     OW33380   2.440   7.404   6.670  0.3167  0.0191  0.7426
10483SOL    HW133381   2.350   7.379   6.688  1.0081 -2.4342  1.0545
10483SOL    HW233382   2.451   7.393   6.576  0.7472 -1.3885  0.9416
10484SOL     OW33383   6.561   7.917   8.227  0.2967 -0.1728 -0.6295
10484SOL    HW133384   6.636   7.939   8.172  0.5697  0.9012  0.1454
10484SOL    HW233385   6.599   7.871   8.302  0.2490  0.6803 -0.0613
10485SOL     OW33386   2.283   2.471   1.445 -0.0402  0.1313  0.3592
10485SOL    HW133387   2.257   2.387   1.406  0.1244  0.6342 -0.8812
10485SOL    HW233388   2.355   2.501   1.390 -0.7640  1.5644  0.1395
10486SOL     OW33389   2.214   3.268   3.580  0.0030  0.8259 -0.3249
10486SOL    HW133390   2.151   3.340   3.568  1.1760  2.3470  1.9305
10486SOL    HW233391   2.204   3.243   3.672  0.8144 -0.7784 -0.6566
10487SOL     OW33392   4.287   6.746   3.245 -0.0816 -0.2282  0.1778
10487SOL    HW133393   4.214   6.772   3.188 -0.3427 -0.5290  0.3737
10487SOL    HW233394   4.359   6.727   3.184 -0.2873 -0.3165 -0.0368
10488SOL     OW33395   3.599   8.406   4.244 -0.2308  0.1245  0.1757
10488SOL    HW133396   3.681   8.366   4.273  0.4343  0.8282 -0.6739
10488SOL    HW233397   3.579   8.472   4.309 -1.3684 -1.5471  1.6305
10489SOL     OW33398   3.104   2.030   4.296 -0.1380  0.5090 -0.6810
10489SOL    HW133399   3.084   2.013   4.204  1.3723 -3.1835 -0.4730
10489SOL    HW233400   3.020   2.025   4.341 -0.4612 -1.9179 -1.4109
10490SOL     OW33401   6.682   7.035   0.819  0.4045 -0.5075 -0.1656
10490SOL    HW133402   6.770   7.051   0.784  0.2375  0.4824 -0.1586
10490SOL    HW233403   6.685   7.072   0.907  0.2951 -1.4431  0.2529
10491SOL     OW33404   0.608   5.573   2.051 -0.2182 -0.0909 -0.0577
10491SOL    HW133405   0.671   5.645   2.045  0.6643 -0.7009  1.3704
10491SOL    HW233406   0.570   5.567   1.964  2.4526 -0.3828 -1.2957
10492SOL     OW33407   0.532   5.382   4.934 -0.1111 -0.0720 -0.1871
10492SOL    HW133408   0.530   5.346   4.845  1.3001  0.2618 -0.3779
10492SOL    HW233409   0.625   5.382   4.957 -0.4120  0.3746  1.0811
10493SOL     OW33410   7.604   8.601   0.837  0.1326 -0.0215  0.8737
10493SOL    HW133411   7.604   8.557   0.922 -0.5763  2.9807  2.5528
10493SOL    HW233412   7.669   8.671   0.846 -0.5019  0.8431 -0.8102
10494SOL     OW33413   5.600   2.865   7.951  0.4585  0.1275 -0.2941
10494SOL    HW133414   5.617   2.797   7.886  0.6735  0.6826 -0.8303
10494SOL    HW233415   5.508   2.853   7.975  1.1043 -1.8705  1.4272
10495SOL     OW33416   8.486   4.061   6.840 -0.3888 -0.4491 -0.4407
10495SOL    HW133417   8.485   3.995   6.771 -1.3145 -1.0708  0.1390
10495SOL    HW233418   8.414   4.037   6.897 -1.2243  1.4986 -0.5970
10496SOL     OW33419   8.772   1.873   5.080  0.1299 -0.0709  0.0454
10496SOL    HW133420   8.735   1.847   4.996  0.9920 -0.2375 -0.2964
10496SOL    HW233421   8.857   1.912   5.058  0.9314 -1.2460  0.9202
10497SOL     OW33422   6.939   6.546   8.186  0.0475  0.4114 -0.0255
10497SOL    HW133423   6.938   6.458   8.150 -3.6653  0.6766 -0.9649
10497SOL    HW233424   6.964   6.603   8.113  1.1973  0.2778  0.2481
10498SOL     OW33425   7.882   5.581   3.225 -0.5516  0.0355 -0.1017
10498SOL    HW133426   7.908   5.611   3.312 -1.6070 -0.5418  0.4404
10498SOL    HW233427   7.786   5.580   3.228 -0.5880 -0.4841 -1.0906
10499SOL     OW33428   0.617   4.552   2.143 -0.1734 -0.1843  0.0456
10499SOL    HW133429   0.634   4.646   2.144  1.5737 -0.4727 -0.3118
10499SOL    HW233430   0.648   4.523   2.057 -0.3066 -1.1608  0.3186
10500SOL     OW33431   7.079   8.353   3.610  0.1312  0.1179  0.1150
10500SOL    HW133432   6.992   8.341   3.571  1.3370  0.6393 -3.0676
10500SOL    HW233433   7.115   8.428   3.564  3.4223 -1.9701 -1.0960
10501SOL     OW33434   4.387   0.889   1.388 -1.2615  0.0816  0.4672
10501SOL    HW133435   4.400   0.980   1.414 -0.2048 -0.0759  0.5469
10501SOL    HW233436   4.292   0.879   1.380 -1.5721  0.4888  2.9712
10502SOL     OW33437   2.387   7.014   7.775  0.2614 -0.3835 -0.4812
10502SOL    HW133438   2.436   6.974   7.703  1.4834 -0.9992  0.6358
10502SOL    HW233439   2.355   6.939   7.826  1.2605  0.0093  0.7824
10503SOL     OW33440   4.108   4.004   7.874  0.1955  0.0140  0.4683
10503SOL    HW133441   4.013   4.010   7.873  0.0989 -0.9735  1.5051
10503SOL    HW233442   4.134   4.024   7.784 -0.9191  1.0581  0.3434
10504SOL     OW33443   1.753   7.244   2.146 -0.8694 -0.6113 -0.1307
10504SOL    HW133444   1.700   7.202   2.214 -1.0337 -1.5407 -0.8015
10504SOL    HW233445   1.811   7.174   2.115  0.4420  0.2737  0.2708
10505SOL     OW33446   7.841   1.204   1.809  0.4289  0.1662 -0.0499
10505SOL    HW133447   7.829   1.132   1.748 -3.8074  0.0443  0.6489
10505SOL    HW233448   7.835   1.283   1.755  0.8073  0.0474 -0.2708
10506SOL     OW33449   8.855   8.081   5.066 -0.2906  0.2359  0.2995
10506SOL    HW133450   8.823   8.161   5.106  0.2255  0.5128  0.1727
10506SOL    HW233451   8.851   8.015   5.135 -1.3903  0.1958  0.2033
10507SOL     OW33452   6.761   1.861   1.619 -0.4468 -0.3810  0.0478
10507SOL    HW133453   6.676   1.879   1.659 -0.2253  0.2916  0.2291
10507SOL    HW233454   6.804   1.947   1.614  0.2095 -0.7085 -0.0607
10508SOL     OW33455   2.614   3.365   7.002 -0.1552 -0.1397  0.4576
10508SOL    HW133456   2.549   3.298   7.022 -0.6440  0.5718  1.3301
10508SOL    HW233457   2.655   3.385   7.086  1.0716 -0.4380 -0.0466
10509SOL     OW33458   3.912   0.063   2.843 -0.0321  0.1120 -0.2139
10509SOL    HW133459   3.942   0.109   2.922 -0.5803 -1.3933  0.9300
10509SOL    HW233460   3.875   0.131   2.788  2.7069  1.6205 -0.3965
10510SOL     OW33461   4.484   8.754   1.541 -0.3132  0.2192 -0.0639
10510SOL    HW133462   4.570   8.792   1.521  0.0034  0.8671  2.2190
10510SOL    HW233463   4.505   8.669   1.580 -0.7487  0.0456 -0.2038
10511SOL     OW33464   4.149   5.809   3.404  0.4330 -0.0533 -0.0755
10511SOL    HW133465   4.095   5.733   3.428  0.9837 -0.8438 -1.1996
10511SOL    HW233466   4.117   5.833   3.316  0.5853  0.7274  0.0762
10512SOL     OW33467   1.760   1.554   5.409 -1.0462 -0.3428 -0.1574
10512SOL    HW133468   1.729   1.537   5.498 -0.7527  0.0422  0.0171
10512SOL    HW233469   1.721   1.484   5.357 -0.1148 -1.3758  0.5003
10513SOL     OW33470   8.739   2.262   6.328  0.0957  0.1843  0.5956
10513SOL    HW133471   8.829   2.296   6.323 -0.2598  0.9010 -2.5756
10513SOL    HW233472   8.737   2.191   6.265 -1.5545  0.1437  0.6671
10514SOL     OW33473   5.290   1.511   1.955  0.0102 -0.4087  0.6106
10514SOL    HW133474   5.343   1.536   1.880  1.1192  1.4021  1.9056
10514SOL    HW233475   5.349   1.460   2.011 -0.2056 -0.1033  1.1305
10515SOL     OW33476   6.134   1.614   7.951  0.0838  0.0467  0.3402
10515SOL    HW133477   6.101   1.678   8.014 -1.0877  0.1727 -0.3651
10515SOL    HW233478   6.058   1.592   7.897  0.9317 -0.4413 -0.6969
10516SOL     OW33479   1.407   5.369   2.736  0.4548  0.0241 -0.0507
10516SOL    HW133480   1.396   5.341   2.645 -1.0361  0.2113  0.0376
10516SOL    HW233481   1.409   5.465   2.731  0.0147  0.0461  0.1349
10517SOL     OW33482   1.328   7.177   2.445  0.2212  0.1757 -0.0984
10517SOL    HW133483   1.288   7.230   2.376  2.0326 -0.7307 -1.9653
10517SOL    HW233484   1.260   7.170   2.513 -0.3692  4.2538  0.0051
10518SOL     OW33485   7.559   5.751   0.912 -0.1369 -0.2836  0.5467
10518SOL    HW133486   7.587   5.736   1.003  0.3647  2.1427  0.8579
10518SOL    HW233487   7.639   5.741   0.860  0.1410  0.8429  0.7233
10519SOL     OW33488   2.257   7.061   6.702 -0.0740  0.5316 -0.1557
10519SOL    HW133489   2.328   7.011   6.662 -0.8973  0.5126 -1.6873
10519SOL    HW233490   2.282   7.071   6.793  0.7563 -1.5384 -0.1132
10520SOL     OW33491   2.097   1.273   2.259 -0.6340  0.5768  0.1769
10520SOL    HW133492   2.126   1.340   2.321  0.2947  0.4758 -0.1304
10520SOL    HW233493   2.119   1.190   2.300 -0.1951  0.5053 -0.1898
10521SOL     OW33494   7.553   1.289   2.329  0.1110  0.1312 -0.0601
10521SOL    HW133495   7.479   1.287   2.390  0.8193  0.5893  0.8331
10521SOL    HW233496   7.630   1.297   2.385  0.7832  0.5647 -1.0234
10522SOL     OW33497   7.883   8.795   8.084 -0.6850  0.0005 -0.6051
10522SOL    HW133498   7.954   8.735   8.062 -0.2578  0.5898 -0.8604
10522SOL    HW233499   7.883   8.860   8.014 -1.2253  0.2278 -0.4041
10523SOL     OW33500   1.550   2.864   6.523 -0.5135  0.3411  0.2481
10523SOL    HW133501   1.490   2.800   6.560 -1.1625  1.2573  0.8195
10523SOL    HW233502   1.563   2.928   6.593 -0.5838  1.3048 -0.5935
10524SOL     OW33503   7.104   1.808   3.501  0.1501 -0.2885  0.2893
10524SOL    HW133504   7.135   1.757   3.426 -0.8611 -3.7785  2.0164
10524SOL    HW233505   7.181   1.818   3.557  0.6440  1.3317 -0.6184
10525SOL     OW33506   2.437   7.809   7.803  0.3252 -0.0411  0.5605
10525SOL    HW133507   2.431   7.788   7.710  1.7723  0.6129  0.3011
10525SOL    HW233508   2.499   7.745   7.838  0.2456  0.0997  0.9627
10526SOL     OW33509   3.230   1.805   4.311  0.5001 -0.4850 -0.1346
10526SOL    HW133510   3.199   1.890   4.343  1.3952  0.2643 -1.1633
10526SOL    HW233511   3.159   1.772   4.256  0.1853 -0.3588  0.1956
10527SOL     OW33512   6.943   7.909   0.188  0.7635 -0.2225  0.0073
10527SOL    HW133513   6.948   7.880   0.097 -0.4831 -0.6787  0.0617
10527SOL    HW233514   6.994   7.990   0.190 -0.8068  0.9018 -1.5895
10528SOL     OW33515   1.274   5.944   1.540 -0.9449  0.0842 -0.2743
10528SOL    HW133516   1.351   5.891   1.557 -1.4165 -0.8448 -0.9717
10528SOL    HW233517   1.266   6.001   1.617  0.9064  0.7992 -0.5658
10529SOL     OW33518   8.730   5.307   8.758  0.3168 -0.1255 -0.1425
10529SOL    HW133519   8.777   5.241   8.808  0.1341 -0.0618  0.1135
10529SOL    HW233520   8.783   5.319   8.679  0.1286 -0.8865 -0.3968
10530SOL     OW33521   7.198   7.583   4.145 -0.2588 -0.3682 -0.1966
10530SOL    HW133522   7.263   7.542   4.088 -1.6485 -0.6744 -1.6440
10530SOL    HW233523   7.222   7.555   4.233 -0.1238 -2.9193 -0.9561
10531SOL     OW33524   1.116   7.459   5.482  0.2673  0.0543  0.1496
10531SOL    HW133525   1.088   7.386   5.427  3.3580 -2.6026  1.7453
10531SOL    HW233526   1.049   7.526   5.469 -3.0386 -3.1666 -1.1543
10532SOL     OW33527   6.402   7.798   4.697  0.1672 -0.3652  0.5603
10532SOL    HW133528   6.475   7.787   4.636 -0.8186 -0.4450 -0.6557
10532SOL    HW233529   6.443   7.819   4.780  1.5356  2.1951 -0.6210
10533SOL     OW33530   6.735   0.986   4.076 -0.2672 -0.4918  0.3958
10533SOL    HW133531   6.670   0.999   4.145 -1.4157 -3.9015  0.1513
10533SOL    HW233532   6.803   0.932   4.116  1.7298  1.6982  0.1827
10534SOL     OW33533   7.051   0.199   6.369  0.5826  0.2182  0.1539
10534SOL    HW133534   7.081   0.262   6.435 -0.1794  0.7347  0.0273
10534SOL    HW233535   6.984   0.148   6.414 -1.1819  1.6928 -0.6504
10535SOL     OW33536   5.175   1.336   7.552 -0.1483 -0.2887  0.0717
10535SOL    HW133537   5.098   1.390   7.569  0.8815  1.6240 -0.9939
10535SOL    HW233538   5.223   1.336   7.634 -1.3363 -1.6769  0.8113
10536SOL     OW33539   2.766   5.664   3.831 -0.5274 -0.0558  0.8109
10536SOL    HW133540   2.804   5.651   3.918  0.3016 -0.3146  0.4177
10536SOL    HW233541   2.836   5.704   3.780  0.5278 -3.6159 -0.8911
10537SOL     OW33542   6.283   6.310   1.914  0.0847  0.2906 -0.5122
10537SOL    HW133543   6.289   6.232   1.859 -1.3897 -1.5036  1.6557
10537SOL    HW233544   6.274   6.275   2.003  0.3257  2.9903  0.6670
10538SOL     OW33545   6.031   5.650   3.052  0.2161  0.3203  0.0917
10538SOL    HW133546   6.018   5.645   2.957  1.9867  1.8167 -0.3100
10538SOL    HW233547   6.061   5.563   3.077 -0.4323 -0.1371 -0.6844
10539SOL     OW33548   5.565   7.657   4.740 -0.1519 -0.0180  0.2426
10539SOL    HW133549   5.557   7.623   4.830 -0.2587  1.0637  0.6640
10539SOL    HW233550   5.483   7.703   4.725 -0.5675 -1.0841 -0.8196
10540SOL     OW33551   4.625   6.221   6.298  0.3084 -0.3622 -0.3301
10540SOL    HW133552   4.657   6.231   6.209  0.1562 -0.6733 -0.4234
10540SOL    HW233553   4.680   6.152   6.335 -0.9798 -1.7314 -0.8611
10541SOL     OW33554   2.935   0.416   6.219  0.1245  0.7205 -0.5644
10541SOL    HW133555   3.017   0.451   6.255 -1.3178  1.8071  1.8640
10541SOL    HW233556   2.945   0.321   6.226  1.1299  0.8359 -0.1702
10542SOL     OW33557   0.396   8.257   2.921 -0.5736 -0.0736  0.1559
10542SOL    HW133558   0.398   8.327   2.986 -0.3623 -0.0064  0.0773
10542SOL    HW233559   0.468   8.277   2.861  1.0013 -1.5881  1.4300
10543SOL     OW33560   7.699   3.259   7.490  0.0482  0.9448 -0.0909
10543SOL    HW133561   7.738   3.333   7.536  0.2489  0.2150  0.9641
10543SOL    HW233562   7.605   3.274   7.494  0.0986  1.2634 -0.0997
10544SOL     OW33563   3.744   0.169   3.690 -0.2391  0.1064 -0.2601
10544SOL    HW133564   3.785   0.083   3.684 -0.2912  0.0667 -0.0366
10544SOL    HW233565   3.786   0.220   3.621 -0.6683 -0.2858 -0.8180
10545SOL     OW33566   0.462   8.516   4.545 -0.3169 -0.3469 -0.5893
10545SOL    HW133567   0.497   8.502   4.633 -3.3801  1.2291  1.0422
10545SOL    HW233568   0.466   8.430   4.503  0.0878 -1.4188  1.5089
10546SOL     OW33569   6.166   1.495   0.458 -0.3233  0.2269 -0.7266
10546SOL    HW133570   6.232   1.431   0.483 -0.7093  0.5939  1.4534
10546SOL    HW233571   6.215   1.575   0.438 -0.0815  0.7720  1.7706
10547SOL     OW33572   7.715   8.016   6.878  0.4353 -0.3161 -0.1837
10547SOL    HW133573   7.707   7.925   6.847 -1.0836 -0.3759  0.2787
10547SOL    HW233574   7.757   8.062   6.806  1.1372 -1.3692 -0.4710
10548SOL     OW33575   6.766   7.897   1.158  0.0949 -0.5401 -0.0722
10548SOL    HW133576   6.841   7.949   1.187 -0.8870  0.9875 -0.2015
10548SOL    HW233577   6.803   7.837   1.093  1.1835  0.2323 -0.2039
10549SOL     OW33578   1.785   2.982   5.021  0.1990 -0.3220 -0.8481
10549SOL    HW133579   1.791   2.956   5.113  0.6325  0.8117 -0.5289
10549SOL    HW233580   1.754   2.904   4.976  3.3518 -2.0927 -0.2871
10550SOL     OW33581   4.073   3.624   5.580  0.0040 -0.5489  0.1104
10550SOL    HW133582   4.134   3.697   5.592  2.7550 -1.7952 -4.0791
10550SOL    HW233583   4.001   3.661   5.528  1.0121 -0.5518 -1.3467
10551SOL     OW33584   6.535   7.966   0.632 -0.2155  0.0466  0.2337
10551SOL    HW133585   6.549   7.922   0.548 -0.4520  2.5774 -1.2197
10551SOL    HW233586   6.441   7.980   0.637 -0.3602 -1.1581  1.5580
10552SOL     OW33587   7.810   6.668   2.910 -0.3261  0.0121  0.1256
10552SOL    HW133588   7.818   6.707   2.824  0.8733 -0.0187  0.2121
10552SOL    HW233589   7.821   6.574   2.895 -0.1477  0.0038  0.3035
10553SOL     OW33590   6.554   3.084   0.662  0.0064 -0.1365  0.5051
10553SOL    HW133591   6.476   3.035   0.637  0.0017  0.6162 -1.0799
10553SOL    HW233592   6.522   3.165   0.700 -0.0503  0.8997 -1.6238
10554SOL     OW33593   8.241   2.596   4.185 -0.1714  0.2544  0.0682
10554SOL    HW133594   8.157   2.550   4.187  0.2380 -0.5282 -0.4050
10554SOL    HW233595   8.301   2.538   4.231 -0.1497  1.3845  1.5234
10555SOL     OW33596   7.348   2.524   3.510 -0.3149  0.0218  0.4124
10555SOL    HW133597   7.297   2.495   3.434  0.6692 -0.7201  0.0232
10555SOL    HW233598   7.317   2.469   3.581  1.4253 -1.9741 -0.2871
10556SOL     OW33599   3.606   4.060   1.014 -0.3033 -0.4648  0.4699
10556SOL    HW133600   3.692   4.103   1.020  0.9150 -2.3050 -1.8525
10556SOL    HW233601   3.618   3.993   0.946 -2.6332 -3.0665  2.3944
10557SOL     OW33602   2.929   8.177   6.135  0.0090 -0.1671 -0.7224
10557SOL    HW133603   2.973   8.218   6.209 -2.3443  0.4564  0.4383
10557SOL    HW233604   2.985   8.104   6.111  1.6320  0.5588  0.6275
10558SOL     OW33605   4.028   1.524   2.611  0.5215 -0.5162 -0.2083
10558SOL    HW133606   3.973   1.534   2.688 -2.3272 -0.6920 -2.0722
10558SOL    HW233607   4.001   1.441   2.573  2.4417 -0.8247 -0.9866
10559SOL     OW33608   5.792   3.969   6.931 -0.1907 -0.3183  0.4335
10559SOL    HW133609   5.768   3.960   6.839 -0.4705 -0.2704  0.5018
10559SOL    HW233610   5.859   4.038   6.931 -1.3166  0.8179  0.4364
10560SOL     OW33611   2.966   1.736   2.940 -0.2356 -0.2123 -0.6401
10560SOL    HW133612   2.943   1.828   2.933 -1.5530 -0.4030  0.8372
10560SOL    HW233613   3.055   1.731   2.905 -0.3612  1.4982 -1.2871
10561SOL     OW33614   1.039   4.937   2.394  0.6648 -0.2137 -0.8226
10561SOL    HW133615   1.097   4.951   2.319  0.7533  0.3553 -0.6483
10561SOL    HW233616   1.037   5.021   2.439  0.0111 -0.3387 -0.6092
10562SOL     OW33617   3.858   3.500   4.148  0.9973  0.3371 -0.5945
10562SOL    HW133618   3.836   3.510   4.056  1.2346  0.6720 -0.6174
10562SOL    HW233619   3.816   3.418   4.175  0.9936  0.1999 -1.0184
10563SOL     OW33620   8.463   5.825   2.917 -0.4060 -0.7026  0.3290
10563SOL    HW133621   8.459   5.870   2.832  0.2072 -0.0090  0.6646
10563SOL    HW233622   8.493   5.892   2.978 -0.3142 -1.3478  0.9951
10564SOL     OW33623   6.400   0.994   5.787  0.0105 -0.2044  0.3751
10564SOL    HW133624   6.335   0.940   5.831  0.4636 -0.8531  0.2481
10564SOL    HW233625   6.356   1.078   5.773 -1.0149 -0.8296 -0.2664
10565SOL     OW33626   5.575   8.223   3.601 -0.3390  0.2030  0.0140
10565SOL    HW133627   5.619   8.211   3.685  1.1877  2.4725 -0.3351
10565SOL    HW233628   5.493   8.176   3.609 -0.0957  0.0675  2.6605
10566SOL     OW33629   8.389   1.951   4.175 -0.2872 -0.2156 -0.6024
10566SOL    HW133630   8.346   1.922   4.255  0.1885  0.0556 -0.2469
10566SOL    HW233631   8.387   2.047   4.180  1.0115 -0.1905 -0.2198
10567SOL     OW33632   4.457   2.963   7.008  0.0942 -0.3209  0.1568
10567SOL    HW133633   4.394   2.917   6.953 -1.9320  1.1561  1.1161
10567SOL    HW233634   4.490   3.034   6.953 -0.3557 -0.0887  0.1865
10568SOL     OW33635   4.691   2.864   5.474  0.4400  0.0384 -0.2275
10568SOL    HW133636   4.707   2.939   5.416 -1.7647 -0.0227 -1.0250
10568SOL    HW233637   4.611   2.887   5.521  0.9687 -0.8848  1.1835
10569SOL     OW33638   4.633   6.686   8.040  0.6253  0.6758  0.6291
10569SOL    HW133639   4.537   6.691   8.041  0.6242  2.8980 -1.8456
10569SOL    HW233640   4.653   6.626   7.968  1.0579  1.8136 -0.2281
10570SOL     OW33641   5.472   4.653   4.211 -0.2228  0.2051 -0.3685
10570SOL    HW133642   5.562   4.669   4.183 -0.5142  0.0274 -1.4193
10570SOL    HW233643   5.422   4.727   4.178 -0.6052 -0.1076 -0.5061
10571SOL     OW33644   1.634   2.698   1.239  0.2151  0.0710 -0.3397
10571SOL    HW133645   1.552   2.742   1.215  0.4382  0.6974  0.0222
10571SOL    HW233646   1.607   2.628   1.298 -0.0814  0.1300 -0.4002
10572SOL     OW33647   0.426   5.888   3.162  0.2622  0.4040  0.4193
10572SOL    HW133648   0.349   5.848   3.122  0.4358  1.7015 -1.3164
10572SOL    HW233649   0.398   5.912   3.250 -0.9232 -0.2898  0.2457
10573SOL     OW33650   2.977   3.146   4.471 -0.2232  0.6083  0.2337
10573SOL    HW133651   3.067   3.127   4.496 -0.3349  1.6061  1.5106
10573SOL    HW233652   2.933   3.062   4.474  0.3503  0.3210  1.0637
10574SOL     OW33653   1.437   7.725   2.891  0.2628  0.1340 -0.0324
10574SOL    HW133654   1.423   7.817   2.913  0.2046  0.4792 -1.4033
10574SOL    HW233655   1.527   7.722   2.859  0.4463 -0.3992  0.5224
10575SOL     OW33656   1.644   8.166   0.911 -1.0504  0.9118  0.1601
10575SOL    HW133657   1.643   8.258   0.887 -1.8134  1.0402  0.6493
10575SOL    HW233658   1.656   8.167   1.006 -0.5891  0.4885  0.1098
10576SOL     OW33659   0.837   8.093   2.593 -0.0886 -0.1055 -0.4945
10576SOL    HW133660   0.840   8.181   2.630 -1.4006  1.2105 -3.2353
10576SOL    HW233661   0.923   8.082   2.551 -0.1919  0.1619 -0.7745
10577SOL     OW33662   1.889   2.228   4.345 -0.1432 -0.6859 -0.7988
10577SOL    HW133663   1.944   2.177   4.285  0.7915  0.3625 -0.8684
10577SOL    HW233664   1.911   2.194   4.432 -1.6011 -2.3050 -1.0162
10578SOL     OW33665   2.346   3.182   2.419 -0.4491  0.2451  0.0327
10578SOL    HW133666   2.385   3.268   2.403 -1.5083  0.9662  1.1623
10578SOL    HW233667   2.392   3.149   2.496 -0.5825  0.1428  0.0682
10579SOL     OW33668   2.284   1.032   0.242  0.4029 -0.1859 -0.0012
10579SOL    HW133669   2.314   0.948   0.207 -0.4924 -0.5276  0.0242
10579SOL    HW233670   2.305   1.027   0.335  1.3484  0.0752 -0.1924
10580SOL     OW33671   1.353   3.139   5.650 -0.2538 -0.3946  0.2326
10580SOL    HW133672   1.317   3.118   5.736 -1.5789 -1.2570 -0.5024
10580SOL    HW233673   1.280   3.128   5.590  0.8556 -0.6796 -1.1245
10581SOL     OW33674   5.956   1.916   7.886  0.0106  0.2438 -0.6463
10581SOL    HW133675   5.899   1.853   7.841 -0.4451  1.1398 -1.3514
10581SOL    HW233676   5.992   1.970   7.816 -0.2799  1.3089  0.0074
10582SOL     OW33677   3.112   2.887   5.941 -0.1742 -0.3249 -0.1273
10582SOL    HW133678   3.158   2.963   5.904 -1.0117  0.6958  0.8382
10582SOL    HW233679   3.059   2.854   5.868 -0.3872  0.5048 -0.3628
10583SOL     OW33680   4.408   5.215   1.636 -0.0123  0.1121 -0.4304
10583SOL    HW133681   4.326   5.230   1.684  0.0067  1.8214 -0.8696
10583SOL    HW233682   4.379   5.184   1.550 -0.2045  0.6310 -0.5564
10584SOL     OW33683   4.586   4.485   0.008  0.0077 -0.6973 -0.3473
10584SOL    HW133684   4.501   4.487  -0.036  0.4055 -0.4869 -1.1304
10584SOL    HW233685   4.580   4.552   0.076  0.3402  1.0530 -1.9580
10585SOL     OW33686   6.976   0.454   0.844 -0.5803 -0.5881 -0.4921
10585SOL    HW133687   6.904   0.515   0.860  0.2701  0.2559  0.1769
10585SOL    HW233688   7.028   0.496   0.776  1.0226  0.3511  1.2360
10586SOL     OW33689   4.910   1.466   6.752 -0.5539  0.5952 -0.0585
10586SOL    HW133690   4.980   1.474   6.816  2.7604 -0.4663 -3.2122
10586SOL    HW233691   4.898   1.554   6.718  0.4856  0.5427 -0.6089
10587SOL     OW33692   6.443   0.627   1.379 -0.0717  0.8981  0.2795
10587SOL    HW133693   6.365   0.591   1.336  0.9725 -1.4539  0.1717
10587SOL    HW233694   6.514   0.609   1.318  0.5410  3.5838  0.0909
10588SOL     OW33695   8.257   8.080   0.445  0.1673 -0.2303 -0.1409
10588SOL    HW133696   8.251   8.002   0.389 -0.8373  0.1877 -0.6581
10588SOL    HW233697   8.339   8.069   0.493 -0.6458 -2.3354  0.9066
10589SOL     OW33698   5.628   8.392   2.923 -0.1246  0.0659  0.5222
10589SOL    HW133699   5.623   8.308   2.877 -0.0848 -0.3706  1.3036
10589SOL    HW233700   5.642   8.457   2.853 -1.7411 -0.3816 -0.2705
10590SOL     OW33701   1.393   3.765   0.793 -1.3111  0.2409 -0.1734
10590SOL    HW133702   1.466   3.703   0.802 -1.2125  0.3845  0.0119
10590SOL    HW233703   1.375   3.794   0.882 -2.6996 -1.0582  0.0021
10591SOL     OW33704   4.984   7.305   3.930 -0.3331  0.4365  0.3519
10591SOL    HW133705   4.895   7.273   3.921  0.0413 -0.5629  0.1500
10591SOL    HW233706   4.975   7.390   3.974 -1.1530 -1.1742  3.5638
10592SOL     OW33707   0.878   7.689   7.943  0.6535 -0.0922 -0.5372
10592SOL    HW133708   0.916   7.607   7.976 -0.1095  0.1381  0.9513
10592SOL    HW233709   0.917   7.757   7.997 -1.2580  0.2210  0.5109
10593SOL     OW33710   5.022   6.604   7.809 -0.0539  1.0725 -0.4845
10593SOL    HW133711   5.030   6.607   7.904  0.7094  0.6609 -0.5245
10593SOL    HW233712   5.095   6.548   7.780 -2.4058 -1.9757 -1.0371
10594SOL     OW33713   0.231   7.826   8.499  0.1858  0.1046 -0.1662
10594SOL    HW133714   0.248   7.807   8.407  1.3801 -0.8226  0.2310
10594SOL    HW233715   0.223   7.922   8.503  0.6063  0.1806 -1.1454
10595SOL     OW33716   4.772   2.817   6.595 -0.1994  0.5429 -0.4128
10595SOL    HW133717   4.838   2.846   6.658 -0.5001 -0.5390  0.4310
10595SOL    HW233718   4.721   2.896   6.575  1.2145  1.3553 -0.9436
10596SOL     OW33719   5.877   8.770   4.974 -0.5205 -0.1158 -0.3397
10596SOL    HW133720   5.860   8.759   5.068 -1.3087 -0.8842 -0.5557
10596SOL    HW233721   5.856   8.685   4.936  2.3794 -0.6817 -0.8900
10597SOL     OW33722   7.066   1.591   0.532 -0.2172 -0.3823  0.1889
10597SOL    HW133723   7.050   1.496   0.528  0.5632 -0.5859  1.4035
10597SOL    HW233724   7.162   1.599   0.530 -0.2905  0.4370 -0.6436
10598SOL     OW33725   7.894   5.514   4.671 -0.2203  0.4213 -0.0240
10598SOL    HW133726   7.873   5.558   4.589  1.4955  2.3420  0.4825
10598SOL    HW233727   7.818   5.531   4.727 -2.3410 -2.5907 -1.6803
10599SOL     OW33728   1.768   0.103   1.926 -0.0932  0.5721  0.3532
10599SOL    HW133729   1.717   0.109   2.007 -2.0611 -0.8753 -0.7030
10599SOL    HW233730   1.783   0.010   1.914 -0.3153  0.7174 -1.2356
10600SOL     OW33731   4.641   2.751   3.977 -0.3572 -0.4742  0.6629
10600SOL    HW133732   4.593   2.678   3.938  1.2179 -0.4765 -1.4593
10600SOL    HW233733   4.722   2.712   4.010  0.5028  0.2447 -0.4998
10601SOL     OW33734   0.686   7.527   1.935 -0.3932 -0.0122 -0.6344
10601SOL    HW133735   0.609   7.578   1.962 -1.4031 -0.4942 -2.4088
10601SOL    HW233736   0.761   7.579   1.963 -1.3873  1.7451 -1.0889
10602SOL     OW33737   8.743   0.519   7.956 -0.3556 -0.5524 -0.1941
10602SOL    HW133738   8.786   0.533   8.040  1.1811  1.7110 -1.2523
10602SOL    HW233739   8.679   0.589   7.949  1.4173  1.0383 -1.9561
10603SOL     OW33740   3.645   3.796   0.588 -0.0100  0.4807  0.3916
10603SOL    HW133741   3.679   3.884   0.597 -0.5744  0.7057  0.3705
10603SOL    HW233742   3.589   3.784   0.665  1.1065 -0.3498  1.1094
10604SOL     OW33743   8.624   5.316   4.417 -0.2689  0.2445 -0.6246
10604SOL    HW133744   8.695   5.257   4.391 -0.1502  1.2723 -2.8217
10604SOL    HW233745   8.580   5.269   4.488  2.3160 -0.6038  0.5402
10605SOL     OW33746   4.571   5.243   2.011  0.1146 -0.1476 -0.4942
10605SOL    HW133747   4.501   5.289   2.058 -0.5530 -1.7816  0.1754
10605SOL    HW233748   4.561   5.271   1.920 -0.7644  0.4302 -0.2371
10606SOL     OW33749   5.876   3.230   7.963  0.2016 -0.2206  0.2784
10606SOL    HW133750   5.786   3.223   7.931  0.4010 -2.7724  0.1037
10606SOL    HW233751   5.910   3.140   7.962  2.4793  0.5419  1.1725
10607SOL     OW33752   4.951   8.011   6.304  0.5067 -0.2587 -0.2411
10607SOL    HW133753   5.010   8.083   6.324  1.3694 -0.5303 -1.6428
10607SOL    HW233754   4.975   7.941   6.365  0.3684  0.2678  0.4246
10608SOL     OW33755   4.883   7.322   4.269 -0.3663  0.3860 -0.3450
10608SOL    HW133756   4.949   7.333   4.337 -1.3158  0.5277  0.5757
10608SOL    HW233757   4.900   7.235   4.232 -0.8340 -0.4001  1.2034
10609SOL     OW33758   7.864   7.700   4.829 -0.2757 -0.1222 -0.2196
10609SOL    HW133759   7.955   7.690   4.857 -0.4335 -2.6919 -0.3807
10609SOL    HW233760   7.869   7.724   4.737  0.2222  0.2649 -0.0975
10610SOL     OW33761   5.810   1.964   6.027  0.1647  0.1208  0.1194
10610SOL    HW133762   5.737   1.973   5.967  0.3563 -0.0280 -0.1361
10610SOL    HW233763   5.809   1.872   6.053  0.4783  0.0320 -0.1664
10611SOL     OW33764   0.870   8.290   2.904  0.1933  0.0519 -0.6459
10611SOL    HW133765   0.962   8.273   2.925  0.5566  0.9912 -1.4053
10611SOL    HW233766   0.873   8.336   2.820 -0.8979  1.1572 -0.1074
10612SOL     OW33767   1.552   1.016   0.073  0.1505  0.2641  0.1204
10612SOL    HW133768   1.545   1.084   0.006 -1.1043 -1.0959 -1.1847
10612SOL    HW233769   1.481   1.037   0.134 -0.7059 -0.2665 -0.6727
10613SOL     OW33770   1.715   1.765   3.122 -0.1519 -0.2447  0.1045
10613SOL    HW133771   1.671   1.834   3.073 -1.3340 -1.8074 -1.1547
10613SOL    HW233772   1.756   1.810   3.196 -2.3881  1.5444  0.3477
10614SOL     OW33773   3.882   5.775   5.938 -0.4995 -0.8935 -0.2471
10614SOL    HW133774   3.876   5.765   6.033  0.9082 -3.6485 -0.3624
10614SOL    HW233775   3.970   5.746   5.915  0.3612  2.6763 -2.1718
10615SOL     OW33776   8.206   3.338   0.731  0.0521  0.0576  0.5152
10615SOL    HW133777   8.244   3.382   0.655 -0.4939  0.8537  0.6797
10615SOL    HW233778   8.114   3.327   0.708  0.4794 -2.5813 -0.2143
10616SOL     OW33779   5.643   0.363   4.400  0.2301  0.4121  0.2646
10616SOL    HW133780   5.634   0.382   4.307  2.8631  0.1472 -0.1196
10616SOL    HW233781   5.601   0.278   4.412  0.8593 -0.0798 -0.9370
10617SOL     OW33782   8.634   2.842   8.373 -0.4486  0.3458 -0.3283
10617SOL    HW133783   8.545   2.856   8.404 -0.4855 -0.8443  0.1154
10617SOL    HW233784   8.689   2.849   8.451 -0.3724 -0.9814 -0.2453
10618SOL     OW33785   2.513   2.262   2.235  0.4944 -0.0041 -0.0976
10618SOL    HW133786   2.444   2.319   2.268  0.8511  0.4957 -0.2073
10618SOL    HW233787   2.522   2.194   2.302  0.0893  0.0821  0.0469
10619SOL     OW33788   0.821   8.293   3.445 -0.2994  0.2146  0.1967
10619SOL    HW133789   0.892   8.356   3.453  0.5076 -0.7651  1.1381
10619SOL    HW233790   0.861   8.209   3.469 -0.9626 -0.9248 -2.4087
10620SOL     OW33791   8.821   3.446   8.365 -0.1269 -0.1451 -0.0809
10620SOL    HW133792   8.916   3.458   8.366 -0.3420  2.2525  1.5959
10620SOL    HW233793   8.790   3.507   8.297 -0.4545 -1.6757 -1.3631
10621SOL     OW33794   5.484   0.229   6.763 -0.8524  0.2626 -0.2515
10621SOL    HW133795   5.527   0.311   6.739  1.1652 -0.3185  1.0802
10621SOL    HW233796   5.529   0.201   6.843 -2.0785 -1.6944 -0.1790
10622SOL     OW33797   6.774   4.358   1.257  0.2494 -0.3007 -0.2679
10622SOL    HW133798   6.782   4.408   1.338  0.4349  1.8300 -1.5157
10622SOL    HW233799   6.862   4.359   1.219 -0.0914 -0.2048 -1.0771
10623SOL     OW33800   7.491   1.642   6.792 -0.0015  0.5446  0.0933
10623SOL    HW133801   7.405   1.624   6.830 -0.2018 -1.0594 -1.0227
10623SOL    HW233802   7.544   1.674   6.866 -1.0337 -0.2320  1.2127
10624SOL     OW33803   4.671   2.451   3.491 -0.2353  0.3357 -0.2343
10624SOL    HW133804   4.674   2.497   3.407 -0.1935  0.5195 -0.1315
10624SOL    HW233805   4.588   2.477   3.530 -1.6419 -1.9549 -1.4760
10625SOL     OW33806   4.203   6.552   2.864 -0.2872  0.2313  0.1905
10625SOL    HW133807   4.264   6.491   2.904  1.3086  2.1903  0.9179
10625SOL    HW233808   4.235   6.562   2.774 -0.1777  0.4312  0.2501
10626SOL     OW33809   8.683   3.085   7.514 -0.2751  0.0022  0.2021
10626SOL    HW133810   8.680   3.039   7.431 -1.2512 -0.2326  0.3552
10626SOL    HW233811   8.715   3.172   7.492  1.9200 -0.8140 -0.0361
10627SOL     OW33812   7.526   0.661   1.421 -0.1350 -0.3472 -0.7724
10627SOL    HW133813   7.574   0.586   1.456  0.4102  0.3108 -0.0594
10627SOL    HW233814   7.497   0.634   1.334 -0.0614 -1.4236 -0.4729
10628SOL     OW33815   6.889   2.426   8.128 -0.2052  0.4961  0.2514
10628SOL    HW133816   6.846   2.404   8.045 -1.2812  1.7586  0.4418
10628SOL    HW233817   6.908   2.520   8.121  0.6660  0.3907  1.0170
10629SOL     OW33818   6.311   2.655   5.633  0.2083  0.3046  0.1920
10629SOL    HW133819   6.276   2.568   5.650  1.5950 -0.4646 -0.7110
10629SOL    HW233820   6.322   2.694   5.720  3.0840 -1.8765  0.9623
10630SOL     OW33821   5.126   8.604   5.977  0.1380 -0.3891 -0.3167
10630SOL    HW133822   5.191   8.648   6.032  0.4237  0.0256 -0.9596
10630SOL    HW233823   5.172   8.591   5.894 -1.4419  2.5802 -1.8351
10631SOL     OW33824   3.208   2.883   3.206  0.3510  0.6066  0.3404
10631SOL    HW133825   3.130   2.937   3.218 -1.2845 -1.7354  0.9186
10631SOL    HW233826   3.248   2.879   3.292  0.1381  0.4371  0.4330
10632SOL     OW33827   8.824   5.528   8.498  0.7490 -0.5076  0.3427
10632SOL    HW133828   8.907   5.536   8.546  1.4699 -1.4483 -0.7012
10632SOL    HW233829   8.822   5.436   8.470 -0.5211 -0.4198  0.1080
10633SOL     OW33830   4.923   5.638   5.196 -0.4452 -0.3326 -0.0085
10633SOL    HW133831   4.955   5.564   5.248 -1.0637 -2.0668 -1.9932
10633SOL    HW233832   4.828   5.627   5.195 -0.3930 -0.9216 -2.2647
10634SOL     OW33833   8.823   5.743   3.978  0.0109  0.0955  0.1895
10634SOL    HW133834   8.839   5.649   3.978 -2.4532 -0.4241 -1.6909
10634SOL    HW233835   8.847   5.772   3.889 -2.8434  0.4339 -0.5525
10635SOL     OW33836   0.929   6.187   2.034 -0.2521 -0.1073 -0.1225
10635SOL    HW133837   0.951   6.218   2.122  0.3656  0.9078 -0.6217
10635SOL    HW233838   0.835   6.201   2.026 -0.4580 -0.9293  0.6467
10636SOL     OW33839   1.823   1.799   8.444  0.0349 -0.1288  0.3855
10636SOL    HW133840   1.837   1.749   8.525 -0.1758 -0.1256  0.4267
10636SOL    HW233841   1.761   1.868   8.470  0.7117  0.4655  0.4471
10637SOL     OW33842   4.074   6.267   6.569  0.0974 -0.0949 -0.1611
10637SOL    HW133843   3.985   6.232   6.564 -0.0384  0.2943 -0.6010
10637SOL    HW233844   4.123   6.217   6.504 -0.0711  0.4436 -0.7130
10638SOL     OW33845   4.571   3.843   0.828 -0.8140  0.8068 -0.5410
10638SOL    HW133846   4.521   3.913   0.870 -2.3672  0.3171 -1.4834
10638SOL    HW233847   4.635   3.817   0.894 -2.8335  0.3960  1.4083
10639SOL     OW33848   6.710   5.249   6.173  0.0481  0.0151  0.8039
10639SOL    HW133849   6.786   5.276   6.224  1.0710 -0.0797 -0.5913
10639SOL    HW233850   6.642   5.314   6.193  0.9279  0.8618  1.0874
10640SOL     OW33851   7.714   1.458   7.225 -0.7110 -0.1957 -0.1049
10640SOL    HW133852   7.758   1.483   7.306  0.4908 -1.0001 -0.4698
10640SOL    HW233853   7.632   1.417   7.253 -1.0363  0.9098  0.6190
10641SOL     OW33854   7.670   4.846   7.296 -0.1285  0.2466 -0.6042
10641SOL    HW133855   7.697   4.936   7.315  0.1670  0.0142  0.1139
10641SOL    HW233856   7.639   4.849   7.206  0.0930  1.0220 -0.6635
10642SOL     OW33857   1.077   1.203   4.244  0.3088 -0.2479  0.2039
10642SOL    HW133858   1.155   1.178   4.194  0.6020 -0.3056  0.6888
10642SOL    HW233859   1.046   1.283   4.201  0.3589 -0.4879 -0.2850
10643SOL     OW33860   7.373   0.532   2.740  0.5876  0.0388  0.1798
10643SOL    HW133861   7.443   0.543   2.676 -1.8412  1.1628 -2.4994
10643SOL    HW233862   7.355   0.438   2.739  0.0648  0.1161 -1.5064
10644SOL     OW33863   2.239   0.867   7.349 -0.3355 -0.3085 -0.2498
10644SOL    HW133864   2.200   0.948   7.385  0.2527 -0.1476  0.0373
10644SOL    HW233865   2.303   0.898   7.285 -1.2495 -0.5936 -1.3256
10645SOL     OW33866   2.585   5.466   1.842 -0.2901 -0.2605 -0.1545
10645SOL    HW133867   2.521   5.411   1.798 -0.2154  0.1186 -0.7638
10645SOL    HW233868   2.637   5.406   1.895 -0.1141 -0.8011 -0.9170
10646SOL     OW33869   3.493   1.062   8.094  0.0769 -0.3969  0.3721
10646SOL    HW133870   3.543   1.116   8.032 -0.0634  0.5459  1.0582
10646SOL    HW233871   3.402   1.086   8.079 -0.1189 -1.5415 -0.3342
10647SOL     OW33872   3.308   4.194   8.104 -0.3555  0.3372  0.3141
10647SOL    HW133873   3.358   4.145   8.169  1.0641  0.5702 -0.5786
10647SOL    HW233874   3.349   4.280   8.103 -0.8534  0.5684 -0.3576
10648SOL     OW33875   8.616   7.674   4.991  0.1013 -0.3693 -0.1134
10648SOL    HW133876   8.603   7.762   4.955  0.2359 -0.2276  0.1843
10648SOL    HW233877   8.559   7.671   5.068  0.3475 -0.4288  0.0677
10649SOL     OW33878   5.332   4.670   4.566 -0.5115 -1.3357 -0.2657
10649SOL    HW133879   5.269   4.695   4.499 -0.5361  0.1189  0.2694
10649SOL    HW233880   5.417   4.673   4.522 -0.4226  0.5546 -0.0294
10650SOL     OW33881   7.725   1.574   4.671  0.1074 -0.1511  0.6952
10650SOL    HW133882   7.706   1.637   4.601  0.6383  0.1253  0.8002
10650SOL    HW233883   7.748   1.628   4.747  0.4690 -0.4721  0.8159
10651SOL     OW33884   1.818   2.686   5.631 -0.1768 -0.0022  0.8526
10651SOL    HW133885   1.796   2.594   5.616 -1.2562  0.0710  1.8540
10651SOL    HW233886   1.906   2.684   5.669  0.0872 -0.5559  0.2391
10652SOL     OW33887   7.884   1.932   7.889 -0.0540  0.1255  0.1285
10652SOL    HW133888   7.842   2.004   7.937  0.5605 -0.0447  0.9537
10652SOL    HW233889   7.819   1.861   7.890 -0.5848  0.5904 -0.5175
10653SOL     OW33890   4.385   7.491   5.515  0.0095 -0.8768 -0.3724
10653SOL    HW133891   4.410   7.401   5.494  1.5710 -0.8837  1.2870
10653SOL    HW233892   4.452   7.521   5.576 -1.7227  0.6472  0.8849
10654SOL     OW33893   6.086   4.736   8.054  0.0067  0.1949 -0.8217
10654SOL    HW133894   6.142   4.724   8.130 -1.3808  1.1334  0.4105
10654SOL    HW233895   6.091   4.829   8.034 -0.0272  0.0410 -1.5785
10655SOL     OW33896   4.793   8.244   8.457  0.3201 -0.3736  0.1792
10655SOL    HW133897   4.760   8.285   8.378  1.5318  1.5807  0.6279
10655SOL    HW233898   4.730   8.268   8.525 -0.9092 -2.3408 -0.1940
10656SOL     OW33899   1.277   0.733   4.232  0.0308  0.1840  0.2851
10656SOL    HW133900   1.274   0.698   4.321 -1.6978 -3.3690 -0.9718
10656SOL    HW233901   1.186   0.737   4.204  0.5707 -0.1166 -1.7405
10657SOL     OW33902   8.373   2.810   4.063  0.3695 -0.3254  0.0260
10657SOL    HW133903   8.330   2.746   4.119  2.1189 -1.3155  0.3042
10657SOL    HW233904   8.438   2.760   4.014 -0.7243  0.5946 -2.5552
10658SOL     OW33905   1.024   2.245   2.026 -0.0538 -0.4179  0.0928
10658SOL    HW133906   0.958   2.194   2.072  0.6946  0.2053  1.9653
10658SOL    HW233907   1.007   2.335   2.052  3.3211 -0.4613  3.2718
10659SOL     OW33908   4.696   1.719   8.383  0.3777 -0.0240  0.1070
10659SOL    HW133909   4.643   1.767   8.319 -0.1815  0.7305  1.0961
10659SOL    HW233910   4.779   1.766   8.386  0.0864  0.4732  0.5608
10660SOL     OW33911   4.219   2.155   3.805  0.2965 -0.3625 -0.2931
10660SOL    HW133912   4.249   2.245   3.811  1.4417 -0.7836  0.6510
10660SOL    HW233913   4.196   2.144   3.712  1.3314  0.5304 -0.6785
10661SOL     OW33914   1.175   1.122   0.438  0.7086  0.2865  0.2333
10661SOL    HW133915   1.099   1.112   0.380  0.2569  1.9300  0.5181
10661SOL    HW233916   1.194   1.032   0.467  0.1982 -0.4249 -1.4799
10662SOL     OW33917   6.584   5.264   7.411  0.0660 -0.0925  0.1929
10662SOL    HW133918   6.495   5.267   7.446 -0.4189 -0.5762 -0.9690
10662SOL    HW233919   6.600   5.351   7.375  0.1225  0.0346  0.5185
10663SOL     OW33920   7.837   2.481   8.802 -0.1932 -0.0497 -0.3141
10663SOL    HW133921   7.832   2.504   8.895  3.0264 -0.8678  0.1965
10663SOL    HW233922   7.857   2.563   8.757  4.5407 -0.3669  0.6655
10664SOL     OW33923   2.160   1.391   6.861 -0.2599  0.6564 -0.0747
10664SOL    HW133924   2.217   1.464   6.887 -0.9459  2.4837 -3.1377
10664SOL    HW233925   2.092   1.432   6.808 -1.3903 -2.1075 -0.9417
10665SOL     OW33926   5.143   5.317   4.749 -0.7742 -0.1740  0.0404
10665SOL    HW133927   5.207   5.253   4.781  0.1576  1.2444  1.1303
10665SOL    HW233928   5.171   5.337   4.660  0.9987  1.1747  0.8196
10666SOL     OW33929   6.201   0.183   2.067 -0.0135 -0.4707 -0.5329
10666SOL    HW133930   6.146   0.253   2.031  1.5668  0.0976 -1.9845
10666SOL    HW233931   6.280   0.227   2.098  0.6428 -1.5114 -0.6595
10667SOL     OW33932   6.682   5.800   1.553 -0.1836 -0.2066  0.1865
10667SOL    HW133933   6.698   5.737   1.482 -0.1576  0.2400 -0.2041
10667SOL    HW233934   6.623   5.864   1.515  0.9896  0.8602  0.0932
10668SOL     OW33935   1.020   6.318   3.564  0.3736 -0.7445 -0.1736
10668SOL    HW133936   1.113   6.336   3.557  0.5376 -1.3352  0.4663
10668SOL    HW233937   1.013   6.223   3.563 -0.3261 -0.7153 -1.4594
10669SOL     OW33938   8.643   5.700   7.874  0.2327  0.9383  0.2076
10669SOL    HW133939   8.673   5.691   7.783 -0.1321  0.4603  0.1334
10669SOL    HW233940   8.624   5.611   7.902  3.3116  0.6395  1.7916
10670SOL     OW33941   1.278   4.589   4.759  0.0008 -0.4593 -0.1505
10670SOL    HW133942   1.242   4.508   4.796 -0.1778 -0.3362 -0.0544
10670SOL    HW233943   1.296   4.645   4.835 -0.9233  0.0254 -0.2738
10671SOL     OW33944   6.416   5.022   2.975 -0.1175 -0.1105 -0.0717
10671SOL    HW133945   6.335   4.970   2.978 -0.1367 -0.1710 -1.2102
10671SOL    HW233946   6.391   5.102   2.929  0.1290  0.5202  0.8751
10672SOL     OW33947   4.628   4.145   7.088  0.3403 -0.3490 -0.4362
10672SOL    HW133948   4.674   4.062   7.096 -0.2591 -0.5156  1.9160
10672SOL    HW233949   4.536   4.121   7.077  0.0430 -0.0277  1.1807
10673SOL     OW33950   5.458   2.024   8.828  0.0724 -0.1779 -0.4676
10673SOL    HW133951   5.419   2.086   8.890  2.3823  1.9952 -1.0490
10673SOL    HW233952   5.384   1.995   8.774 -1.2346  1.3484  0.4037
10674SOL     OW33953   5.731   2.251   6.959  0.3823 -0.0066 -0.2721
10674SOL    HW133954   5.729   2.189   6.886 -0.4310 -0.1852 -0.1054
10674SOL    HW233955   5.644   2.245   6.999  0.6015  0.5618  0.3188
10675SOL     OW33956   5.041   6.861   3.432 -0.0753  0.6303  0.2062
10675SOL    HW133957   5.019   6.954   3.437  0.8524  0.8533  0.3421
10675SOL    HW233958   5.136   6.858   3.442 -0.1176 -0.3544  0.4575
10676SOL     OW33959   0.754   0.507   4.715 -0.1421 -0.2254 -0.0145
10676SOL    HW133960   0.731   0.500   4.808  2.6670 -0.3636  0.7585
10676SOL    HW233961   0.697   0.443   4.672 -1.4385 -0.2483  1.6030
10677SOL     OW33962   3.620   5.820   2.085  0.2940  0.1262 -0.0132
10677SOL    HW133963   3.540   5.865   2.058 -0.5245 -1.2802 -0.0358
10677SOL    HW233964   3.627   5.746   2.024 -0.3617 -1.8321  2.1433
10678SOL     OW33965   4.563   1.608   0.437 -0.0663  0.3582 -0.0066
10678SOL    HW133966   4.597   1.687   0.396  0.7831  0.5562  1.0490
10678SOL    HW233967   4.641   1.556   0.457 -0.4449  0.3335  1.4748
10679SOL     OW33968   7.361   1.987   7.117  0.2825  0.1539  0.1858
10679SOL    HW133969   7.372   2.071   7.161  1.6262  0.3775 -0.5128
10679SOL    HW233970   7.434   1.934   7.148  0.6360 -0.0410 -0.9231
10680SOL     OW33971   2.316   5.483   8.262  0.4039  0.2899 -0.4100
10680SOL    HW133972   2.381   5.526   8.206  0.0622  2.4901  0.7424
10680SOL    HW233973   2.280   5.554   8.315 -0.5757 -1.3940  1.3198
10681SOL     OW33974   4.808   2.711   5.239 -0.6028 -0.1148 -0.4868
10681SOL    HW133975   4.866   2.635   5.240 -0.4151 -0.0202 -1.8165
10681SOL    HW233976   4.739   2.689   5.301  0.1485 -0.7974  0.1369
10682SOL     OW33977   4.553   6.264   6.975 -0.0432  0.1819  0.5103
10682SOL    HW133978   4.572   6.186   6.923  0.1660  0.6515 -0.1287
10682SOL    HW233979   4.489   6.235   7.040 -1.6899 -0.0406 -1.1248
10683SOL     OW33980   6.901   3.386   7.460 -0.2757  0.4216  0.2599
10683SOL    HW133981   6.988   3.422   7.445  0.4490 -0.8710  1.2035
10683SOL    HW233982   6.843   3.443   7.409  1.2585  0.4723 -1.5638
10684SOL     OW33983   7.562   1.895   0.278 -0.2316 -0.1023 -0.0207
10684SOL    HW133984   7.471   1.873   0.297 -0.0654  0.0824  1.0253
10684SOL    HW233985   7.612   1.851   0.347  0.5609 -0.9659 -1.0988
10685SOL     OW33986   5.411   7.010   5.684 -0.1458 -0.6871  0.1550
10685SOL    HW133987   5.465   7.078   5.725 -1.9466  0.2632  1.0858
10685SOL    HW233988   5.474   6.943   5.657  1.3071 -0.9945  3.7035
10686SOL     OW33989   3.667   8.386   4.768  0.0030 -0.2338 -0.4977
10686SOL    HW133990   3.731   8.326   4.731 -0.8005 -0.7844 -1.0365
10686SOL    HW233991   3.692   8.396   4.860  0.7059 -0.6279 -0.6411
10687SOL     OW33992   2.521   4.780   4.230  0.5361  0.1878  0.1586
10687SOL    HW133993   2.472   4.709   4.272  1.1119  0.6927  1.7741
10687SOL    HW233994   2.606   4.779   4.273  0.4126  2.1189  0.5698
10688SOL     OW33995   0.932   4.562   1.166 -0.0229 -0.0284 -0.6077
10688SOL    HW133996   0.999   4.617   1.126 -1.8641  0.1754 -3.8194
10688SOL    HW233997   0.927   4.485   1.108  0.3405 -2.1762  2.0175
10689SOL     OW33998   2.141   0.254   3.042 -0.3842  0.0083 -0.0462
10689SOL    HW133999   2.136   0.265   3.137 -3.2589 -0.0964 -0.0878
10689SOL    HW234000   2.168   0.340   3.009 -0.9354  0.5251  0.8069
10690SOL     OW34001   2.913   3.211   7.836 -0.6894 -0.1589 -0.8065
10690SOL    HW134002   2.880   3.292   7.874 -0.1607  0.7135 -2.1453
10690SOL    HW234003   2.978   3.179   7.899 -0.9482  0.4234 -0.2397
10691SOL     OW34004   3.744   8.247   8.753 -0.1088 -0.2949 -0.1828
10691SOL    HW134005   3.773   8.289   8.834  3.7148 -0.7857 -1.0842
10691SOL    HW234006   3.710   8.162   8.781  0.7950 -0.3054  0.9808
10692SOL     OW34007   6.072   3.221   8.266  0.1965 -0.0121 -0.5261
10692SOL    HW134008   6.063   3.295   8.207 -1.7399 -0.8707 -1.3931
10692SOL    HW234009   6.137   3.165   8.225 -0.8372 -0.4057 -1.6768
10693SOL     OW34010   3.440   1.113   1.655  0.0723  0.1751 -0.6087
10693SOL    HW134011   3.499   1.185   1.631 -1.0058  1.2209 -0.2117
10693SOL    HW234012   3.497   1.048   1.695  1.1311  0.6329 -1.3172
10694SOL     OW34013   3.423   7.374   2.799  0.0592 -0.5453 -0.6730
10694SOL    HW134014   3.452   7.465   2.799  1.4727 -0.9604 -1.6988
10694SOL    HW234015   3.392   7.359   2.889 -0.2908  0.9558 -0.5134
10695SOL     OW34016   3.381   6.517   7.022 -0.0778 -0.3146  0.1428
10695SOL    HW134017   3.436   6.530   7.100 -0.1861 -2.8897  0.7580
10695SOL    HW234018   3.308   6.577   7.033 -0.0967 -0.6327  2.0772
10696SOL     OW34019   6.650   6.420   3.958 -0.0156 -0.0441 -0.2832
10696SOL    HW134020   6.581   6.450   3.898  1.4984  1.6661 -1.2863
10696SOL    HW234021   6.673   6.333   3.926 -1.6821 -0.6566  0.0855
10697SOL     OW34022   0.055   6.878   8.421  0.0936  0.4934  0.0705
10697SOL    HW134023   0.115   6.884   8.496 -0.3645 -0.3060  0.5210
10697SOL    HW234024   0.088   6.942   8.358  0.9718  0.5960  0.6197
10698SOL     OW34025   0.699   8.016   3.862 -0.0186  0.2708  0.1555
10698SOL    HW134026   0.623   7.978   3.819  1.2077 -2.1889 -0.0256
10698SOL    HW234027   0.688   7.992   3.954  0.8414 -0.7243  0.0169
10699SOL     OW34028   8.850   1.109   0.724  0.4689 -0.3415 -0.2339
10699SOL    HW134029   8.832   1.020   0.696  0.6473 -1.4592  2.8286
10699SOL    HW234030   8.945   1.115   0.728  0.4897 -1.2411  2.7409
10700SOL     OW34031   6.610   5.910   8.262  0.4897 -0.0619  0.2133
10700SOL    HW134032   6.681   5.896   8.200 -0.5238  0.0402 -1.0051
10700SOL    HW234033   6.563   5.987   8.229  1.3139  1.5115  2.4299
10701SOL     OW34034   5.790   2.598   2.628 -0.0428 -0.4467  0.4706
10701SOL    HW134035   5.776   2.537   2.556  1.3476  0.2824 -0.4622
10701SOL    HW234036   5.705   2.639   2.643 -0.8245 -2.0765  0.6408
10702SOL     OW34037   8.452   3.638   2.730  0.4431  0.3475 -0.1650
10702SOL    HW134038   8.508   3.583   2.676  0.0857 -2.0643  1.7870
10702SOL    HW234039   8.493   3.640   2.816 -1.5384 -0.1188  0.8644
10703SOL     OW34040   6.935   2.310   0.943  0.1290  0.1243 -0.3810
10703SOL    HW134041   6.955   2.245   1.010 -0.4558  0.5153  0.1860
10703SOL    HW234042   6.855   2.277   0.902 -1.0100  1.1819  0.8835
10704SOL     OW34043   7.936   7.819   6.807  0.3454 -0.2440  0.3227
10704SOL    HW134044   7.851   7.783   6.834  0.3299  0.5717  1.4281
10704SOL    HW234045   7.996   7.745   6.813 -0.2950 -0.8554 -0.5745
10705SOL     OW34046   4.517   2.319   6.439 -0.4011 -0.0844  0.0385
10705SOL    HW134047   4.570   2.384   6.484 -0.9910  1.9567 -1.9925
10705SOL    HW234048   4.579   2.254   6.407  0.4685  0.5567  0.4044
10706SOL     OW34049   0.255   6.248   6.083 -0.1193  0.1638 -0.1825
10706SOL    HW134050   0.168   6.256   6.044  0.0767 -1.2491 -0.9865
10706SOL    HW234051   0.238   6.252   6.178 -0.8253  1.6729 -0.3418
10707SOL     OW34052   5.375   7.881   0.040  0.1842  0.0851 -0.5149
10707SOL    HW134053   5.442   7.949   0.031  1.0164 -0.9083 -2.4406
10707SOL    HW234054   5.369   7.842  -0.047 -1.3413 -1.3190  0.1777
10708SOL     OW34055   1.696   7.100   2.943 -0.4949 -0.1057 -0.3137
10708SOL    HW134056   1.647   7.084   2.863 -2.8567  1.7928  0.6144
10708SOL    HW234057   1.673   7.190   2.967  0.6477 -0.3903  2.1293
10709SOL     OW34058   2.179   2.758   7.487 -0.2322  0.1088 -0.1875
10709SOL    HW134059   2.167   2.852   7.477  0.5415  0.1196 -1.1777
10709SOL    HW234060   2.227   2.748   7.569  0.0945  0.6237 -0.3104
10710SOL     OW34061   3.388   5.464   0.250 -0.0955  0.3555 -0.5304
10710SOL    HW134062   3.418   5.511   0.328 -1.0046  0.9387 -0.5230
10710SOL    HW234063   3.361   5.378   0.283 -0.4672  0.5945 -0.2100
10711SOL     OW34064   3.480   8.269   1.258  0.1694 -0.3277 -0.2434
10711SOL    HW134065   3.395   8.234   1.233  0.3338 -0.4183 -0.6957
10711SOL    HW234066   3.539   8.194   1.254  0.6055  0.0657 -1.6157
10712SOL     OW34067   7.801   0.989   2.460  0.1087 -0.1188 -0.5097
10712SOL    HW134068   7.729   0.991   2.397  0.3912  0.4319 -0.8223
10712SOL    HW234069   7.789   1.069   2.512  1.5139  0.9435 -1.7363
10713SOL     OW34070   5.058   6.219   7.759  0.7241  0.1339  0.0186
10713SOL    HW134071   5.056   6.240   7.853 -1.0826 -0.8486  0.2536
10713SOL    HW234072   5.120   6.282   7.722  2.0016  0.1301  1.9495
10714SOL     OW34073   4.944   6.018   5.722  0.3800 -0.1949 -0.0013
10714SOL    HW134074   5.009   6.029   5.791  0.7283  2.0648 -0.6007
10714SOL    HW234075   4.973   6.077   5.652 -0.3613 -1.8446 -1.8011
10715SOL     OW34076   3.944   6.925   1.057 -0.0219 -0.0050 -0.2707
10715SOL    HW134077   3.881   6.997   1.050  0.1313  0.1069 -0.5135
10715SOL    HW234078   3.919   6.880   1.137 -1.0874 -0.6102 -0.9247
10716SOL     OW34079   4.307   3.248   5.500 -0.1781  0.2374 -0.0674
10716SOL    HW134080   4.295   3.182   5.432  1.2804  1.8398 -2.0068
10716SOL    HW234081   4.226   3.299   5.498  0.0425  0.5851 -1.0321
10717SOL     OW34082   0.603   8.791   5.171  0.3518 -0.0859  0.8868
10717SOL    HW134083   0.555   8.717   5.210  0.3540 -0.1152  0.8349
10717SOL    HW234084   0.649   8.752   5.096 -0.8645  0.2632 -0.0714
10718SOL     OW34085   2.517   3.571   0.719  0.5535  0.3698 -0.2081
10718SOL    HW134086   2.556   3.484   0.724  1.6115  0.8614  0.2282
10718SOL    HW234087   2.559   3.612   0.644  0.3495  0.6460 -0.1718
10719SOL     OW34088   4.332   5.683   1.266  0.1892 -0.0721  0.7514
10719SOL    HW134089   4.275   5.750   1.226  0.3939  0.2368  0.9724
10719SOL    HW234090   4.307   5.683   1.359 -0.4846 -0.9884  0.5800
10720SOL     OW34091   1.336   5.475   7.295  0.6604 -0.6130 -0.0774
10720SOL    HW134092   1.329   5.379   7.298  0.3408 -0.6006 -0.3632
10720SOL    HW234093   1.265   5.505   7.351  0.5778 -0.5366 -0.2246
10721SOL     OW34094   2.779   0.753   5.855  0.3894 -0.1963 -0.3499
10721SOL    HW134095   2.873   0.765   5.872  1.2745 -2.1947 -3.1126
10721SOL    HW234096   2.770   0.660   5.835 -2.6435 -0.5152  1.8579
10722SOL     OW34097   6.858   0.971   5.640  0.3173 -0.6802  0.3440
10722SOL    HW134098   6.793   0.904   5.658 -1.1222  0.4566 -0.3784
10722SOL    HW234099   6.941   0.924   5.635 -0.4250 -2.1665  1.3633
10723SOL     OW34100   2.227   6.751   8.211 -0.3096 -0.2840 -0.4610
10723SOL    HW134101   2.195   6.662   8.227 -0.3111 -0.4465 -1.3105
10723SOL    HW234102   2.234   6.790   8.298  0.4364 -1.3662 -0.0180
10724SOL     OW34103   4.044   3.873   6.703  0.0090 -0.3365  0.0647
10724SOL    HW134104   4.138   3.883   6.690 -0.3211  0.6579 -1.8652
10724SOL    HW234105   4.007   3.957   6.677 -1.3800 -0.3909  1.6525
10725SOL     OW34106   6.577   7.908   3.149  0.6302  0.3595 -0.0963
10725SOL    HW134107   6.531   7.942   3.226  0.4963 -0.6408  0.2878
10725SOL    HW234108   6.637   7.978   3.124  0.1573  0.9867  0.4769
10726SOL     OW34109   0.253   8.621   0.897 -0.3256 -0.1107 -0.1853
10726SOL    HW134110   0.298   8.558   0.841 -1.3098  0.2965 -1.4830
10726SOL    HW234111   0.323   8.673   0.936  0.4495 -1.3614  0.1584
10727SOL     OW34112   4.105   1.378   8.016 -0.0284 -0.1305 -0.3259
10727SOL    HW134113   4.035   1.441   8.034 -0.5662 -0.2199 -1.8879
10727SOL    HW234114   4.176   1.405   8.073 -0.9493  0.6496  0.5052
10728SOL     OW34115   4.868   3.571   2.633 -0.5763  0.1199 -0.3040
10728SOL    HW134116   4.951   3.598   2.593 -0.0350 -0.9614  0.0715
10728SOL    HW234117   4.801   3.612   2.578  0.1804  0.0790 -1.2880
10729SOL     OW34118   1.126   3.477   0.725  0.5484 -1.0086 -0.7485
10729SOL    HW134119   1.217   3.467   0.755  1.1753 -0.8823 -2.4813
10729SOL    HW234120   1.131   3.463   0.631 -1.2367 -0.8701 -0.8877
10730SOL     OW34121   5.214   7.588   6.437 -0.6099  0.6253 -0.0380
10730SOL    HW134122   5.210   7.493   6.427 -3.8320  0.6215  0.2178
10730SOL    HW234123   5.238   7.601   6.529 -2.7516 -0.0878  0.6852
10731SOL     OW34124   6.062   2.450   7.118 -1.4164 -0.6790  0.2406
10731SOL    HW134125   6.038   2.361   7.145 -0.8404 -0.0624  3.0461
10731SOL    HW234126   5.994   2.506   7.155 -1.6990  0.1119 -1.3816
10732SOL     OW34127   0.040   7.306   5.735 -0.4545  0.4420 -0.4864
10732SOL    HW134128   0.014   7.219   5.703  1.8432 -1.0710  1.3869
10732SOL    HW234129   0.105   7.336   5.672 -0.2675  0.1673 -0.4268
10733SOL     OW34130   6.477   8.836   2.341  0.8993  0.2807  0.4912
10733SOL    HW134131   6.538   8.825   2.415  1.6423  2.4389  0.2708
10733SOL    HW234132   6.529   8.812   2.264  0.7699 -0.0270  0.5017
10734SOL     OW34133   6.696   2.972   8.599  0.2181 -0.8222 -0.0485
10734SOL    HW134134   6.683   2.878   8.583 -3.5217 -0.3664 -0.4036
10734SOL    HW234135   6.638   3.015   8.537  1.3292  1.7627  0.5857
10735SOL     OW34136   3.389   6.392   0.300  0.2277  0.1623  0.3442
10735SOL    HW134137   3.312   6.371   0.353 -0.9171  0.6257 -1.0861
10735SOL    HW234138   3.353   6.425   0.217  1.9690 -0.0845 -0.5446
10736SOL     OW34139   6.119   8.206   8.315  0.3804 -0.1838  0.2834
10736SOL    HW134140   6.093   8.276   8.254  1.6426 -1.6894 -2.1445
10736SOL    HW234141   6.037   8.166   8.342 -0.2094 -0.2414 -1.4583
10737SOL     OW34142   0.767   7.679   1.493  0.2275 -0.3792  0.7631
10737SOL    HW134143   0.695   7.706   1.551  0.1788  0.3317  0.3821
10737SOL    HW234144   0.755   7.585   1.482 -1.1066 -0.1556  0.1007
10738SOL     OW34145   7.787   5.795   1.574  0.0514  0.1083  0.4821
10738SOL    HW134146   7.776   5.876   1.625  1.5592 -0.8488  2.4492
10738SOL    HW234147   7.857   5.748   1.618  0.6118 -1.3770 -1.8247
10739SOL     OW34148   7.847   3.331   6.538  0.4715  0.2516  0.5160
10739SOL    HW134149   7.845   3.416   6.582  0.7422  0.0412  0.9337
10739SOL    HW234150   7.776   3.336   6.474 -0.4727  0.2654  1.5318
10740SOL     OW34151   8.181   2.041   1.836 -0.1497 -0.1975 -0.5563
10740SOL    HW134152   8.118   1.971   1.817  1.7400 -1.8542 -1.0321
10740SOL    HW234153   8.209   2.025   1.926  0.7822 -0.4948 -0.8859
10741SOL     OW34154   1.050   3.407   6.743 -0.1564 -0.2895  0.1547
10741SOL    HW134155   0.986   3.377   6.806 -0.9440 -0.1645 -0.5700
10741SOL    HW234156   1.023   3.496   6.721  1.8272  0.8475  1.8603
10742SOL     OW34157   3.656   4.127   5.856  0.3750  0.1728 -0.1332
10742SOL    HW134158   3.673   4.213   5.816 -0.4479  0.9084  1.0419
10742SOL    HW234159   3.563   4.127   5.875  0.6126 -0.4014  1.1782
10743SOL     OW34160   7.629   0.748   6.934 -0.4187  0.4791 -0.1419
10743SOL    HW134161   7.702   0.790   6.978 -1.1469  2.7253 -0.9266
10743SOL    HW234162   7.650   0.755   6.841 -0.4884 -1.1126 -0.2995
10744SOL     OW34163   6.483   3.752   0.685 -0.0721  0.4841  0.0698
10744SOL    HW134164   6.506   3.676   0.632  1.6039 -1.2982  3.0938
10744SOL    HW234165   6.549   3.817   0.662 -0.8573  0.7057 -1.7327
10745SOL     OW34166   5.936   7.319   4.278  0.0205  0.6581  0.5825
10745SOL    HW134167   6.025   7.350   4.262 -0.5931  1.2671 -2.0331
10745SOL    HW234168   5.880   7.392   4.253 -1.2840 -0.6484 -0.5241
10746SOL     OW34169   5.828   1.997   5.507 -0.4580  0.3510  0.6373
10746SOL    HW134170   5.922   1.986   5.514 -0.3369  1.7474  1.6943
10746SOL    HW234171   5.805   2.054   5.580 -2.3282 -1.0621  1.2397
10747SOL     OW34172   6.366   6.336   4.143 -0.3593 -0.0997 -0.2238
10747SOL    HW134173   6.427   6.308   4.075  1.4994  0.0766  1.3127
10747SOL    HW234174   6.370   6.267   4.209  0.7903  1.4949  1.4630
10748SOL     OW34175   0.098   0.631   4.742 -0.1420 -0.0854 -0.3252
10748SOL    HW134176   0.074   0.544   4.708  0.5974 -0.8042  0.9206
10748SOL    HW234177   0.028   0.689   4.712 -0.0020 -0.8511 -2.2698
10749SOL     OW34178   7.752   3.008   4.684 -0.5420  0.2982  0.1994
10749SOL    HW134179   7.757   3.098   4.653  0.7433  0.2548  0.2106
10749SOL    HW234180   7.803   3.008   4.765 -1.3484 -0.2334  0.7122
10750SOL     OW34181   1.849   8.050   8.757  0.4809  0.0238 -0.6320
10750SOL    HW134182   1.871   7.968   8.713  1.0329  0.1807 -0.6541
10750SOL    HW234183   1.783   8.025   8.822  1.0199 -0.5278 -0.2896
10751SOL     OW34184   6.406   7.927   2.557  0.5044  0.3744 -0.4534
10751SOL    HW134185   6.390   7.973   2.475  0.5256  0.3556 -0.4681
10751SOL    HW234186   6.336   7.955   2.615  0.6365  0.5863 -0.3950
10752SOL     OW34187   4.215   1.084   2.236 -0.2436  0.5605  0.2115
10752SOL    HW134188   4.295   1.112   2.190 -0.2539  0.8257  0.3573
10752SOL    HW234189   4.144   1.110   2.177 -0.2570  0.9079  0.3811
10753SOL     OW34190   8.595   4.680   1.135 -0.2768  0.7425 -0.4023
10753SOL    HW134191   8.607   4.675   1.040 -0.8482 -0.5554 -0.4299
10753SOL    HW234192   8.606   4.590   1.165  0.5297  1.2329  0.8597
10754SOL     OW34193   6.205   0.637   4.476  0.3941 -0.1768 -0.2614
10754SOL    HW134194   6.166   0.550   4.478  0.4077 -0.1771  0.3681
10754SOL    HW234195   6.204   0.665   4.568 -1.3334  1.2437 -0.6519
10755SOL     OW34196   0.466   6.338   0.783 -0.1653  0.2692  0.5177
10755SOL    HW134197   0.466   6.263   0.724 -0.2338  0.0483  0.7907
10755SOL    HW234198   0.393   6.392   0.754  1.1986  1.3467 -1.0471
10756SOL     OW34199   3.993   3.912   6.142  0.8444  0.3854 -0.5074
10756SOL    HW134200   4.061   3.978   6.132  0.0587  1.5097  1.1262
10756SOL    HW234201   4.016   3.866   6.223 -0.0991  0.5173 -0.1530
10757SOL     OW34202   1.526   1.957   7.971 -0.7100 -0.4524  0.3619
10757SOL    HW134203   1.576   2.024   8.018 -2.6386  2.2267 -1.1068
10757SOL    HW234204   1.568   1.951   7.885 -1.9409  0.7685 -0.3723
10758SOL     OW34205   4.762   1.693   5.710  0.8841 -0.0217 -0.2769
10758SOL    HW134206   4.815   1.757   5.663 -0.3518 -0.3118 -2.1295
10758SOL    HW234207   4.818   1.666   5.784  2.8383  0.5566 -1.4665
10759SOL     OW34208   8.795   1.389   5.360 -0.5116 -0.2827 -0.2087
10759SOL    HW134209   8.706   1.398   5.326 -0.5611 -2.8072 -0.9459
10759SOL    HW234210   8.847   1.359   5.285  0.2157 -2.1468  0.9825
10760SOL     OW34211   4.347   7.648   8.761 -0.4405  0.3674 -0.7341
10760SOL    HW134212   4.428   7.604   8.787  0.2636  1.8917 -0.2317
10760SOL    HW234213   4.286   7.630   8.832 -0.6389 -1.0019 -1.2319
10761SOL     OW34214   7.766   7.564   8.463 -0.6392  0.1237  0.1868
10761SOL    HW134215   7.855   7.594   8.448 -0.1222 -1.5819 -0.4375
10761SOL    HW234216   7.712   7.615   8.402 -0.0138  0.7179  0.1245
10762SOL     OW34217   7.101   8.245   4.555  0.4004 -0.0810  0.1384
10762SOL    HW134218   7.156   8.168   4.568  0.2362 -0.5005 -1.4328
10762SOL    HW234219   7.065   8.264   4.642  0.2239 -1.9348  0.5026
10763SOL     OW34220   5.744   6.258   7.711 -0.0551  0.1747 -0.5193
10763SOL    HW134221   5.836   6.249   7.686  0.1599 -1.3106  0.6128
10763SOL    HW234222   5.712   6.167   7.715 -1.5727  0.6695 -0.8959
10764SOL     OW34223   1.463   2.310   7.224  0.4460  0.0803 -0.0036
10764SOL    HW134224   1.512   2.240   7.266 -0.3294  0.2657  1.2492
10764SOL    HW234225   1.521   2.386   7.230  1.5163 -0.5215 -1.8439
10765SOL     OW34226   7.427   0.342   0.024 -0.4520 -0.4659  0.3899
10765SOL    HW134227   7.489   0.380   0.086 -0.3311 -1.5650  0.9815
10765SOL    HW234228   7.392   0.416  -0.024  2.4686  0.1070 -1.0770
10766SOL     OW34229   5.934   0.354   2.180  0.5153  0.4690  0.4673
10766SOL    HW134230   5.941   0.279   2.239 -1.1837  0.9293  1.3179
10766SOL    HW234231   5.955   0.430   2.234 -0.5059  0.8453  0.3559
10767SOL     OW34232   6.092   0.606   8.725 -0.1368 -0.3136  0.1525
10767SOL    HW134233   6.002   0.594   8.757  0.1934 -0.2664  1.1198
10767SOL    HW234234   6.129   0.673   8.782 -0.1740  1.3220 -1.6598
10768SOL     OW34235   1.251   3.009   8.134  0.2780 -0.2361 -0.0041
10768SOL    HW134236   1.276   2.935   8.190 -0.4919  0.0226  0.6946
10768SOL    HW234237   1.325   3.020   8.074  1.3762 -0.1398  1.3408
10769SOL     OW34238   3.025   7.150   3.819 -0.2117  0.0770  0.5559
10769SOL    HW134239   3.038   7.244   3.830 -0.0314  0.0123  0.9112
10769SOL    HW234240   3.046   7.113   3.905 -0.2540 -0.2885  0.4088
10770SOL     OW34241   5.652   2.271   4.354  0.4292  0.2490 -0.6176
10770SOL    HW134242   5.575   2.317   4.390  1.3743  1.6326 -0.2819
10770SOL    HW234243   5.617   2.188   4.322 -1.5924  1.6378 -2.3295
10771SOL     OW34244   1.679   7.805   0.945  0.0202 -0.2540  0.3341
10771SOL    HW134245   1.654   7.844   1.028  0.8285  0.1270  0.4168
10771SOL    HW234246   1.741   7.735   0.968  0.3042 -0.1006  0.0598
10772SOL     OW34247   0.026   0.220   4.075 -0.1102  0.2162 -0.9214
10772SOL    HW134248  -0.028   0.209   4.153  0.7118 -2.0145 -0.6038
10772SOL    HW234249   0.115   0.206   4.105  0.2919  0.0856 -2.1258
10773SOL     OW34250   7.879   1.296   3.626  0.0790 -0.0514  0.2305
10773SOL    HW134251   7.802   1.353   3.628  0.8142  1.0223 -0.6313
10773SOL    HW234252   7.936   1.329   3.695 -0.0586 -0.5923  0.6057
10774SOL     OW34253   0.473   4.577   0.324 -0.1544  0.4413 -0.7023
10774SOL    HW134254   0.552   4.548   0.369  0.5131 -0.5194 -2.4297
10774SOL    HW234255   0.483   4.672   0.316  1.3020  0.2336 -1.7181
10775SOL     OW34256   1.289   6.850   3.142 -0.3439 -0.0775  0.1461
10775SOL    HW134257   1.278   6.921   3.078  1.3653 -1.7933 -2.1990
10775SOL    HW234258   1.383   6.833   3.142 -0.4740 -1.0339  2.1939
10776SOL     OW34259   3.511   0.587   1.599  0.3509 -0.0908  0.0004
10776SOL    HW134260   3.427   0.598   1.645  1.5276 -1.3392  2.6203
10776SOL    HW234261   3.517   0.493   1.582  1.9154 -0.2848  1.3797
10777SOL     OW34262   8.541   2.544   6.926 -0.5914  0.1007 -0.0010
10777SOL    HW134263   8.472   2.496   6.972 -0.5058 -0.0236 -0.0036
10777SOL    HW234264   8.612   2.551   6.989 -0.5166  0.0272 -0.0771
10778SOL     OW34265   2.596   5.625   6.460 -0.8415  0.4392  0.0491
10778SOL    HW134266   2.662   5.585   6.516 -0.9260  0.2862  0.0397
10778SOL    HW234267   2.561   5.552   6.409 -3.3387 -0.1487  2.3359
10779SOL     OW34268   6.337   2.670   5.082  0.2298  0.3944  0.2424
10779SOL    HW134269   6.334   2.575   5.094  0.8463  0.0814 -1.7330
10779SOL    HW234270   6.316   2.706   5.168 -0.0878 -1.5254  1.0109
10780SOL     OW34271   3.370   5.310   3.513 -0.3836 -0.1165  0.5655
10780SOL    HW134272   3.283   5.271   3.512 -1.6702  2.4940 -0.1284
10780SOL    HW234273   3.381   5.346   3.425  1.7095 -0.9220  0.4465
10781SOL     OW34274   6.081   1.279   7.754  0.2367 -0.2232 -0.1408
10781SOL    HW134275   6.125   1.274   7.839 -0.9938 -0.6164  0.5009
10781SOL    HW234276   6.019   1.352   7.764  0.4534  0.0691 -0.8917
10782SOL     OW34277   5.065   0.102   4.853 -0.3592  0.7566 -0.1442
10782SOL    HW134278   4.982   0.056   4.839 -0.3829  0.9142 -0.5538
10782SOL    HW234279   5.045   0.193   4.830  0.2508  0.5663 -1.4926
10783SOL     OW34280   7.419   0.220   7.309 -0.0995  0.8512  0.1731
10783SOL    HW134281   7.327   0.244   7.320  0.2435  1.1876  2.7485
10783SOL    HW234282   7.416   0.144   7.250 -2.1197  0.2477  0.9563
10784SOL     OW34283   8.464   3.301   2.905 -0.1386 -0.3905  0.4558
10784SOL    HW134284   8.550   3.283   2.868  0.3052 -0.9903  1.7271
10784SOL    HW234285   8.405   3.301   2.830  0.8184 -0.9868 -0.3139
10785SOL     OW34286   3.719   1.365   7.654 -0.5452 -0.3945  0.1027
10785SOL    HW134287   3.681   1.415   7.726  1.2962  1.0541  0.1508
10785SOL    HW234288   3.673   1.281   7.656 -2.2214  0.4920  1.4126
10786SOL     OW34289   6.643   4.760   2.455  0.5644  0.1574  0.0353
10786SOL    HW134290   6.572   4.812   2.417  0.4355 -0.2371 -0.2702
10786SOL    HW234291   6.599   4.692   2.506  0.6305 -1.4700 -1.9506
10787SOL     OW34292   4.959   0.522   2.849  0.2408  0.4127  0.0842
10787SOL    HW134293   5.016   0.593   2.878  0.4494 -0.0824  0.9080
10787SOL    HW234294   4.910   0.560   2.775  0.5437  1.3177  0.3302
10788SOL     OW34295   8.832   6.060   0.830 -0.2649 -0.2973 -0.2314
10788SOL    HW134296   8.874   5.978   0.855  0.5742  0.7499  1.9886
10788SOL    HW234297   8.739   6.045   0.848  0.0866 -0.2240  1.8057
10789SOL     OW34298   1.093   2.874   8.768 -0.1050 -0.4124 -0.4081
10789SOL    HW134299   1.037   2.829   8.705 -1.2550  0.0837  0.2180
10789SOL    HW234300   1.122   2.953   8.721 -1.5984  0.3651 -0.1088
10790SOL     OW34301   7.350   7.803   6.113 -0.0662 -0.1532 -0.2375
10790SOL    HW134302   7.305   7.882   6.142  1.2421  0.7273 -0.5192
10790SOL    HW234303   7.349   7.745   6.190  0.2437  0.7269  0.4380
10791SOL     OW34304   6.152   3.763   1.592 -0.0143 -0.1954  0.3577
10791SOL    HW134305   6.147   3.785   1.686  0.4060  1.3110  0.0582
10791SOL    HW234306   6.107   3.836   1.548  3.0695  1.1686 -0.8173
10792SOL     OW34307   1.623   0.202   3.201 -0.4535  0.0696 -0.0101
10792SOL    HW134308   1.637   0.114   3.237 -0.4821 -0.1235 -0.4690
10792SOL    HW234309   1.529   0.216   3.207 -0.5971 -0.4037 -1.0193
10793SOL     OW34310   6.484   8.619   4.739 -0.5306 -0.4351  1.1416
10793SOL    HW134311   6.555   8.578   4.691 -0.4629  0.6467  0.2800
10793SOL    HW234312   6.404   8.583   4.699 -0.4769  0.5424  0.0937
10794SOL     OW34313   4.425   0.446   0.098 -0.0896 -0.6778 -0.3411
10794SOL    HW134314   4.476   0.522   0.070 -0.9018  0.3914  0.9807
10794SOL    HW234315   4.490   0.388   0.138  0.2242  0.4311  0.8362
10795SOL     OW34316   4.913   7.185   7.957  0.1482  0.1549  0.1512
10795SOL    HW134317   4.888   7.092   7.959 -0.4639  0.3187  0.3376
10795SOL    HW234318   4.846   7.229   8.009  1.3867  0.4973  1.5284
10796SOL     OW34319   4.913   7.549   3.472 -0.1951  0.9599 -0.0246
10796SOL    HW134320   4.970   7.594   3.534  1.5286 -0.3621 -0.5689
10796SOL    HW234321   4.887   7.468   3.517  0.5424  0.3027 -0.7362
10797SOL     OW34322   8.421   3.037   1.943  0.0473  0.3081 -1.0766
10797SOL    HW134323   8.502   3.005   1.904 -0.1971 -0.4894 -0.9584
10797SOL    HW234324   8.448   3.107   2.002  0.8029 -0.7563 -0.1099
10798SOL     OW34325   2.949   5.306   1.067  0.0369 -0.3501  0.4731
10798SOL    HW134326   2.983   5.366   1.134 -0.3560  1.1158 -0.5757
10798SOL    HW234327   2.873   5.265   1.108  0.3887 -0.2337  1.2632
10799SOL     OW34328   1.614   5.875   3.280 -0.2903 -0.0812  0.2660
10799SOL    HW134329   1.657   5.811   3.224 -1.4290 -0.0927 -0.6514
10799SOL    HW234330   1.663   5.957   3.265  0.6651 -0.5418  0.8219
10800SOL     OW34331   5.057   3.318   0.824 -0.4463 -0.0650  0.3002
10800SOL    HW134332   5.054   3.391   0.886 -0.6356 -0.0927  0.3228
10800SOL    HW234333   5.151   3.304   0.808 -0.3133 -0.9588  1.6607
10801SOL     OW34334   0.787   8.279   5.177  0.7866 -0.2146  0.1726
10801SOL    HW134335   0.793   8.187   5.202 -0.3363 -0.7649 -1.4366
10801SOL    HW234336   0.807   8.280   5.084 -0.0175  1.0524 -0.0118
10802SOL     OW34337   1.139   6.183   7.002  0.3244  0.5674 -0.6231
10802SOL    HW134338   1.186   6.101   6.993 -1.4221 -0.7642  1.5014
10802SOL    HW234339   1.066   6.177   6.939 -1.0965 -0.5731  1.0421
10803SOL     OW34340   5.905   6.784   4.331 -0.5742  0.2096 -0.3039
10803SOL    HW134341   5.860   6.830   4.260 -3.4255 -1.4573  0.2748
10803SOL    HW234342   5.864   6.817   4.410 -0.7985 -1.3459  0.2595
10804SOL     OW34343   6.763   7.150   7.676 -0.6414 -0.2739 -0.0318
10804SOL    HW134344   6.771   7.069   7.625  0.3997 -0.9042  1.0856
10804SOL    HW234345   6.854   7.179   7.689 -0.8322 -0.4818  1.9797
10805SOL     OW34346   0.007   2.689   7.773 -0.4072 -0.7884  0.4835
10805SOL    HW134347   0.015   2.660   7.864 -0.2330  0.9258  1.0506
10805SOL    HW234348  -0.011   2.783   7.779 -3.7588 -1.1613 -1.1686
10806SOL     OW34349   2.344   1.978   4.648 -0.0361 -0.5512  0.1019
10806SOL    HW134350   2.383   1.961   4.562  0.0126 -0.9826  0.2088
10806SOL    HW234351   2.343   2.073   4.655  2.4380 -0.5140  0.7406
10807SOL     OW34352   6.569   1.165   7.103  0.2055  0.6133 -0.8138
10807SOL    HW134353   6.495   1.155   7.162  1.2180 -0.7615  0.3131
10807SOL    HW234354   6.555   1.099   7.035  0.7841 -0.2789 -0.1073
10808SOL     OW34355   2.556   6.177   2.128 -0.3445 -0.0812  0.0531
10808SOL    HW134356   2.467   6.146   2.112 -0.0001 -0.5117 -1.0935
10808SOL    HW234357   2.547   6.237   2.202 -2.0396  1.9923 -1.6931
10809SOL     OW34358   7.379   8.013   7.949  0.4604  0.2007  0.4006
10809SOL    HW134359   7.466   8.054   7.951  0.6400 -0.1904  2.0342
10809SOL    HW234360   7.352   8.018   7.857  2.3177  0.0913 -0.1829
10810SOL     OW34361   2.885   6.811   6.738 -0.7272 -0.2585  0.0080
10810SOL    HW134362   2.806   6.863   6.756 -0.3736  0.6781 -1.0657
10810SOL    HW234363   2.957   6.868   6.762 -0.3311 -1.6161  2.3574
10811SOL     OW34364   0.114   1.055   6.057 -0.0999 -0.0417  0.4007
10811SOL    HW134365   0.069   0.979   6.021  0.3708 -0.3859  0.5250
10811SOL    HW234366   0.157   1.095   5.982 -0.0550 -0.1033  0.3933
10812SOL     OW34367   6.382   0.273   5.335 -0.6526 -0.7333  0.1095
10812SOL    HW134368   6.317   0.339   5.360 -0.1516 -0.4305  0.6354
10812SOL    HW234369   6.464   0.322   5.329 -0.0833 -1.4644  1.4595
10813SOL     OW34370   1.176   3.548   8.739 -1.1124  0.3935  0.2322
10813SOL    HW134371   1.156   3.552   8.832 -0.4332 -1.3302  0.4889
10813SOL    HW234372   1.137   3.466   8.709 -0.4233  0.4120 -0.7700
10814SOL     OW34373   7.657   8.374   1.393 -0.4208 -0.0230  0.2338
10814SOL    HW134374   7.733   8.422   1.361  1.6815 -2.4151  1.3090
10814SOL    HW234375   7.645   8.405   1.483  0.2976 -0.7295  0.5848
10815SOL     OW34376   4.265   8.655   1.421  0.5087  0.8286 -0.2409
10815SOL    HW134377   4.264   8.569   1.464  1.0100  0.1384 -1.5314
10815SOL    HW234378   4.343   8.698   1.454 -0.6247  1.4984  1.6839
10816SOL     OW34379   2.424   3.840   5.438 -0.2010 -0.2553  0.4227
10816SOL    HW134380   2.420   3.816   5.346  0.5975 -0.1472  0.3513
10816SOL    HW234381   2.336   3.824   5.472 -0.8753  0.9799 -0.6689
10817SOL     OW34382   2.374   8.845   8.263 -0.0064  0.2448 -0.2532
10817SOL    HW134383   2.392   8.933   8.229  0.2675 -0.1255 -1.0880
10817SOL    HW234384   2.444   8.830   8.326 -0.6544  1.0360  0.6859
10818SOL     OW34385   3.510   5.004   8.051  0.3006 -0.2102 -0.4284
10818SOL    HW134386   3.450   5.036   7.984 -1.7949  0.2788  1.5461
10818SOL    HW234387   3.588   5.059   8.042 -1.0742  1.8066 -0.6494
10819SOL     OW34388   8.427   6.048   1.309  0.3848  0.2177  0.5434
10819SOL    HW134389   8.478   6.037   1.229 -0.8760 -1.6042 -0.0682
10819SOL    HW234390   8.439   5.966   1.357  0.7780  1.1096  2.0545
10820SOL     OW34391   6.788   5.901   7.275 -1.0094 -0.2015 -0.2482
10820SOL    HW134392   6.775   5.993   7.297  0.0962 -0.5910  2.4093
10820SOL    HW234393   6.703   5.860   7.292 -1.0177  0.0489  0.3382
10821SOL     OW34394   6.253   6.450   4.419 -0.0560 -0.4106  0.1874
10821SOL    HW134395   6.260   6.363   4.380  0.1970 -0.1024 -0.4785
10821SOL    HW234396   6.176   6.489   4.378 -0.3690 -0.4440  0.7353
10822SOL     OW34397   7.824   4.954   6.810 -0.4037 -0.0841 -0.6338
10822SOL    HW134398   7.740   4.912   6.791  0.5966 -2.3170 -0.3636
10822SOL    HW234399   7.816   4.983   6.901 -1.5386  1.5252 -1.1865
10823SOL     OW34400   2.485   1.675   1.828 -0.3091 -0.9101 -0.3981
10823SOL    HW134401   2.535   1.690   1.748  0.1646 -1.5579 -0.2281
10823SOL    HW234402   2.485   1.580   1.839  1.4930 -0.7606  1.5391
10824SOL     OW34403   2.780   4.568   8.813  0.0196 -0.5288 -0.0505
10824SOL    HW134404   2.828   4.583   8.895  1.0009 -0.8954 -0.5418
10824SOL    HW234405   2.826   4.621   8.748 -0.1281 -1.0166 -0.5634
10825SOL     OW34406   3.730   8.764   8.700 -0.4043 -0.5327 -0.2865
10825SOL    HW134407   3.718   8.688   8.643 -0.9915 -0.0152 -0.8690
10825SOL    HW234408   3.645   8.806   8.702 -0.4461 -0.6382  1.1454
10826SOL     OW34409   7.413   0.053   5.255  0.1752  0.0518 -0.4054
10826SOL    HW134410   7.319   0.071   5.257  0.2627  0.5109  1.4953
10826SOL    HW234411   7.450   0.122   5.201 -0.5042  0.2623 -0.6071
10827SOL     OW34412   8.589   0.830   7.137  0.1528 -0.4054 -0.5198
10827SOL    HW134413   8.516   0.794   7.187  0.6038  0.1228  0.5469
10827SOL    HW234414   8.645   0.871   7.202  0.8403  0.1720 -1.4449
10828SOL     OW34415   2.455   7.815   0.615  0.2032  0.3869  0.4490
10828SOL    HW134416   2.533   7.808   0.559 -0.3639  0.7801 -0.4019
10828SOL    HW234417   2.445   7.909   0.630  0.1435  0.3074  0.9348
10829SOL     OW34418   8.261   7.774   8.066  0.0128  0.1439 -0.5168
10829SOL    HW134419   8.273   7.706   8.133  0.1502 -2.3359 -2.9168
10829SOL    HW234420   8.349   7.789   8.031 -0.3181 -0.0096 -1.4401
10830SOL     OW34421   6.692   4.983   2.727 -0.7390  0.1255 -0.1720
10830SOL    HW134422   6.742   5.049   2.679  2.2661 -0.1344  2.3327
10830SOL    HW234423   6.753   4.910   2.739 -2.6046 -1.3658  0.8277
10831SOL     OW34424   4.633   1.723   1.782 -0.3915  0.0607  0.5848
10831SOL    HW134425   4.644   1.675   1.700  0.0467  0.3490  0.4707
10831SOL    HW234426   4.556   1.684   1.823 -1.0667  0.4027 -0.3129
10832SOL     OW34427   4.037   1.187   5.453  0.6191  0.4375 -0.1026
10832SOL    HW134428   4.038   1.200   5.358 -0.0024  1.6780  0.0365
10832SOL    HW234429   4.093   1.257   5.487 -0.7551  1.2666  0.5489
10833SOL     OW34430   1.575   2.768   3.233  0.6427 -0.0287  0.4501
10833SOL    HW134431   1.572   2.693   3.174  0.3467 -0.0967  0.5505
10833SOL    HW234432   1.574   2.730   3.321  0.1525  0.1025  0.5031
10834SOL     OW34433   7.518   0.076   2.035  0.3203  0.3787  0.4810
10834SOL    HW134434   7.613   0.075   2.042  0.4545 -0.7183 -1.0230
10834SOL    HW234435   7.498   0.151   1.979  0.2625  0.7705  1.0155
10835SOL     OW34436   6.671   6.703   2.102 -0.6526 -0.0261 -0.1697
10835SOL    HW134437   6.763   6.728   2.112 -0.1958 -1.4928 -0.4233
10835SOL    HW234438   6.625   6.753   2.170  0.5546 -0.3921  0.9553
10836SOL     OW34439   4.276   1.817   6.047 -0.2084  0.7620 -0.6376
10836SOL    HW134440   4.354   1.870   6.062 -0.0302  0.5298 -0.7307
10836SOL    HW234441   4.204   1.880   6.044 -0.1414  0.8985  0.3386
10837SOL     OW34442   5.024   2.928   5.301 -0.2264 -0.0138 -0.1543
10837SOL    HW134443   4.935   2.963   5.304 -0.2518 -0.0879 -0.0613
10837SOL    HW234444   5.020   2.847   5.351 -0.1007 -0.0049 -0.1302
10838SOL     OW34445   5.104   2.189   1.038  0.3381 -0.3027 -0.3921
10838SOL    HW134446   5.064   2.147   0.962  0.7654  2.0057 -1.9979
10838SOL    HW234447   5.108   2.120   1.104 -5.7401 -0.9701 -0.1638
10839SOL     OW34448   1.448   5.496   6.629  0.3363  0.5913  0.2093
10839SOL    HW134449   1.375   5.452   6.585 -0.0295  0.1484  1.2376
10839SOL    HW234450   1.470   5.569   6.570  0.9652 -0.9383 -1.5402
10840SOL     OW34451   0.999   3.822   3.551 -0.3894  0.1137  0.4359
10840SOL    HW134452   1.037   3.813   3.463  2.5739  1.0192  1.5081
10840SOL    HW234453   0.991   3.732   3.583 -2.8372 -0.3343 -1.1882
10841SOL     OW34454   3.134   2.119   7.542 -0.9832 -0.2412  0.7399
10841SOL    HW134455   3.162   2.207   7.569  0.1075 -0.0999 -0.7191
10841SOL    HW234456   3.052   2.134   7.495 -0.0821  0.2233 -0.7541
10842SOL     OW34457   1.961   3.683   1.003  0.0347 -0.0242  0.0410
10842SOL    HW134458   1.900   3.746   0.965  0.3257 -0.5749 -1.3927
10842SOL    HW234459   1.940   3.600   0.961  1.1587 -0.4145  0.2082
10843SOL     OW34460   6.143   2.724   2.021  0.1136 -0.1171 -0.3527
10843SOL    HW134461   6.227   2.760   1.991  0.4138 -0.2095  0.3703
10843SOL    HW234462   6.165   2.641   2.062 -0.5375 -0.9585 -1.6355
10844SOL     OW34463   4.490   3.774   5.089 -0.0597  0.3055  0.0471
10844SOL    HW134464   4.443   3.833   5.148  2.0797  2.6031 -0.3881
10844SOL    HW234465   4.454   3.794   5.002  0.2407  0.5101 -0.0291
10845SOL     OW34466   3.011   4.347   6.620  0.7081 -0.1507 -0.8056
10845SOL    HW134467   2.972   4.431   6.646 -0.0955 -0.9948  0.8699
10845SOL    HW234468   2.939   4.285   6.629  0.8996 -0.8491 -3.3664
10846SOL     OW34469   8.046   5.295   4.732  0.4421 -0.0432 -0.0579
10846SOL    HW134470   8.138   5.302   4.707  0.0386 -0.2540 -1.7449
10846SOL    HW234471   8.003   5.367   4.686 -0.3843 -0.5973 -0.1863
10847SOL     OW34472   0.246   1.079   7.901 -0.3026  0.7297 -0.3868
10847SOL    HW134473   0.262   1.173   7.898 -0.7630  0.7811 -2.3324
10847SOL    HW234474   0.319   1.041   7.854  0.5010 -0.0328  1.3728
10848SOL     OW34475   5.174   4.945   8.633 -0.0916  0.1849 -0.3181
10848SOL    HW134476   5.163   4.975   8.543  0.0961 -0.0603 -0.4248
10848SOL    HW234477   5.137   4.857   8.634 -1.5378  0.7742  0.2344
10849SOL     OW34478   5.269   4.770   6.877 -0.0778 -0.3492 -0.1808
10849SOL    HW134479   5.234   4.682   6.895 -0.4670 -0.1016  0.3294
10849SOL    HW234480   5.283   4.807   6.964  0.0483  0.1055 -0.3967
10850SOL     OW34481   5.771   3.945   6.053 -0.1935 -0.1595  0.6820
10850SOL    HW134482   5.709   3.909   5.990 -0.4447 -0.7600  1.2699
10850SOL    HW234483   5.831   3.873   6.071  0.2514  0.2016  0.6641
10851SOL     OW34484   1.883   0.241   7.906 -0.0976  0.0537  0.3653
10851SOL    HW134485   1.901   0.259   7.999 -0.2836  1.0300  0.2239
10851SOL    HW234486   1.800   0.193   7.908 -0.3553  0.4916  0.6922
10852SOL     OW34487   4.412   0.886   2.968 -0.0933  0.2743 -0.3226
10852SOL    HW134488   4.445   0.952   3.029  1.2113 -1.2353  0.6608
10852SOL    HW234489   4.380   0.937   2.893  0.4826  2.0406  0.5837
10853SOL     OW34490   2.584   7.971   5.993  0.1011  0.2554  1.1489
10853SOL    HW134491   2.663   7.926   5.961  0.3185 -0.0668  2.1055
10853SOL    HW234492   2.511   7.920   5.958  0.3411 -0.3751  1.5529
10854SOL     OW34493   4.381   5.924   3.499 -0.0962  0.5238 -0.3353
10854SOL    HW134494   4.431   5.919   3.417  0.6989  0.2124  0.1555
10854SOL    HW234495   4.294   5.890   3.476 -0.2010  1.4018 -1.2819
10855SOL     OW34496   0.683   2.983   8.044  0.5935  0.1076  0.4885
10855SOL    HW134497   0.763   2.935   8.022  0.9184  0.2135  1.3926
10855SOL    HW234498   0.713   3.055   8.099  0.0903  1.2747 -0.7251
10856SOL     OW34499   8.079   7.878   7.884  0.0997  0.1966 -0.3783
10856SOL    HW134500   8.104   7.833   7.965  2.2372  0.6550 -0.7218
10856SOL    HW234501   8.084   7.812   7.816 -1.4859 -0.1357 -0.2122
10857SOL     OW34502   7.902   2.492   5.165 -0.1034  0.2028  0.4470
10857SOL    HW134503   7.927   2.435   5.237 -1.2628  0.0084  0.7147
10857SOL    HW234504   7.934   2.579   5.190 -1.0946  0.2699  1.5230
10858SOL     OW34505   8.546   7.954   3.605 -0.2378 -0.0686  0.0489
10858SOL    HW134506   8.522   7.932   3.695  0.0950  0.1248  0.1884
10858SOL    HW234507   8.613   8.023   3.614  0.6503 -0.8610 -0.3181
10859SOL     OW34508   6.401   4.861   2.691  0.0787 -0.0736 -0.2242
10859SOL    HW134509   6.482   4.912   2.686  0.0873 -0.1775 -1.7976
10859SOL    HW234510   6.372   4.870   2.782  1.8858 -0.1062  0.3970
10860SOL     OW34511   1.508   2.395   3.659 -0.4471 -0.3423 -0.4183
10860SOL    HW134512   1.547   2.308   3.657 -1.9458 -1.0550  0.3296
10860SOL    HW234513   1.559   2.442   3.725  1.8646  0.1595 -2.3881
10861SOL     OW34514   6.176   6.388   3.101 -0.0423  0.5780  0.1813
10861SOL    HW134515   6.171   6.448   3.026  1.1303  0.2268 -0.2027
10861SOL    HW234516   6.090   6.347   3.105 -0.5767  1.6256 -0.1038
10862SOL     OW34517   5.358   3.935   7.419  0.2653  0.2532  0.2090
10862SOL    HW134518   5.335   3.978   7.501  0.1925  0.0120  0.3128
10862SOL    HW234519   5.335   4.000   7.352 -1.7830 -0.3908  0.2284
10863SOL     OW34520   4.277   4.833   8.833  0.2104 -0.2029 -0.1990
10863SOL    HW134521   4.277   4.738   8.821 -0.8004 -0.1549 -0.6992
10863SOL    HW234522   4.230   4.867   8.757 -0.2141  0.6338  0.4141
10864SOL     OW34523   1.203   7.926   1.285 -0.3864  0.5913  0.2132
10864SOL    HW134524   1.141   7.997   1.297 -0.9039  0.6180 -2.2208
10864SOL    HW234525   1.157   7.848   1.315 -1.0854  0.8139 -0.2658
10865SOL     OW34526   1.371   6.254   1.531 -0.5879  0.0736  0.9798
10865SOL    HW134527   1.368   6.213   1.618  1.3044 -1.9093  0.1977
10865SOL    HW234528   1.412   6.189   1.475 -0.6526  1.7687 -1.1746
10866SOL     OW34529   3.035   6.600   5.204 -0.4987  0.1920 -0.3615
10866SOL    HW134530   3.105   6.636   5.259 -0.2792  0.1839 -0.6348
10866SOL    HW234531   2.958   6.654   5.225 -0.2698  0.5694 -0.4824
10867SOL     OW34532   3.728   5.884   4.067  0.0298 -0.3234  0.9193
10867SOL    HW134533   3.764   5.952   4.010 -1.7977 -1.2475 -1.4983
10867SOL    HW234534   3.803   5.829   4.089  0.6234 -0.7877 -1.8985
10868SOL     OW34535   5.672   6.750   3.959 -0.4982  0.2469 -0.3806
10868SOL    HW134536   5.670   6.748   3.863 -1.5726 -0.5319 -0.3623
10868SOL    HW234537   5.623   6.828   3.982 -1.3233 -0.2282 -0.4680
10869SOL     OW34538   0.510   0.661   1.715  0.2546 -0.1084  0.0050
10869SOL    HW134539   0.554   0.590   1.668 -0.4698 -0.6092  0.0666
10869SOL    HW234540   0.439   0.618   1.763 -0.8436  0.7842 -0.7678
10870SOL     OW34541   6.848   6.325   8.462  0.5051 -0.0763 -0.1779
10870SOL    HW134542   6.858   6.264   8.389 -2.0616 -0.3710 -0.3877
10870SOL    HW234543   6.870   6.410   8.426  1.3824 -0.4947 -0.6613
10871SOL     OW34544   7.257   0.701   4.983  0.1835 -0.3850 -0.4309
10871SOL    HW134545   7.167   0.728   4.966 -1.0436 -3.1060  1.1107
10871SOL    HW234546   7.254   0.605   4.984  3.4661 -0.6607 -1.9672
10872SOL     OW34547   7.026   7.850   5.827  0.1718  0.4562  0.2734
10872SOL    HW134548   6.936   7.856   5.860 -0.1246 -0.7369 -0.2777
10872SOL    HW234549   7.075   7.912   5.881 -1.3322  2.6575 -0.7320
10873SOL     OW34550   3.742   2.641   4.931 -0.2979 -0.2156 -0.2832
10873SOL    HW134551   3.817   2.587   4.907 -0.3271  0.4996 -2.0884
10873SOL    HW234552   3.672   2.616   4.870 -0.0470  2.4019 -1.8138
10874SOL     OW34553   4.240   3.329   0.140 -0.0517  0.0989 -0.2181
10874SOL    HW134554   4.288   3.356   0.218 -2.7292  1.6218  1.0490
10874SOL    HW234555   4.199   3.409   0.108 -1.7082 -1.0601 -1.1986
10875SOL     OW34556   8.821   4.762   5.140  0.4363 -0.3878  0.1328
10875SOL    HW134557   8.782   4.834   5.091  2.0452  1.4774  1.4871
10875SOL    HW234558   8.864   4.708   5.073 -0.0542  0.3525 -0.8100
10876SOL     OW34559   5.800   1.351   2.720  0.2794  0.1626  0.4103
10876SOL    HW134560   5.787   1.443   2.696  1.3898  0.5620  1.2387
10876SOL    HW234561   5.724   1.306   2.684 -1.4160  1.7307  1.7910
10877SOL     OW34562   6.630   2.988   0.922 -0.2326 -0.1918 -0.0985
10877SOL    HW134563   6.597   3.009   0.834  0.0102 -1.5795 -0.5540
10877SOL    HW234564   6.712   3.036   0.929 -0.7931  0.7978 -0.1922
10878SOL     OW34565   3.563   2.818   1.084  0.2877  0.3517 -0.2998
10878SOL    HW134566   3.543   2.899   1.131  0.6307 -0.3490  1.0880
10878SOL    HW234567   3.544   2.749   1.147  1.3075 -0.5954 -1.0069
10879SOL     OW34568   4.211   2.643   7.386  0.1476  0.4346  0.2612
10879SOL    HW134569   4.171   2.674   7.304  0.6596  0.8280  0.1594
10879SOL    HW234570   4.282   2.585   7.357 -0.1012  0.0369  0.4382
10880SOL     OW34571   0.755   2.895   0.781 -0.2655 -0.4330 -0.4654
10880SOL    HW134572   0.745   2.912   0.874 -0.9658  0.4746 -0.6901
10880SOL    HW234573   0.694   2.824   0.762 -1.8619  0.9275 -0.6466
10881SOL     OW34574   0.957   2.932   8.073 -0.1529 -0.3792 -0.6161
10881SOL    HW134575   1.015   2.857   8.060  1.5785  0.6330  0.8419
10881SOL    HW234576   1.015   3.008   8.074 -1.9101  1.1154 -2.6112
10882SOL     OW34577   8.167   8.619   0.641  0.6651  0.6054 -0.4852
10882SOL    HW134578   8.233   8.685   0.660  0.6090  0.6437 -0.4230
10882SOL    HW234579   8.215   8.548   0.599  0.5661  1.1162 -1.4931
10883SOL     OW34580   5.026   2.175   5.841  0.3204 -0.3639  0.4743
10883SOL    HW134581   4.944   2.174   5.792  1.1023  0.3241 -0.9006
10883SOL    HW234582   5.016   2.248   5.902  0.3198  0.4459 -0.4701
10884SOL     OW34583   3.628   3.730   5.837  0.2057 -0.1817  0.2616
10884SOL    HW134584   3.672   3.645   5.844  1.3896  0.4317  0.6555
10884SOL    HW234585   3.694   3.787   5.798 -1.0500  0.2363 -1.3723
10885SOL     OW34586   3.081   8.573   5.082  0.1256  0.3013 -0.2343
10885SOL    HW134587   3.005   8.607   5.035  0.6969  0.1567 -1.2914
10885SOL    HW234588   3.129   8.651   5.109 -0.7811  0.4175  1.1238
10886SOL     OW34589   2.432   0.531   0.338 -0.0308  0.1530  0.5011
10886SOL    HW134590   2.401   0.596   0.401 -0.2996  0.1108  0.4142
10886SOL    HW234591   2.356   0.476   0.321  0.9474 -2.1687  2.9489
10887SOL     OW34592   8.135   4.081   5.350  0.5216  0.6523  0.6399
10887SOL    HW134593   8.066   4.016   5.360  0.6640  0.0500 -1.7366
10887SOL    HW234594   8.094   4.164   5.373 -0.8239  0.2115 -0.0812
10888SOL     OW34595   3.527   2.963   7.355 -0.4464 -0.1786 -0.0352
10888SOL    HW134596   3.541   3.036   7.295  0.2719  0.2862  0.6836
10888SOL    HW234597   3.445   2.984   7.400 -0.7708 -0.3256 -0.5498
10889SOL     OW34598   6.153   4.696   3.661 -0.1204 -0.5980 -0.5236
10889SOL    HW134599   6.111   4.753   3.727 -0.2858 -0.2478 -0.9251
10889SOL    HW234600   6.167   4.613   3.707  0.3132 -0.1671  0.1361
10890SOL     OW34601   0.861   5.455   1.218 -0.0451 -0.0403 -0.0706
10890SOL    HW134602   0.819   5.403   1.287 -0.3191  0.3650  0.0668
10890SOL    HW234603   0.825   5.543   1.229  1.3428  0.4856  0.4843
10891SOL     OW34604   1.690   3.528   4.507 -0.3092  0.2181  0.2073
10891SOL    HW134605   1.662   3.462   4.571  0.3245 -0.7717 -0.5022
10891SOL    HW234606   1.641   3.506   4.428 -0.7010  1.1193  0.1868
10892SOL     OW34607   3.981   5.852   0.982  0.6873  0.2491  0.1493
10892SOL    HW134608   3.931   5.781   0.942  0.3700 -0.3116  1.4942
10892SOL    HW234609   4.047   5.874   0.916  1.2199 -1.7445 -0.0580
10893SOL     OW34610   2.191   1.814   3.942  0.5671 -0.1915  1.0147
10893SOL    HW134611   2.104   1.848   3.963 -1.3209 -3.6717 -0.4121
10893SOL    HW234612   2.228   1.791   4.027 -1.2083 -1.3624  1.5432
10894SOL     OW34613   0.633   1.814   7.020 -0.2631  0.1944 -0.6087
10894SOL    HW134614   0.551   1.774   7.048  0.4172 -0.2205  0.9157
10894SOL    HW234615   0.698   1.778   7.081  0.8171  1.5420 -0.9410
10895SOL     OW34616   2.065   1.518   6.080 -0.1189  0.2688 -0.7304
10895SOL    HW134617   2.091   1.536   5.989  0.2605 -0.1122 -0.7031
10895SOL    HW234618   2.148   1.513   6.128 -0.2289 -0.9365 -0.6303
10896SOL     OW34619   6.057   6.551   4.275  0.5444  0.3028 -0.1241
10896SOL    HW134620   6.001   6.625   4.300  0.6603  0.5121 -0.4894
10896SOL    HW234621   5.995   6.482   4.252  0.4364  0.3450  0.0282
10897SOL     OW34622   6.015   6.513   1.370  0.7418 -0.0261  0.0179
10897SOL    HW134623   5.960   6.589   1.389 -0.2407 -0.4459 -0.9745
10897SOL    HW234624   6.082   6.513   1.438 -0.9154  0.0963  1.7310
10898SOL     OW34625   0.780   3.458   5.519 -0.2938  0.5420 -0.5874
10898SOL    HW134626   0.724   3.429   5.592 -0.1476 -2.7981 -1.6292
10898SOL    HW234627   0.869   3.436   5.547 -0.2575 -0.9914 -1.7699
10899SOL     OW34628   0.777   6.348   4.528 -0.1096  0.4572  0.0102
10899SOL    HW134629   0.837   6.354   4.454  0.0078 -1.3174 -0.0721
10899SOL    HW234630   0.691   6.333   4.488 -0.0756 -0.3112  0.2127
10900SOL     OW34631   8.700   3.332   7.394 -0.1141 -0.1426 -0.2593
10900SOL    HW134632   8.777   3.315   7.340  0.9294 -0.3721  1.2388
10900SOL    HW234633   8.629   3.347   7.331  0.9196 -0.9494 -1.6676
10901SOL     OW34634   3.003   3.918   6.128  0.3015 -0.2001  1.1132
10901SOL    HW134635   2.969   3.835   6.163  1.1698 -0.3242  1.6960
10901SOL    HW234636   2.932   3.981   6.144 -1.7337 -1.3784 -2.1665
10902SOL     OW34637   6.915   5.804   2.019  0.2518  0.5156 -0.6626
10902SOL    HW134638   6.876   5.800   1.932  1.2298  2.3270 -1.2490
10902SOL    HW234639   6.955   5.891   2.023  0.5541  0.3309  1.4676
10903SOL     OW34640   2.296   3.535   7.676  0.1230 -0.5125 -0.3713
10903SOL    HW134641   2.310   3.569   7.764  1.9332 -2.1015  0.0137
10903SOL    HW234642   2.216   3.482   7.683  0.8295 -1.4843  0.6045
10904SOL     OW34643   8.643   0.259   7.487  1.3300  0.4778  0.2893
10904SOL    HW134644   8.614   0.173   7.457  1.0382  0.7522 -0.2196
10904SOL    HW234645   8.613   0.264   7.578  0.0325  0.6370 -0.1330
10905SOL     OW34646   1.211   5.237   3.956 -0.0891  0.0830  0.1089
10905SOL    HW134647   1.225   5.327   3.986 -1.2582  0.2463  0.2141
10905SOL    HW234648   1.126   5.240   3.913 -0.5161 -1.1698  0.8587
10906SOL     OW34649   1.351   3.295   7.967 -0.1691 -0.3443  0.3211
10906SOL    HW134650   1.376   3.363   8.029 -0.7566 -0.0987  0.3013
10906SOL    HW234651   1.392   3.215   8.000  0.4164 -0.0083  0.4209
10907SOL     OW34652   6.203   4.035   6.494 -0.1819 -1.2106 -0.3055
10907SOL    HW134653   6.161   4.120   6.488 -0.9475 -1.3409  2.2221
10907SOL    HW234654   6.192   3.997   6.407  0.6780  1.4393 -1.6814
10908SOL     OW34655   3.183   5.021   3.245  0.0313 -0.3365  0.2602
10908SOL    HW134656   3.187   5.076   3.323  0.8154 -1.6478  1.1788
10908SOL    HW234657   3.264   5.041   3.198 -0.5138  0.5705 -0.3459
10909SOL     OW34658   7.282   1.673   5.947 -0.2401 -0.0646  0.0242
10909SOL    HW134659   7.343   1.599   5.955 -0.2194  0.0854  1.5467
10909SOL    HW234660   7.241   1.679   6.033 -2.2834 -0.0360 -0.9047
10910SOL     OW34661   8.724   2.697   1.109 -0.5407  0.2922 -0.1050
10910SOL    HW134662   8.676   2.774   1.079 -1.5296  0.5383  1.8888
10910SOL    HW234663   8.785   2.731   1.175 -2.0879 -0.7055  1.9868
10911SOL     OW34664   6.387   6.919   7.673 -0.5135  0.7211  0.0316
10911SOL    HW134665   6.308   6.947   7.718 -1.1948 -0.0392 -0.6741
10911SOL    HW234666   6.440   6.999   7.666 -2.0733  1.7189 -1.2392
10912SOL     OW34667   8.258   6.471   7.298  0.2668 -0.0506  0.0664
10912SOL    HW134668   8.235   6.514   7.380  0.8950 -1.9839  1.3315
10912SOL    HW234669   8.345   6.504   7.276  0.3218  0.0765  0.4762
10913SOL     OW34670   1.815   8.509   4.879 -0.6587 -0.3318 -0.4760
10913SOL    HW134671   1.817   8.597   4.916  1.1887  0.2068 -1.7180
10913SOL    HW234672   1.757   8.460   4.937  2.5843  0.1858  3.6670
10914SOL     OW34673   5.565   6.375   3.415 -0.5034  0.0660 -0.8413
10914SOL    HW134674   5.490   6.372   3.356 -0.5754  1.4736 -0.8394
10914SOL    HW234675   5.625   6.438   3.375 -0.2356  0.4960  0.2106
10915SOL     OW34676   5.502   3.803   5.478  0.5128 -0.2197 -0.1630
10915SOL    HW134677   5.550   3.885   5.474 -1.4556  1.1234  1.3277
10915SOL    HW234678   5.416   3.824   5.442  0.3387 -1.9819 -0.8923
10916SOL     OW34679   5.230   1.169   8.105 -0.4070  0.3030  0.1935
10916SOL    HW134680   5.263   1.093   8.152 -1.3468 -0.3967 -0.2502
10916SOL    HW234681   5.172   1.133   8.038  0.4485  1.3072 -1.1451
10917SOL     OW34682   4.429   4.379   7.878 -0.0364  0.3515 -0.2061
10917SOL    HW134683   4.434   4.475   7.876 -0.8246  0.3983 -0.3892
10917SOL    HW234684   4.443   4.356   7.970 -2.4594  0.8369  0.3544
10918SOL     OW34685   3.857   1.533   8.072 -0.2034  0.0096 -0.3761
10918SOL    HW134686   3.794   1.605   8.073 -0.4714 -0.1678  2.0166
10918SOL    HW234687   3.805   1.455   8.092  0.5820 -0.2837  0.6267
10919SOL     OW34688   2.054   2.986   2.791 -0.9954  0.0177  0.2627
10919SOL    HW134689   2.016   2.902   2.817 -0.7708 -0.3859 -0.6970
10919SOL    HW234690   2.045   2.989   2.696 -0.0866  0.6243  0.1783
10920SOL     OW34691   7.998   0.639   3.502  0.1684  0.2286 -0.3977
10920SOL    HW134692   7.958   0.637   3.415 -0.1158  2.1328 -0.3506
10920SOL    HW234693   7.925   0.628   3.563  0.0096  1.4240 -0.3597
10921SOL     OW34694   3.167   1.646   0.475 -0.3287  1.0064  0.0641
10921SOL    HW134695   3.125   1.576   0.525  0.3792 -0.0231 -0.7319
10921SOL    HW234696   3.128   1.641   0.388  0.9762  0.4161 -0.5182
10922SOL     OW34697   7.323   3.017   5.068  0.0117 -0.0420  0.4865
10922SOL    HW134698   7.398   3.074   5.057  0.2155 -0.2732  0.6605
10922SOL    HW234699   7.250   3.076   5.087 -0.2823  0.3533 -1.5976
10923SOL     OW34700   8.608   3.740   3.374 -0.0108 -0.4526 -0.3246
10923SOL    HW134701   8.603   3.769   3.465 -0.4119 -0.9056 -0.2000
10923SOL    HW234702   8.685   3.785   3.339  0.8228 -1.1542  0.5656
10924SOL     OW34703   6.629   8.661   6.134  0.6079  0.3373  0.3196
10924SOL    HW134704   6.635   8.565   6.135  0.2795  0.2838 -1.2647
10924SOL    HW234705   6.607   8.683   6.044  0.0833  1.8825  0.7931
10925SOL     OW34706   7.898   7.736   2.517  0.1871  0.3519  0.3063
10925SOL    HW134707   7.860   7.743   2.430  0.6482 -0.6413  0.0061
10925SOL    HW234708   7.826   7.702   2.572  0.1778  0.0203  0.0917
10926SOL     OW34709   0.283   3.787   4.552 -0.2753 -0.1679 -0.7907
10926SOL    HW134710   0.207   3.835   4.583  0.1931  0.8461 -1.1592
10926SOL    HW234711   0.248   3.702   4.524 -1.4455  0.6321 -1.8717
10927SOL     OW34712   2.285   4.375   2.391 -0.1868  0.4247  0.2348
10927SOL    HW134713   2.193   4.375   2.365 -0.7020  0.1848  1.9815
10927SOL    HW234714   2.327   4.433   2.328 -1.1661 -0.9070 -1.7642
10928SOL     OW34715   2.490   3.235   1.397 -0.0060 -0.4602  0.3056
10928SOL    HW134716   2.556   3.247   1.328  0.6323 -0.1655  0.9567
10928SOL    HW234717   2.458   3.146   1.384  0.6717 -0.6829  0.1073
10929SOL     OW34718   1.531   0.391   0.123 -0.1139  0.0134  0.7428
10929SOL    HW134719   1.499   0.307   0.089  1.5544 -0.3647  0.0033
10929SOL    HW234720   1.513   0.453   0.052  1.0966 -0.2813  0.1520
10930SOL     OW34721   4.691   7.465   4.111  0.9739  0.2868  0.4968
10930SOL    HW134722   4.750   7.413   4.165  0.8026  0.4847  0.8820
10930SOL    HW234723   4.618   7.487   4.169  0.3873 -0.1830 -0.0549
10931SOL     OW34724   2.581   3.936   4.527  1.0570  0.1995  0.0193
10931SOL    HW134725   2.498   3.941   4.480  1.4863  2.0837 -0.6631
10931SOL    HW234726   2.646   3.916   4.459  1.1895 -1.3989  0.5651
10932SOL     OW34727   7.621   7.882   7.185  0.4387 -0.0735 -0.9333
10932SOL    HW134728   7.554   7.951   7.189  0.4757 -0.0667 -0.2778
10932SOL    HW234729   7.695   7.923   7.141  0.4976  0.3426 -0.4568
10933SOL     OW34730   5.625   5.516   5.810  0.3532 -0.1732  0.1246
10933SOL    HW134731   5.678   5.466   5.872  1.2179  0.4598 -0.0832
10933SOL    HW234732   5.576   5.449   5.761  1.1344 -0.7885  0.1611
10934SOL     OW34733   0.819   0.820   7.366  0.5594 -0.0503  0.3261
10934SOL    HW134734   0.848   0.848   7.453  0.3678  0.4505  0.2307
10934SOL    HW234735   0.729   0.853   7.359  1.1487  1.4522 -0.7362
10935SOL     OW34736   1.673   3.459   6.753 -0.0047 -0.2544  0.6100
10935SOL    HW134737   1.661   3.372   6.716 -0.1188  0.2594 -0.6280
10935SOL    HW234738   1.598   3.473   6.810 -2.1724  0.5123 -2.2098
10936SOL     OW34739   0.559   8.301   5.507 -0.4114  0.1546  0.1619
10936SOL    HW134740   0.636   8.334   5.459  0.0274 -1.6908 -0.5229
10936SOL    HW234741   0.512   8.379   5.534 -0.8095  1.3918 -3.4910
10937SOL     OW34742   1.352   2.976   4.855  0.3556 -0.1278 -0.0834
10937SOL    HW134743   1.337   2.926   4.935  0.7693 -2.6534 -1.4661
10937SOL    HW234744   1.305   2.927   4.788  3.4477 -0.5792 -2.1181
10938SOL     OW34745   6.654   7.467   8.467 -0.6986  0.2532 -0.3955
10938SOL    HW134746   6.583   7.446   8.526  1.3587 -0.4745  1.9988
10938SOL    HW234747   6.671   7.560   8.482  0.0218 -0.0017  0.4409
10939SOL     OW34748   0.930   6.968   0.257 -0.1250 -0.2773  0.6455
10939SOL    HW134749   0.936   7.040   0.321 -1.5242  0.1101  0.3714
10939SOL    HW234750   1.020   6.939   0.246  0.2932  0.4540  1.8845
10940SOL     OW34751   0.102   6.747   5.303  0.0693 -0.6128 -0.6385
10940SOL    HW134752   0.063   6.732   5.389 -0.3265  0.7642 -0.5500
10940SOL    HW234753   0.030   6.784   5.251 -0.0587 -2.5439 -1.9594
10941SOL     OW34754   4.726   0.974   4.715  0.0798  0.5950  0.4026
10941SOL    HW134755   4.792   0.922   4.669  0.1295  0.1723  0.9537
10941SOL    HW234756   4.702   0.922   4.792 -1.0347  0.6502  0.1170
10942SOL     OW34757   2.940   5.853   0.605 -0.3301  0.2366  0.2003
10942SOL    HW134758   2.922   5.807   0.687  2.3700  1.9602  1.9208
10942SOL    HW234759   2.951   5.944   0.631  0.0393  0.9409 -2.2156
10943SOL     OW34760   2.779   7.974   0.822 -0.0476 -0.5018  0.2106
10943SOL    HW134761   2.765   7.897   0.766 -0.8590 -0.3082  0.1321
10943SOL    HW234762   2.759   8.049   0.766 -0.3774 -0.2829  0.6166
10944SOL     OW34763   4.039   2.394   6.350 -0.2814 -0.1688  0.8073
10944SOL    HW134764   4.005   2.306   6.336  1.1071 -0.8362  1.5378
10944SOL    HW234765   4.079   2.391   6.437 -0.5021  1.2842  0.9866
10945SOL     OW34766   0.900   5.418   6.764 -0.0570  0.6832  0.2547
10945SOL    HW134767   0.937   5.330   6.769  0.9001  1.0341 -0.4492
10945SOL    HW234768   0.811   5.405   6.729 -0.5377 -0.1343  1.6975
10946SOL     OW34769   2.035   4.344   2.258  0.4351  0.5619  0.0206
10946SOL    HW134770   2.028   4.249   2.264  1.6381  0.2330 -2.6109
10946SOL    HW234771   2.009   4.365   2.168  0.5380  2.6940  0.4266
10947SOL     OW34772   4.259   2.523   4.388 -0.0048  0.1599 -0.4070
10947SOL    HW134773   4.346   2.483   4.381  0.4027  0.8794  0.3780
10947SOL    HW234774   4.275   2.617   4.379 -0.8273  0.2311 -1.2304
10948SOL     OW34775   2.775   0.152   7.420 -0.0417 -0.5098 -0.6405
10948SOL    HW134776   2.818   0.159   7.335  0.2717  0.5394 -0.4059
10948SOL    HW234777   2.745   0.061   7.424 -0.4398 -0.4604 -2.0426
10949SOL     OW34778   3.243   7.117   4.884  0.1045  0.1591  0.5736
10949SOL    HW134779   3.336   7.123   4.903  0.1557  0.9143  0.1088
10949SOL    HW234780   3.203   7.185   4.939 -0.0792  0.3719  0.1766
10950SOL     OW34781   7.887   7.379   4.852 -0.1745 -0.3119 -0.3902
10950SOL    HW134782   7.835   7.372   4.932  1.1513 -0.5911  0.4871
10950SOL    HW234783   7.885   7.472   4.830  1.8060  0.3292  1.6807
10951SOL     OW34784   3.470   3.689   1.671 -0.0987  0.3495 -0.0840
10951SOL    HW134785   3.562   3.667   1.664 -0.5510 -1.3946 -1.2210
10951SOL    HW234786   3.442   3.649   1.754  0.6515  3.0789  1.6253
10952SOL     OW34787   4.481   4.289   4.074  0.4408 -0.2337  0.5357
10952SOL    HW134788   4.533   4.361   4.110 -0.4611  0.8612 -0.2761
10952SOL    HW234789   4.407   4.282   4.135 -2.3285  3.1358 -1.9946
10953SOL     OW34790   2.114   0.423   6.033  0.0387 -0.6036 -0.0856
10953SOL    HW134791   2.178   0.383   5.974  0.8944 -0.3134  0.6196
10953SOL    HW234792   2.065   0.350   6.069 -1.7211 -0.7153 -2.4474
10954SOL     OW34793   0.990   2.208   6.560 -0.2054  0.1975 -0.4477
10954SOL    HW134794   0.950   2.231   6.476  0.5138  0.0195 -0.8454
10954SOL    HW234795   0.931   2.245   6.626 -2.3267 -2.0520 -0.9249
10955SOL     OW34796   0.155   7.251   1.889  0.1731  0.3865 -0.4846
10955SOL    HW134797   0.066   7.286   1.882 -0.1472 -0.0873  0.8284
10955SOL    HW234798   0.142   7.157   1.901  0.8524  0.3120 -0.3074
10956SOL     OW34799   2.052   4.382   3.324  0.0698  0.1655 -0.1893
10956SOL    HW134800   2.028   4.414   3.411 -0.5140 -1.0070  0.1062
10956SOL    HW234801   2.147   4.393   3.320  0.5358 -2.3202  1.7324
10957SOL     OW34802   0.886   3.184   3.911  0.3009 -0.5220  0.2229
10957SOL    HW134803   0.864   3.092   3.925 -0.9750 -0.2562  0.0348
10957SOL    HW234804   0.877   3.225   3.997 -2.1347  0.0088 -0.2228
10958SOL     OW34805   7.809   4.843   4.795 -0.0388 -0.1818 -0.1046
10958SOL    HW134806   7.815   4.774   4.861  1.7077  1.4564  1.5920
10958SOL    HW234807   7.849   4.805   4.716  1.1480 -1.0231  0.8658
10959SOL     OW34808   3.481   4.790   7.037 -0.1225 -0.3022 -0.0562
10959SOL    HW134809   3.496   4.706   6.994  4.2125  0.5713 -0.7839
10959SOL    HW234810   3.516   4.855   6.975 -0.1997  1.6905  1.8532
10960SOL     OW34811   4.593   7.560   6.957  0.0644  0.5501 -0.2016
10960SOL    HW134812   4.685   7.551   6.931  0.0777 -0.1897  0.0939
10960SOL    HW234813   4.597   7.577   7.051 -0.0592  1.6012 -0.3772
10961SOL     OW34814   8.819   8.270   6.888 -0.1075  0.1190  0.4792
10961SOL    HW134815   8.789   8.361   6.886 -1.0300 -0.1917 -0.3416
10961SOL    HW234816   8.895   8.269   6.830  0.5936  0.5865  1.3641
10962SOL     OW34817   7.015   6.123   7.182 -0.1682 -0.3241  0.0436
10962SOL    HW134818   7.038   6.058   7.115 -0.7572  0.5195 -1.0089
10962SOL    HW234819   6.923   6.144   7.164 -0.1908  0.2789  0.8235
10963SOL     OW34820   7.762   5.046   1.171 -0.5692 -0.1551  0.3509
10963SOL    HW134821   7.771   5.101   1.092  2.3701  0.3561  0.9330
10963SOL    HW234822   7.822   5.085   1.234 -1.5550 -1.6010  2.2762
10964SOL     OW34823   4.740   4.535   6.023  0.3340  0.4949  0.0188
10964SOL    HW134824   4.720   4.572   6.109 -0.5354  0.9705 -0.3749
10964SOL    HW234825   4.802   4.464   6.042 -0.2370  0.2485  1.0969
10965SOL     OW34826   2.371   8.777   0.381  0.5207 -0.2266  0.7561
10965SOL    HW134827   2.364   8.717   0.306 -1.3304 -1.1103  1.5608
10965SOL    HW234828   2.426   8.730   0.443 -1.1848 -1.3446  1.5166
10966SOL     OW34829   2.300   8.807   4.163  0.2880  0.4070  0.4101
10966SOL    HW134830   2.358   8.745   4.208  1.4010  0.8033 -0.4277
10966SOL    HW234831   2.359   8.862   4.111 -0.7860  1.3192  0.1046
10967SOL     OW34832   2.234   6.173   0.330  0.2871  0.5300  0.0054
10967SOL    HW134833   2.301   6.116   0.292  0.9436  2.3005 -1.6075
10967SOL    HW234834   2.183   6.115   0.386  2.0066 -1.2669 -0.1701
10968SOL     OW34835   8.402   7.870   0.881 -0.4371  0.3289 -0.2268
10968SOL    HW134836   8.334   7.847   0.818  0.1974 -1.0951 -0.4313
10968SOL    HW234837   8.418   7.789   0.930  2.7465 -0.1480 -1.7733
10969SOL     OW34838   3.001   2.907   5.584 -0.3310  0.3696  0.4521
10969SOL    HW134839   2.984   2.832   5.641 -1.1215  1.0672  1.1519
10969SOL    HW234840   2.925   2.910   5.526  0.8891 -0.9005 -1.3210
10970SOL     OW34841   2.402   2.391   4.170 -0.1165 -0.0300 -0.4761
10970SOL    HW134842   2.409   2.461   4.234  1.1671 -1.4728  1.0402
10970SOL    HW234843   2.492   2.370   4.146 -0.4905 -0.8913 -1.2160
10971SOL     OW34844   7.573   8.153   2.752 -0.1225  0.4438  0.3668
10971SOL    HW134845   7.495   8.108   2.719 -0.1675  0.1673  0.8529
10971SOL    HW234846   7.554   8.246   2.738 -1.0590  0.4583  1.5789
10972SOL     OW34847   4.477   3.370   7.506 -0.1411  0.3939 -0.0065
10972SOL    HW134848   4.489   3.458   7.542  0.8807  0.5169 -0.6107
10972SOL    HW234849   4.554   3.321   7.535 -0.4807 -0.1848 -0.0547
10973SOL     OW34850   4.510   1.355   0.756 -0.6522  0.1005  0.0174
10973SOL    HW134851   4.450   1.282   0.774  1.1440 -1.1020  1.5806
10973SOL    HW234852   4.575   1.319   0.696 -0.3224  0.7355 -0.0153
10974SOL     OW34853   3.896   7.790   8.061  0.1932 -0.1319  0.1944
10974SOL    HW134854   3.979   7.804   8.016  0.7130 -3.1300  0.0291
10974SOL    HW234855   3.921   7.759   8.148 -0.6741 -2.3930 -0.3019
10975SOL     OW34856   6.476   2.136   7.762  0.7110 -0.1849 -0.0546
10975SOL    HW134857   6.429   2.219   7.767  0.6201 -0.0115 -2.6046
10975SOL    HW234858   6.536   2.137   7.838 -0.0735  1.6716  0.5802
10976SOL     OW34859   3.535   4.758   6.386 -0.2972  0.0901  0.1932
10976SOL    HW134860   3.624   4.728   6.405 -0.9331  0.3752  4.7970
10976SOL    HW234861   3.487   4.679   6.364  0.7379 -0.2279 -1.1124
10977SOL     OW34862   3.307   3.616   2.914 -0.4322  0.4076  0.0774
10977SOL    HW134863   3.238   3.550   2.903 -0.0617  0.1523 -0.8212
10977SOL    HW234864   3.262   3.692   2.951 -1.0624  0.0046  0.1584
10978SOL     OW34865   4.364   3.579   5.367 -0.0255 -0.3730 -0.1784
10978SOL    HW134866   4.410   3.650   5.413 -2.4909  0.8645  0.5290
10978SOL    HW234867   4.397   3.584   5.277  1.0108  0.6138  0.2255
10979SOL     OW34868   0.335   3.659   0.316  0.5696 -0.0388  0.1192
10979SOL    HW134869   0.244   3.663   0.285  0.8227 -1.2954 -0.8653
10979SOL    HW234870   0.380   3.727   0.267  0.2801  0.2406  0.2321
10980SOL     OW34871   4.713   3.233   7.242  0.4842  0.1713  0.5024
10980SOL    HW134872   4.714   3.142   7.271  0.5563  0.4906  1.5445
10980SOL    HW234873   4.636   3.271   7.283  0.0320  0.4009 -0.5358
10981SOL     OW34874   1.154   6.355   1.884  0.1352  0.7155 -0.1048
10981SOL    HW134875   1.060   6.369   1.873  0.0564  0.3529  0.1249
10981SOL    HW234876   1.166   6.332   1.976  0.4391  0.6686 -0.1522
10982SOL     OW34877   6.775   6.634   4.111  0.2573  0.0790 -0.1425
10982SOL    HW134878   6.715   6.589   4.052 -1.2815 -0.0885  1.4343
10982SOL    HW234879   6.774   6.725   4.083 -0.8664  0.0988 -0.0855
10983SOL     OW34880   0.173   0.964   5.323  0.1845  0.2707  0.5313
10983SOL    HW134881   0.175   0.913   5.404  0.0910 -1.6193 -0.6079
10983SOL    HW234882   0.081   0.986   5.311  0.0900 -0.1123  0.5457
10984SOL     OW34883   5.052   7.935   5.234 -0.5607  0.7341  0.3005
10984SOL    HW134884   5.110   7.898   5.167 -1.5826  1.2024 -0.8587
10984SOL    HW234885   5.012   8.011   5.192 -0.8683  1.3158  1.6096
10985SOL     OW34886   5.984   6.878   4.883  0.2727 -0.0725  0.5724
10985SOL    HW134887   5.948   6.909   4.966  1.0445 -0.3337  1.0209
10985SOL    HW234888   5.992   6.783   4.894  0.3088 -0.1181  0.1710
10986SOL     OW34889   3.906   0.136   3.985  1.1241  0.3885 -0.2359
10986SOL    HW134890   3.949   0.146   4.070  2.4454  0.6457 -0.9097
10986SOL    HW234891   3.892   0.226   3.955  0.5323  0.2993 -0.2413
10987SOL     OW34892   6.546   5.186   6.850  0.2565  0.1410  0.1048
10987SOL    HW134893   6.495   5.174   6.931  0.4969 -0.1259  0.2202
10987SOL    HW234894   6.485   5.163   6.780  0.3105 -0.5074  0.2582
10988SOL     OW34895   4.236   1.157   7.562 -0.0371 -0.4005 -0.7486
10988SOL    HW134896   4.223   1.109   7.481 -2.7648 -1.0122 -0.0428
10988SOL    HW234897   4.212   1.248   7.541 -0.4215 -0.4930 -0.7123
10989SOL     OW34898   1.379   2.679   8.187 -0.7602 -0.5058  0.3692
10989SOL    HW134899   1.459   2.711   8.228 -1.1449  0.9391  0.0484
10989SOL    HW234900   1.342   2.617   8.251 -1.1337  1.3564  2.0527
10990SOL     OW34901   3.614   4.673   1.696  0.3257  0.1132 -0.3195
10990SOL    HW134902   3.629   4.587   1.735 -0.1060 -0.3808 -1.2193
10990SOL    HW234903   3.693   4.723   1.718  0.0843 -0.1131  1.2171
10991SOL     OW34904   5.038   1.177   3.798 -0.1370 -0.3939  0.1471
10991SOL    HW134905   4.943   1.175   3.812 -0.0222  0.5497  1.2197
10991SOL    HW234906   5.067   1.257   3.842  1.2214 -0.9013  0.2253
10992SOL     OW34907   7.429   7.183   4.450  0.0149 -1.0336 -0.6019
10992SOL    HW134908   7.504   7.211   4.503 -0.4366 -0.9789  0.0174
10992SOL    HW234909   7.454   7.098   4.416  1.2539 -0.0997 -2.1915
10993SOL     OW34910   6.051   0.060   4.822  0.4559  0.6880 -0.0008
10993SOL    HW134911   6.003   0.018   4.893  0.8271  0.0683 -0.1157
10993SOL    HW234912   6.053   0.153   4.846  2.1363  0.2738  1.7170
10994SOL     OW34913   6.116   3.005   1.647 -0.1298  0.0365 -0.1581
10994SOL    HW134914   6.181   3.034   1.710 -0.2511  1.6813 -0.7301
10994SOL    HW234915   6.119   3.071   1.577 -1.7493 -0.3328 -0.6338
10995SOL     OW34916   1.893   0.594   7.981 -0.1998 -0.1205  0.3722
10995SOL    HW134917   1.808   0.590   7.938 -0.0293 -0.3982  0.0610
10995SOL    HW234918   1.872   0.612   8.073 -0.5790  0.1075  0.2434
10996SOL     OW34919   5.640   4.282   1.388  0.4057  0.4023  1.3176
10996SOL    HW134920   5.656   4.297   1.295 -0.3159 -1.0904  0.9208
10996SOL    HW234921   5.553   4.318   1.403 -0.7286 -1.8774  0.6887
10997SOL     OW34922   1.358   0.077   3.029 -0.3620  0.1537 -0.1903
10997SOL    HW134923   1.334   0.011   3.094  2.4711 -1.2670 -0.4337
10997SOL    HW234924   1.303   0.057   2.953 -2.0751  0.3995  0.9259
10998SOL     OW34925   7.976   0.889   8.159 -0.5066 -0.0423 -0.9185
10998SOL    HW134926   7.931   0.805   8.161 -1.4984  0.4819 -0.4070
10998SOL    HW234927   7.911   0.950   8.125  0.3385  0.4510 -1.7058
10999SOL     OW34928   7.771   1.858   6.713  0.1869  0.0143  0.1744
10999SOL    HW134929   7.700   1.850   6.776 -1.8993 -0.2219 -2.0535
10999SOL    HW234930   7.798   1.950   6.720 -2.8424  1.1711 -1.3017
11000SOL     OW34931   1.734   1.469   8.374  0.0695  0.0346 -0.1644
11000SOL    HW134932   1.762   1.379   8.360  0.9339  0.1888  0.5195
11000SOL    HW234933   1.795   1.522   8.323  0.8216  0.3474  1.0214
11001SOL     OW34934   7.743   4.212   0.949 -0.6845 -0.1120  0.3019
11001SOL    HW134935   7.663   4.161   0.961 -2.1046  1.8312 -0.4411
11001SOL    HW234936   7.713   4.302   0.934  1.6324  0.6605 -0.1781
11002SOL     OW34937   6.487   3.950   7.631 -0.5630 -0.2462  0.7366
11002SOL    HW134938   6.416   3.965   7.693  0.5725  0.4953  1.9145
11002SOL    HW234939   6.567   3.970   7.681  0.5060 -1.4601 -0.4068
11003SOL     OW34940   0.804   2.236   4.244  0.0744  0.3178  0.3047
11003SOL    HW134941   0.772   2.317   4.283 -1.7582 -0.0503 -0.3556
11003SOL    HW234942   0.824   2.259   4.153  2.6286  0.7458  0.9011
11004SOL     OW34943   6.528   0.909   0.363 -0.0438  0.4804  0.4666
11004SOL    HW134944   6.541   0.986   0.309  0.3412  1.9936  2.5928
11004SOL    HW234945   6.614   0.865   0.363 -0.7109 -1.0366 -2.1738
11005SOL     OW34946   7.267   5.427   7.250  0.0733  0.0415 -0.6256
11005SOL    HW134947   7.190   5.481   7.233 -1.3007 -2.5062 -3.3639
11005SOL    HW234948   7.338   5.472   7.203 -0.0457  1.4915  0.4906
11006SOL     OW34949   6.395   6.302   5.182 -0.0616  0.0907  0.1355
11006SOL    HW134950   6.341   6.382   5.186  0.1375  0.3125 -1.1972
11006SOL    HW234951   6.350   6.246   5.119 -0.2491 -0.9201  1.1286
11007SOL     OW34952   2.249   7.684   5.327 -0.2131  0.0246 -0.0885
11007SOL    HW134953   2.304   7.620   5.281 -0.3409  0.4862 -0.8945
11007SOL    HW234954   2.309   7.730   5.386  0.5479  1.3756 -1.8513
11008SOL     OW34955   2.261   4.808   8.649  0.7798 -0.4075 -0.1185
11008SOL    HW134956   2.348   4.770   8.636  0.1488 -2.5354  1.3034
11008SOL    HW234957   2.207   4.733   8.675 -0.6573  1.4219  2.5905
11009SOL     OW34958   3.442   5.821   6.436 -0.5703  0.3835 -0.4880
11009SOL    HW134959   3.477   5.883   6.500 -1.2991  0.9675 -0.6427
11009SOL    HW234960   3.409   5.748   6.490  0.5809 -0.0471 -0.3269
11010SOL     OW34961   5.914   7.322   8.174 -0.0961 -0.3873  0.2374
11010SOL    HW134962   5.859   7.245   8.169  0.1470 -0.5420 -0.1136
11010SOL    HW234963   5.856   7.395   8.155 -0.0229 -0.6189 -0.9407
11011SOL     OW34964   3.073   8.465   7.758  0.1765  0.2006  0.1298
11011SOL    HW134965   3.033   8.393   7.710 -1.3119  1.7629 -1.0727
11011SOL    HW234966   3.162   8.434   7.777 -0.7412 -2.3583  0.6561
11012SOL     OW34967   7.150   0.878   6.693 -0.3754  0.5632  0.1675
11012SOL    HW134968   7.221   0.911   6.638  0.3839 -1.1872  0.0372
11012SOL    HW234969   7.141   0.944   6.762 -1.3523  2.7905 -1.9614
11013SOL     OW34970   4.181   8.122   4.508  0.2890  0.5383  0.4579
11013SOL    HW134971   4.196   8.157   4.596  0.1935 -1.4698  1.3254
11013SOL    HW234972   4.149   8.033   4.522 -2.7283  1.1742 -1.5655
11014SOL     OW34973   2.152   3.449   8.036  0.3091 -0.8952 -0.4356
11014SOL    HW134974   2.194   3.533   8.017  1.2803 -1.6735 -1.9523
11014SOL    HW234975   2.215   3.403   8.091 -0.3186 -0.5726  0.5789
11015SOL     OW34976   8.737   3.957   7.407 -0.5766 -0.0039 -0.2349
11015SOL    HW134977   8.677   3.915   7.469 -0.1411 -1.5353 -0.8197
11015SOL    HW234978   8.824   3.928   7.434 -0.2200  0.8754 -0.4030
11016SOL     OW34979   4.990   5.932   7.845  0.1524  0.0154  0.1148
11016SOL    HW134980   4.998   6.018   7.804  2.6794 -0.3993 -0.4124
11016SOL    HW234981   4.920   5.889   7.795 -0.4577  1.3904 -0.2629
11017SOL     OW34982   7.287   1.248   2.484 -0.0435 -0.0668  0.7571
11017SOL    HW134983   7.239   1.324   2.517 -0.6662 -0.3595  0.5445
11017SOL    HW234984   7.294   1.190   2.560 -4.0851 -2.0947 -0.1099
11018SOL     OW34985   6.899   1.161   7.546 -0.4149  0.2703 -0.0819
11018SOL    HW134986   6.838   1.100   7.588  1.0646 -1.8463 -0.8815
11018SOL    HW234987   6.853   1.189   7.467 -0.4526 -1.1844 -0.5979
11019SOL     OW34988   0.006   0.866   3.661  0.1020 -0.0297 -0.3090
11019SOL    HW134989   0.075   0.799   3.665 -0.2369 -0.5048 -1.7500
11019SOL    HW234990   0.050   0.948   3.682  0.0933 -0.8796  3.9126
11020SOL     OW34991   6.860   8.320   3.204 -0.1923 -0.2220 -0.6003
11020SOL    HW134992   6.930   8.282   3.256 -0.4376 -0.0237 -0.1166
11020SOL    HW234993   6.880   8.413   3.199 -0.4866 -0.1442 -0.3534
11021SOL     OW34994   0.871   0.127   7.400 -0.4441 -0.3475  0.1409
11021SOL    HW134995   0.815   0.077   7.460 -1.7163  0.8050 -0.0384
11021SOL    HW234996   0.811   0.188   7.357  1.2144  2.3561  1.4101
11022SOL     OW34997   7.386   3.600   2.886  0.0980  0.3949  0.3483
11022SOL    HW134998   7.412   3.508   2.899 -1.1498 -0.0873 -0.3532
11022SOL    HW234999   7.469   3.645   2.868  0.9499 -0.2513  2.3438
11023SOL     OW35000   0.870   3.456   1.644 -0.5001 -0.0765  0.1012
11023SOL    HW135001   0.898   3.374   1.604  0.5398  0.6125 -0.6663
11023SOL    HW235002   0.922   3.463   1.724  1.1083  0.8507 -0.9541
11024SOL     OW35003   0.121   4.650   1.672  0.1635 -0.8461 -0.0305
11024SOL    HW135004   0.206   4.617   1.702  0.0449 -1.0474  0.0908
11024SOL    HW235005   0.089   4.582   1.612  0.3014 -0.5467 -0.4432
11025SOL     OW35006   0.279   6.944   3.922 -0.9617  0.2382  0.6553
11025SOL    HW135007   0.271   6.999   3.844  0.2170 -0.6758 -0.1420
11025SOL    HW235008   0.359   6.975   3.964  0.8242 -2.0343 -0.8366
11026SOL     OW35009   4.399   4.192   5.756 -0.2749 -0.1233  0.3164
11026SOL    HW135010   4.400   4.243   5.837  1.2653  1.0350 -0.3784
11026SOL    HW235011   4.306   4.178   5.738 -0.6664  0.0610  1.9640
11027SOL     OW35012   4.777   8.863   6.733 -0.4040 -0.0836 -0.4091
11027SOL    HW135013   4.722   8.941   6.726  1.1080  0.9181 -1.9729
11027SOL    HW235014   4.866   8.894   6.714  0.2360 -2.1821 -1.1319
11028SOL     OW35015   3.295   0.130   8.444 -0.3972  0.3531 -0.1043
11028SOL    HW135016   3.220   0.158   8.391  0.3575 -0.6101 -1.7483
11028SOL    HW235017   3.262   0.057   8.497 -0.7743  0.3336 -0.3635
11029SOL     OW35018   2.986   6.129   3.846 -0.3181 -0.0983  0.1971
11029SOL    HW135019   2.981   6.218   3.812  1.5996 -0.4725 -1.3221
11029SOL    HW235020   3.077   6.120   3.877 -0.7936 -1.1794  1.3593
11030SOL     OW35021   4.666   4.015   3.404 -0.1909 -0.1514 -0.4254
11030SOL    HW135022   4.640   4.007   3.496 -1.6081  0.7235 -0.7222
11030SOL    HW235023   4.761   4.029   3.407 -0.0560 -1.1623  0.8371
11031SOL     OW35024   6.235   6.040   4.124  0.2806  0.1724 -0.2908
11031SOL    HW135025   6.278   6.055   4.208 -3.1423  2.1535  1.3258
11031SOL    HW235026   6.299   6.069   4.059  2.0622  1.1896  1.7875
11032SOL     OW35027   3.408   0.415   0.660  0.1803  1.1171 -0.3544
11032SOL    HW135028   3.398   0.495   0.711 -0.4779  0.3892  0.7147
11032SOL    HW235029   3.467   0.360   0.712 -1.8449 -0.3232  0.5693
11033SOL     OW35030   4.183   1.760   1.401  0.4675  0.0906  0.3646
11033SOL    HW135031   4.253   1.755   1.336 -0.3870  0.2264 -0.5867
11033SOL    HW235032   4.136   1.678   1.392  1.2629 -0.5901  1.9311
11034SOL     OW35033   6.372   0.465   5.636 -0.5953  0.1184 -0.0301
11034SOL    HW135034   6.468   0.463   5.633 -0.5410  0.3684  0.9570
11034SOL    HW235035   6.349   0.554   5.612 -0.4858  0.4695  1.0850
11035SOL     OW35036   4.412   1.761   8.617  0.4016 -0.0207 -0.1272
11035SOL    HW135037   4.373   1.714   8.543  2.4415  0.0942 -1.3510
11035SOL    HW235038   4.428   1.849   8.583  1.9454 -0.1460  0.2048
11036SOL     OW35039   7.185   8.217   6.733 -0.0462 -0.0101 -0.3650
11036SOL    HW135040   7.148   8.134   6.703  0.7126 -0.3222 -0.4800
11036SOL    HW235041   7.141   8.284   6.681 -0.7259 -0.3355 -0.2121
11037SOL     OW35042   6.353   6.918   0.899  0.4528 -0.0517  0.2791
11037SOL    HW135043   6.261   6.932   0.877  0.5567  1.6846  0.7836
11037SOL    HW235044   6.380   6.843   0.845 -0.7823  0.4996 -1.1735
11038SOL     OW35045   7.130   8.736   6.126  0.6860  0.6940 -0.1979
11038SOL    HW135046   7.224   8.752   6.137  0.5595  0.7719  0.8607
11038SOL    HW235047   7.094   8.821   6.104  0.4858  1.2915  2.1780
11039SOL     OW35048   3.196   4.989   4.312 -0.2319  0.2863 -0.0975
11039SOL    HW135049   3.291   4.977   4.310 -0.2271  0.2725  0.2412
11039SOL    HW235050   3.161   4.902   4.333 -0.2519  0.5785  1.1516
11040SOL     OW35051   3.653   5.294   7.833  1.0472  0.0647 -0.0956
11040SOL    HW135052   3.650   5.273   7.740 -0.3597  0.3854 -0.1390
11040SOL    HW235053   3.678   5.211   7.875  1.0118 -0.2576 -0.6957
11041SOL     OW35054   8.108   2.020   8.079 -0.3532 -0.0149  0.2280
11041SOL    HW135055   8.102   2.076   8.001 -0.1495 -0.2056  0.0744
11041SOL    HW235056   8.085   2.078   8.152 -0.0168  0.3014  0.0854
11042SOL     OW35057   4.592   4.720   0.738  0.1182 -0.0633  0.3365
11042SOL    HW135058   4.537   4.666   0.680  0.1640  1.5730 -1.3351
11042SOL    HW235059   4.678   4.678   0.736 -0.1128 -0.5296 -0.0714
11043SOL     OW35060   3.956   4.030   1.724  0.0982  0.1840 -0.3561
11043SOL    HW135061   3.968   4.015   1.818  1.4175 -2.7929 -0.8958
11043SOL    HW235062   3.870   4.072   1.718 -2.0887 -3.3982  1.9829
11044SOL     OW35063   8.615   3.149   4.723 -0.9396  0.1546  0.1658
11044SOL    HW135064   8.616   3.166   4.817 -1.5027  0.2444  0.1588
11044SOL    HW235065   8.565   3.067   4.714  0.6617 -0.8739  0.0964
11045SOL     OW35066   1.135   2.714   3.150 -0.0360 -0.9597 -0.4224
11045SOL    HW135067   1.193   2.725   3.226  0.6127 -1.8265 -0.7729
11045SOL    HW235068   1.064   2.659   3.182 -0.5348 -0.1225 -0.0636
11046SOL     OW35069   4.364   6.074   6.700 -0.4604 -0.3925 -0.2229
11046SOL    HW135070   4.308   6.056   6.776  0.4979 -2.9658 -0.0392
11046SOL    HW235071   4.307   6.120   6.639 -2.3866 -1.6297  0.5505
11047SOL     OW35072   7.628   0.758   2.366 -0.7060  0.3390 -0.4586
11047SOL    HW135073   7.623   0.852   2.353 -3.3619  0.4944  1.0180
11047SOL    HW235074   7.594   0.721   2.285 -1.3294  0.7330 -0.3854
11048SOL     OW35075   8.676   6.999   0.975  0.4116 -0.8944  0.4075
11048SOL    HW135076   8.606   6.990   0.911 -0.7304  0.3938  1.4033
11048SOL    HW235077   8.682   7.094   0.990  2.3731 -0.9791  0.3681
11049SOL     OW35078   0.941   0.088   7.842 -0.0154 -0.5501  0.3431
11049SOL    HW135079   0.990   0.069   7.761 -2.3652 -0.5029 -1.1636
11049SOL    HW235080   0.916   0.001   7.874 -0.8299 -0.5005 -0.1352
11050SOL     OW35081   6.888   7.027   7.425 -0.3460  0.0608  0.2672
11050SOL    HW135082   6.857   7.073   7.348 -0.2831 -2.0551 -1.0912
11050SOL    HW235083   6.869   6.935   7.408  0.9680 -0.6229  2.1450
11051SOL     OW35084   6.391   2.738   0.206 -0.0715 -0.2445  0.4379
11051SOL    HW135085   6.400   2.833   0.209 -0.3030 -0.1654 -0.7494
11051SOL    HW235086   6.315   2.719   0.261 -0.1202  0.2737  0.5541
11052SOL     OW35087   6.275   5.456   2.373 -0.1060  0.1541  0.0615
11052SOL    HW135088   6.258   5.364   2.351 -3.7498  1.2333 -2.4522
11052SOL    HW235089   6.364   5.472   2.342  0.5418 -2.4066  0.3812
11053SOL     OW35090   5.833   7.734   8.848  0.3400 -0.6055  0.7921
11053SOL    HW135091   5.800   7.813   8.889  1.0077  0.1386 -0.0686
11053SOL    HW235092   5.838   7.670   8.920  1.2966  0.5978  1.8458
11054SOL     OW35093   1.487   2.120   5.330  0.3604 -0.5341  0.4710
11054SOL    HW135094   1.421   2.054   5.352  1.2231 -1.4315  0.4117
11054SOL    HW235095   1.569   2.072   5.324  0.6715  0.1681 -1.7544
11055SOL     OW35096   3.956   8.786   7.892 -0.2998 -0.2086  0.2384
11055SOL    HW135097   3.945   8.773   7.986 -0.2168 -0.8007  0.1694
11055SOL    HW235098   3.992   8.703   7.861 -0.0622  0.0859 -0.2706
11056SOL     OW35099   4.948   0.124   4.483 -0.3768 -0.7098  0.3767
11056SOL    HW135100   5.000   0.076   4.547  0.4111 -0.0114  0.2687
11056SOL    HW235101   4.934   0.061   4.412  2.0146 -0.3627 -0.5077
11057SOL     OW35102   2.591   3.769   3.520  0.2061  0.2093  0.1492
11057SOL    HW135103   2.685   3.788   3.515 -0.2658  2.7938 -0.2802
11057SOL    HW235104   2.562   3.811   3.601 -0.4240 -1.5803  0.8986
11058SOL     OW35105   1.156   5.045   7.463  0.6199  0.2294 -0.6662
11058SOL    HW135106   1.069   5.008   7.447 -0.2730  2.2883 -0.8845
11058SOL    HW235107   1.166   5.043   7.558  0.0506  0.5714 -0.5962
11059SOL     OW35108   1.436   7.077   8.454  0.2570  0.2095  0.0023
11059SOL    HW135109   1.431   7.170   8.478 -1.3173  0.3103 -0.5921
11059SOL    HW235110   1.529   7.056   8.458  0.5134  1.4280  1.5741
11060SOL     OW35111   4.597   5.032   2.422  0.1178 -0.3412 -0.5013
11060SOL    HW135112   4.546   5.022   2.503 -0.7098 -0.8315 -1.0695
11060SOL    HW235113   4.671   4.972   2.434 -0.1392 -0.6060 -0.2162
11061SOL     OW35114   8.711   2.718   1.405  0.0015  0.3987 -0.6100
11061SOL    HW135115   8.669   2.800   1.379  1.7953  1.3333 -0.6950
11061SOL    HW235116   8.640   2.666   1.443 -1.0579  2.2598  0.0851
11062SOL     OW35117   6.796   3.533   5.153  0.1160 -0.3709  0.5305
11062SOL    HW135118   6.733   3.555   5.084  0.9296 -1.3902 -0.5830
11062SOL    HW235119   6.742   3.510   5.228 -0.7957  1.1197  0.3846
11063SOL     OW35120   4.208   3.866   5.066 -0.1810 -0.0899  0.3047
11063SOL    HW135121   4.206   3.803   4.994  1.4314 -1.1200  1.1086
11063SOL    HW235122   4.166   3.821   5.139 -2.4882  1.2246 -0.1209
11064SOL     OW35123   1.215   0.339   8.652 -0.1829 -0.1832  0.4087
11064SOL    HW135124   1.202   0.433   8.662  0.6174 -0.1162  0.8493
11064SOL    HW235125   1.237   0.308   8.740 -0.8338 -0.8522  0.3518
11065SOL     OW35126   5.145   2.657   5.396  0.0094  0.3691  0.6785
11065SOL    HW135127   5.087   2.686   5.466 -0.6351  1.0543 -0.1146
11065SOL    HW235128   5.232   2.691   5.420  0.1865 -0.9835  2.0652
11066SOL     OW35129   3.744   5.878   2.322 -0.2569  0.4265  0.7568
11066SOL    HW135130   3.828   5.841   2.297 -0.6223 -1.1601  1.7585
11066SOL    HW235131   3.695   5.885   2.240  0.8103  1.3285  0.1748
11067SOL     OW35132   2.880   7.258   5.207  0.1376 -0.0440  0.7078
11067SOL    HW135133   2.871   7.224   5.118 -0.2750  1.5233  0.1221
11067SOL    HW235134   2.932   7.337   5.198  1.3141 -0.6202  2.0723
11068SOL     OW35135   6.271   4.777   2.985 -0.1578 -0.1402  0.3450
11068SOL    HW135136   6.313   4.701   2.944 -0.1891 -1.0242  1.8815
11068SOL    HW235137   6.196   4.796   2.928  1.2183  0.3080 -1.4119
11069SOL     OW35138   3.791   4.334   4.573 -0.4693 -0.7497  0.1633
11069SOL    HW135139   3.848   4.292   4.637  0.9447  1.2384  0.2953
11069SOL    HW235140   3.806   4.285   4.492  2.7538  0.6563 -0.2204
11070SOL     OW35141   3.169   8.154   1.952  0.0259  0.1323 -0.5157
11070SOL    HW135142   3.242   8.105   1.914 -0.2595  0.9557 -2.2247
11070SOL    HW235143   3.207   8.239   1.975  0.1612 -0.3057  1.0002
11071SOL     OW35144   8.797   4.416   0.803  0.5247 -0.1938 -0.1645
11071SOL    HW135145   8.856   4.343   0.786  0.5154  0.0930 -1.5945
11071SOL    HW235146   8.847   4.493   0.774  0.1865  0.2692  0.4679
11072SOL     OW35147   0.575   0.020   6.876  0.2048  0.2013  0.1190
11072SOL    HW135148   0.549   0.112   6.871 -1.4563 -0.2183  0.3839
11072SOL    HW235149   0.535  -0.020   6.799  1.3353 -0.2238 -0.2656
11073SOL     OW35150   7.121   4.161   6.115  0.4725 -0.0510  0.2454
11073SOL    HW135151   7.034   4.197   6.094 -0.0356 -0.8793  0.8955
11073SOL    HW235152   7.147   4.114   6.036 -0.0476 -0.5146  0.3464
11074SOL     OW35153   8.326   5.332   1.504  0.0804 -0.2586 -0.4954
11074SOL    HW135154   8.390   5.268   1.534  2.5785  2.2530 -0.0660
11074SOL    HW235155   8.267   5.343   1.578  2.0084  0.7325  0.9959
11075SOL     OW35156   3.882   4.278   0.678 -0.3662 -0.0457 -0.0126
11075SOL    HW135157   3.951   4.243   0.734 -0.5607 -1.1542 -0.4453
11075SOL    HW235158   3.925   4.296   0.594 -0.6617 -1.0811 -0.3986
11076SOL     OW35159   8.458   3.191   4.249  0.0305  0.0343  0.0745
11076SOL    HW135160   8.398   3.229   4.314 -0.0291  0.5018 -0.2443
11076SOL    HW235161   8.545   3.205   4.286  0.0788  1.4395 -0.5051
11077SOL     OW35162   4.399   2.752   1.750 -0.1507 -0.1643 -0.4716
11077SOL    HW135163   4.317   2.794   1.723 -1.1870 -2.5229 -1.2826
11077SOL    HW235164   4.391   2.744   1.845 -1.2820 -1.1151 -0.6237
11078SOL     OW35165   0.445   5.085   1.741  0.0780  0.0443  0.4652
11078SOL    HW135166   0.467   5.109   1.651 -0.9151 -0.8260 -0.0274
11078SOL    HW235167   0.355   5.055   1.736  0.2446 -0.6906  1.6242
11079SOL     OW35168   0.816   8.556   6.118  0.4063 -0.2160 -0.2660
11079SOL    HW135169   0.893   8.585   6.069  0.3480  0.7865  0.2120
11079SOL    HW235170   0.833   8.584   6.208  0.1211 -1.2656  0.1352
11080SOL     OW35171   1.073   3.349   7.989 -0.1452  0.1791 -0.5401
11080SOL    HW135172   1.166   3.357   7.967 -0.1091  1.6452  0.0531
11080SOL    HW235173   1.066   3.265   8.035  0.9166  0.1422 -0.4340
11081SOL     OW35174   4.460   3.164   4.684  0.0166  0.2427  0.1665
11081SOL    HW135175   4.500   3.217   4.615 -0.8511  0.7590  0.0440
11081SOL    HW235176   4.377   3.133   4.646 -0.3640  0.3435  0.8889
11082SOL     OW35177   7.879   6.604   8.381 -0.0776  0.3546 -0.1924
11082SOL    HW135178   7.824   6.678   8.356 -0.6969  0.3134  0.9403
11082SOL    HW235179   7.931   6.585   8.304 -0.5368  1.4110 -0.7856
11083SOL     OW35180   5.539   8.071   7.154 -0.1859  0.2644  0.3467
11083SOL    HW135181   5.501   8.159   7.154 -1.4199 -0.2461  0.8191
11083SOL    HW235182   5.475   8.018   7.106  0.4938 -0.3974  0.1638
11084SOL     OW35183   7.107   3.910   8.193 -0.4340 -0.2657  0.1042
11084SOL    HW135184   7.163   3.972   8.147  1.4284 -1.1271  1.0645
11084SOL    HW235185   7.125   3.826   8.151 -0.6924 -0.6245  0.6926
11085SOL     OW35186   3.295   8.437   3.805  0.2272  0.1229 -0.2188
11085SOL    HW135187   3.363   8.495   3.839  0.3143  1.1567 -2.0407
11085SOL    HW235188   3.332   8.402   3.724  0.1549 -2.4978  0.7666
11086SOL     OW35189   1.402   0.124   5.302 -0.1834 -0.0658 -0.3458
11086SOL    HW135190   1.404   0.110   5.207 -0.8202 -0.6400 -0.2782
11086SOL    HW235191   1.316   0.164   5.318 -0.2746 -0.4116  0.0418
11087SOL     OW35192   0.383   0.012   7.566  0.2841  0.8436  0.3729
11087SOL    HW135193   0.343   0.093   7.598 -0.8853 -0.3986  2.2650
11087SOL    HW235194   0.339  -0.057   7.615  2.9190 -0.8044  0.6268
11088SOL     OW35195   7.789   6.646   0.905 -0.5973 -0.2300 -0.2648
11088SOL    HW135196   7.846   6.583   0.949 -1.3844 -0.6187  0.2184
11088SOL    HW235197   7.844   6.724   0.893 -0.1340 -0.4010  0.6869
11089SOL     OW35198   5.168   3.210   4.029 -0.1430 -0.0757  0.0115
11089SOL    HW135199   5.108   3.253   3.967  1.2937 -0.0926 -1.4605
11089SOL    HW235200   5.173   3.271   4.102 -2.0832 -0.1675  0.2963
11090SOL     OW35201   4.895   2.945   6.330  0.2144 -0.3887 -0.7060
11090SOL    HW135202   4.904   2.850   6.337 -0.2991 -0.5526 -1.9112
11090SOL    HW235203   4.846   2.958   6.248 -0.1803  0.8922 -0.2864
11091SOL     OW35204   1.957   7.210   2.723  0.1114 -0.2044  0.2189
11091SOL    HW135205   2.016   7.279   2.751  0.7568 -1.0026  0.8665
11091SOL    HW235206   1.978   7.135   2.779 -0.4691 -0.9770 -0.5554
11092SOL     OW35207   7.807   3.959   0.334 -0.0225  0.3117 -0.2934
11092SOL    HW135208   7.833   4.028   0.396 -0.8723 -0.6780  1.2196
11092SOL    HW235209   7.877   3.894   0.340  0.3837  0.6517 -1.1369
11093SOL     OW35210   7.337   0.547   1.767  0.7478  0.4896 -0.2782
11093SOL    HW135211   7.368   0.470   1.813  1.4167  0.1309 -1.2949
11093SOL    HW235212   7.417   0.596   1.745  0.5007  0.3755 -1.5084
11094SOL     OW35213   7.470   1.455   7.716  0.0653  0.8335 -0.1134
11094SOL    HW135214   7.444   1.541   7.684 -0.5101  1.1430  1.1366
11094SOL    HW235215   7.393   1.400   7.702  0.1601  0.7241 -0.1992
11095SOL     OW35216   2.764   4.312   2.234  0.2979  0.2777  0.2070
11095SOL    HW135217   2.711   4.307   2.314  0.1555 -1.3794  0.0389
11095SOL    HW235218   2.854   4.311   2.265  0.2862 -2.2733  0.3307
11096SOL     OW35219   0.674   8.680   2.984 -0.1641 -0.0745 -0.3081
11096SOL    HW135220   0.703   8.711   2.898 -1.8232 -0.8466 -1.1876
11096SOL    HW235221   0.736   8.610   3.006  1.3661  1.3271  0.0034
11097SOL     OW35222   0.604   1.593   0.698 -0.3592  0.0141 -0.5627
11097SOL    HW135223   0.610   1.521   0.761  1.4193 -0.2651 -0.9927
11097SOL    HW235224   0.539   1.652   0.734  1.2693  0.3409  2.0496
11098SOL     OW35225   0.295   2.560   4.063  0.1760  0.4318  0.4083
11098SOL    HW135226   0.272   2.598   3.978  0.8775 -1.0499 -0.4840
11098SOL    HW235227   0.328   2.472   4.042 -0.3254 -0.2525  2.2799
11099SOL     OW35228   2.912   5.138   4.484  0.3566 -0.0858 -0.0066
11099SOL    HW135229   2.936   5.046   4.473  0.8679  0.1738 -1.2597
11099SOL    HW235230   2.996   5.184   4.490  0.1083  0.3571  0.1205
11100SOL     OW35231   3.889   2.451   4.831  0.2383  0.2387  1.0334
11100SOL    HW135232   3.865   2.466   4.740  0.2619  0.3230  1.0411
11100SOL    HW235233   3.884   2.356   4.841 -0.8508  0.3022  1.2492
11101SOL     OW35234   6.820   3.431   4.180 -0.2311 -0.1698 -0.2114
11101SOL    HW135235   6.843   3.342   4.208  1.2816  0.3767  0.3953
11101SOL    HW235236   6.779   3.419   4.094  0.7266 -1.3865 -0.5304
11102SOL     OW35237   8.623   4.097   4.914  0.0121  0.1568  0.4956
11102SOL    HW135238   8.699   4.151   4.936 -0.4509  0.9948  0.0568
11102SOL    HW235239   8.596   4.127   4.827  0.7942 -1.9786 -0.5422
11103SOL     OW35240   1.592   0.886   0.886 -0.3139 -0.9896 -0.4030
11103SOL    HW135241   1.682   0.913   0.907 -1.1913  3.0856 -1.1213
11103SOL    HW235242   1.565   0.833   0.962  1.6811  0.3257  1.3388
11104SOL     OW35243   8.077   7.167   3.053  0.6945  0.0689 -0.2241
11104SOL    HW135244   8.106   7.077   3.068 -0.8821 -0.3194  0.8158
11104SOL    HW235245   8.038   7.165   2.966 -1.3572 -0.8898  0.6352
11105SOL     OW35246   1.541   8.835   5.511 -0.1712 -0.7648  0.2597
11105SOL    HW135247   1.546   8.740   5.503 -3.0516 -0.8497 -2.1429
11105SOL    HW235248   1.495   8.864   5.432  2.7471  2.9334 -0.3781
11106SOL     OW35249   2.837   7.860   8.687  0.8745 -0.0516  0.3664
11106SOL    HW135250   2.849   7.886   8.595  0.3135  0.6606  0.4858
11106SOL    HW235251   2.826   7.942   8.734 -1.7624 -0.4608  0.6342
11107SOL     OW35252   8.479   7.887   4.295  0.5106 -0.7054  0.0525
11107SOL    HW135253   8.383   7.884   4.289  0.3197  2.0589  0.5023
11107SOL    HW235254   8.497   7.897   4.388  1.2556 -1.2389 -0.0227
11108SOL     OW35255   3.536   3.512   4.439 -0.4785  0.4671  0.4282
11108SOL    HW135256   3.575   3.455   4.506 -0.6023  0.8087  0.7934
11108SOL    HW235257   3.444   3.487   4.438 -0.0579 -1.2994 -1.3882
11109SOL     OW35258   1.702   2.816   4.265 -0.1113 -0.0606  0.2199
11109SOL    HW135259   1.639   2.777   4.205  1.1234 -1.7662 -0.0446
11109SOL    HW235260   1.658   2.893   4.300 -1.6189 -0.1587 -1.3425
11110SOL     OW35261   3.923   8.055   6.244 -0.4879  0.1805 -0.4232
11110SOL    HW135262   3.978   8.013   6.310 -0.2776  0.0826 -0.6559
11110SOL    HW235263   3.927   7.994   6.169 -2.1222 -0.5903  0.0801
11111SOL     OW35264   0.217   5.720   3.273 -0.1805 -0.3686 -0.6342
11111SOL    HW135265   0.172   5.652   3.324 -1.0695  0.3545 -0.4299
11111SOL    HW235266   0.281   5.757   3.334  0.2287 -0.9336 -0.7114
11112SOL     OW35267   7.270   3.309   2.345 -0.3211 -0.5068  1.2406
11112SOL    HW135268   7.303   3.386   2.300 -0.1127 -1.4209 -0.2430
11112SOL    HW235269   7.243   3.249   2.275  0.2685 -2.0966  2.3049
11113SOL     OW35270   1.752   1.088   5.672  0.2941  0.1634 -0.2864
11113SOL    HW135271   1.826   1.122   5.722  1.6042 -3.0233  0.1815
11113SOL    HW235272   1.753   1.139   5.591  0.8865  2.4127  1.0513
11114SOL     OW35273   0.205   2.978   3.109 -0.0505 -0.3847  0.3052
11114SOL    HW135274   0.283   2.924   3.106 -0.5074 -1.3175  2.5043
11114SOL    HW235275   0.133   2.917   3.089 -0.2751  0.3357 -1.1517
11115SOL     OW35276   5.624   8.151   8.031 -0.7067  0.4659  0.5235
11115SOL    HW135277   5.573   8.107   7.962 -0.5781  0.3135  0.5250
11115SOL    HW235278   5.558   8.181   8.094 -0.7025 -1.6629  1.6660
11116SOL     OW35279   5.879   2.947   7.907 -0.3138  0.0768 -0.2325
11116SOL    HW135280   5.787   2.946   7.878 -0.4956  1.6884  0.1847
11116SOL    HW235281   5.929   2.921   7.830 -0.9498  1.8029 -1.2748
11117SOL     OW35282   0.911   8.355   7.117 -0.0939  0.0797 -0.0885
11117SOL    HW135283   0.950   8.298   7.183  0.0029 -1.3321 -1.3245
11117SOL    HW235284   0.837   8.396   7.162 -0.0224 -0.8215  0.9042
11118SOL     OW35285   2.521   5.253   0.956  0.3170 -0.1597  0.4310
11118SOL    HW135286   2.583   5.325   0.942 -0.8042  0.6409 -0.5976
11118SOL    HW235287   2.567   5.193   1.014  1.3337  1.3142  1.2043
11119SOL     OW35288   3.962   8.237   6.799  0.6273 -0.2145 -0.0657
11119SOL    HW135289   3.908   8.158   6.795 -1.3533  1.0735 -0.1274
11119SOL    HW235290   4.045   8.207   6.836 -0.4649 -2.1024  1.0134
11120SOL     OW35291   7.276   2.941   8.308  0.0913  0.2854  0.3015
11120SOL    HW135292   7.290   2.852   8.275 -0.2508  0.3623 -0.0576
11120SOL    HW235293   7.199   2.934   8.363 -0.2965  0.4781 -0.2127
11121SOL     OW35294   7.534   5.319   0.707  0.6346 -0.3275 -0.0757
11121SOL    HW135295   7.512   5.378   0.635 -2.8294  0.7172  1.6408
11121SOL    HW235296   7.619   5.350   0.739  0.0233  2.2387 -0.7476
11122SOL     OW35297   5.751   7.355   4.647 -0.0194  0.5190 -0.2104
11122SOL    HW135298   5.802   7.433   4.671 -0.1727  0.8113 -0.8281
11122SOL    HW235299   5.662   7.387   4.636 -0.2871  0.0666  0.5349
11123SOL     OW35300   8.758   5.478   6.563 -0.3749  0.2571 -0.6369
11123SOL    HW135301   8.706   5.502   6.486  0.2376 -1.0433 -1.4972
11123SOL    HW235302   8.838   5.439   6.526  0.3743  0.5166  0.6648
11124SOL     OW35303   0.783   8.456   1.135 -0.4586 -0.2381  0.1111
11124SOL    HW135304   0.820   8.399   1.067 -3.2873 -1.3133 -0.6458
11124SOL    HW235305   0.810   8.414   1.217  3.1269  1.1560 -0.1580
11125SOL     OW35306   2.981   8.726   5.642  0.1833 -0.1864 -0.4861
11125SOL    HW135307   3.044   8.792   5.671 -0.1651 -0.1941  0.3325
11125SOL    HW235308   3.016   8.643   5.675 -1.2410  0.0248  1.8467
11126SOL     OW35309   6.956   8.225   6.290 -0.3263 -0.5265 -0.3548
11126SOL    HW135310   6.967   8.307   6.242 -0.8430 -1.3723 -2.0106
11126SOL    HW235311   6.904   8.170   6.231  2.3911 -3.0895 -0.5884
11127SOL     OW35312   1.798   1.705   3.922 -0.2914 -0.5649  0.1414
11127SOL    HW135313   1.824   1.796   3.938 -1.0017 -0.2362 -0.5126
11127SOL    HW235314   1.720   1.693   3.975 -0.8570 -0.4299 -0.6415
11128SOL     OW35315   7.898   1.102   5.793  0.3220  0.5311  0.8356
11128SOL    HW135316   7.946   1.104   5.876 -2.6076  2.4947  2.6814
11128SOL    HW235317   7.832   1.170   5.802 -0.4464  0.5428 -3.0162
11129SOL     OW35318   6.101   3.834   1.868 -0.8963  0.0280 -0.1181
11129SOL    HW135319   6.025   3.859   1.921  0.9660 -0.8527  3.2506
11129SOL    HW235320   6.166   3.903   1.884  0.7040 -1.6682  1.1751
11130SOL     OW35321   6.245   4.699   0.382  0.2215 -0.1361  0.0407
11130SOL    HW135322   6.223   4.656   0.299  1.2368  1.5631 -1.1837
11130SOL    HW235323   6.327   4.745   0.363  1.7253 -1.5353  2.6809
11131SOL     OW35324   0.314   3.816   7.975 -0.1363 -0.0678 -0.0414
11131SOL    HW135325   0.280   3.815   7.885  0.2885 -1.4342 -0.2117
11131SOL    HW235326   0.365   3.736   7.982 -0.3474 -0.0990  1.4977
11132SOL     OW35327   4.077   2.759   2.733 -0.1216 -0.1912 -0.6170
11132SOL    HW135328   4.072   2.663   2.735 -0.0209 -0.1923 -0.3515
11132SOL    HW235329   3.987   2.788   2.746 -0.0438 -0.2458  0.1027
11133SOL     OW35330   6.906   0.339   1.854 -0.0160 -0.1425  0.8236
11133SOL    HW135331   6.835   0.404   1.851  0.7778  0.8109  1.6951
11133SOL    HW235332   6.922   0.316   1.762  0.4898  1.8344  0.3624
11134SOL     OW35333   3.522   1.283   3.996  0.6999  0.3273  0.3878
11134SOL    HW135334   3.600   1.330   3.969  0.3982  0.0317 -1.0484
11134SOL    HW235335   3.529   1.197   3.953 -0.7475  0.5552 -0.3495
11135SOL     OW35336   8.409   2.358   8.375  0.7944 -0.1103 -0.6178
11135SOL    HW135337   8.344   2.321   8.434  0.4599  2.4562  0.7462
11135SOL    HW235338   8.492   2.319   8.403  0.3432 -0.6150  0.0348
11136SOL     OW35339   1.717   5.774   7.201  0.2987  0.2238 -0.6770
11136SOL    HW135340   1.770   5.815   7.269  0.2901  1.4325 -1.3646
11136SOL    HW235341   1.636   5.749   7.245  0.9316 -0.4998  0.1036
11137SOL     OW35342   5.146   3.776   6.548  0.1049 -0.2763  0.4280
11137SOL    HW135343   5.051   3.767   6.548 -0.1034  1.4037 -0.9409
11137SOL    HW235344   5.173   3.750   6.460  0.6953  1.0596  0.1940
11138SOL     OW35345   4.727   2.688   4.740  0.1652  0.2074  0.0860
11138SOL    HW135346   4.690   2.757   4.685 -0.6007  0.2745  0.6729
11138SOL    HW235347   4.743   2.732   4.824 -1.0186 -0.5061  0.6962
11139SOL     OW35348   4.206   3.925   8.299 -0.1859  0.2600  0.7700
11139SOL    HW135349   4.253   4.003   8.269 -0.3026  0.4230  1.0060
11139SOL    HW235350   4.264   3.885   8.363 -0.6478  0.8396  1.5788
11140SOL     OW35351   4.888   1.966   0.412  0.2040 -0.3551 -0.4850
11140SOL    HW135352   4.840   1.900   0.461 -0.5673  0.9620  0.6223
11140SOL    HW235353   4.831   2.043   0.413  1.4212  0.6014 -0.9955
11141SOL     OW35354   7.518   1.224   5.879 -0.3048 -0.0966  0.3127
11141SOL    HW135355   7.531   1.317   5.859  0.9887 -0.2407  0.3652
11141SOL    HW235356   7.541   1.179   5.797 -0.1909 -0.3971  0.5070
11142SOL     OW35357   1.070   1.922   1.956 -0.0903 -0.4294  0.5793
11142SOL    HW135358   1.051   1.920   2.050 -1.2961 -1.5617  0.3310
11142SOL    HW235359   1.061   2.015   1.933  0.0916 -0.1526  1.5520
11143SOL     OW35360   2.803   7.194   7.114  0.4106  0.2996 -0.2718
11143SOL    HW135361   2.883   7.190   7.062  1.2692  1.3322  0.9070
11143SOL    HW235362   2.833   7.220   7.202 -1.1329 -0.0413  0.3815
11144SOL     OW35363   7.286   4.346   5.348 -0.6725 -0.9084 -0.2902
11144SOL    HW135364   7.314   4.396   5.271  0.1215  0.0656  0.5954
11144SOL    HW235365   7.251   4.264   5.312 -1.4279  0.0005 -1.7537
11145SOL     OW35366   1.384   1.562   4.692 -0.3197 -0.3570 -0.1650
11145SOL    HW135367   1.313   1.568   4.757 -1.3515 -3.5678 -0.8364
11145SOL    HW235368   1.354   1.618   4.620 -1.0022  0.2090  0.5277
11146SOL     OW35369   2.539   5.596   3.717 -0.2118  0.6297  0.1663
11146SOL    HW135370   2.616   5.620   3.768  0.0882 -1.1304  0.6031
11146SOL    HW235371   2.574   5.558   3.637 -0.6452  0.9719 -0.1882
11147SOL     OW35372   6.848   5.153   7.371  0.5499 -0.0069  0.2156
11147SOL    HW135373   6.873   5.104   7.450  2.0470  2.5285  1.4514
11147SOL    HW235374   6.774   5.208   7.399  0.0651 -0.2144 -0.6176
11148SOL     OW35375   0.337   8.090   1.295  0.3873  0.5888 -0.5215
11148SOL    HW135376   0.242   8.096   1.308  0.2845 -0.2036 -0.8171
11148SOL    HW235377   0.349   8.011   1.241  1.2857  0.0307  0.4496
11149SOL     OW35378   1.835   8.246   1.957  0.5700 -0.0168 -0.3490
11149SOL    HW135379   1.835   8.156   1.988 -0.3544 -0.1117 -0.5778
11149SOL    HW235380   1.875   8.242   1.871  1.6065 -0.0167  0.1226
11150SOL     OW35381   0.408   5.574   3.104  0.7653 -0.2201  0.1875
11150SOL    HW135382   0.402   5.632   3.028  1.4853  0.7568  0.8478
11150SOL    HW235383   0.355   5.616   3.171 -0.3554 -1.3845  0.0650
11151SOL     OW35384   7.029   2.166   7.227  0.5008  0.2297  0.1600
11151SOL    HW135385   7.003   2.083   7.268 -0.3989  0.0514 -0.7293
11151SOL    HW235386   7.035   2.145   7.134 -0.7972  1.3889 -0.2226
11152SOL     OW35387   5.809   6.109   1.812  0.4105 -0.3276 -0.3442
11152SOL    HW135388   5.713   6.116   1.810  0.4800  1.7842  0.5539
11152SOL    HW235389   5.826   6.033   1.867 -0.7288 -1.5034 -1.5410
11153SOL     OW35390   5.701   0.404   8.551  0.3006  0.6355 -0.2419
11153SOL    HW135391   5.783   0.394   8.502  0.1834  1.4414 -0.6131
11153SOL    HW235392   5.657   0.319   8.540  0.3539  0.7321 -1.4056
11154SOL     OW35393   3.735   0.336   0.920  0.0607  0.0756 -0.0996
11154SOL    HW135394   3.650   0.327   0.879  0.9995 -0.9398 -1.9605
11154SOL    HW235395   3.773   0.248   0.918  1.3099  0.5719  0.2986
11155SOL     OW35396   1.747   6.152   4.653 -0.6322 -0.3123 -0.0632
11155SOL    HW135397   1.693   6.073   4.641  0.5670 -1.8131  3.2139
11155SOL    HW235398   1.837   6.121   4.641  0.0451 -0.1819  3.6481
11156SOL     OW35399   3.108   1.773   8.687 -0.2469 -0.3463 -0.5039
11156SOL    HW135400   3.051   1.850   8.687 -0.6656 -0.6339  0.4913
11156SOL    HW235401   3.195   1.807   8.710  0.0000  0.0881 -1.9966
11157SOL     OW35402   8.320   7.081   7.439  0.1308 -0.1562 -0.3539
11157SOL    HW135403   8.290   7.075   7.530  1.1691  0.0727  0.0146
11157SOL    HW235404   8.362   6.997   7.422  0.6276  0.0871 -0.3567
11158SOL     OW35405   3.006   8.146   3.405 -0.4809  0.7800  0.6478
11158SOL    HW135406   3.078   8.085   3.422 -0.3219  0.9510  0.5784
11158SOL    HW235407   2.991   8.140   3.311  0.0539  1.4351  0.5194
11159SOL     OW35408   1.437   4.114   8.820  0.1124  0.4353  0.0417
11159SOL    HW135409   1.517   4.064   8.836 -0.6699 -0.8728  0.0698
11159SOL    HW235410   1.420   4.103   8.726 -1.5106 -1.7349  0.4925
11160SOL     OW35411   4.760   5.404   0.080  0.1532 -0.0342  0.4135
11160SOL    HW135412   4.730   5.355   0.156  2.8993 -1.4314  0.7187
11160SOL    HW235413   4.829   5.461   0.113  1.5778 -0.8401 -0.9719
11161SOL     OW35414   8.832   1.749   1.066 -0.4637 -0.5504 -0.2687
11161SOL    HW135415   8.918   1.739   1.025 -1.0591  2.1083 -2.4939
11161SOL    HW235416   8.774   1.692   1.016 -0.3323 -0.9864  0.0706
11162SOL     OW35417   8.813   6.796   1.973 -0.3465 -0.0939  0.2285
11162SOL    HW135418   8.727   6.827   2.003 -0.0361  0.8517  0.1721
11162SOL    HW235419   8.805   6.701   1.973 -1.4123 -0.0217  0.1855
11163SOL     OW35420   8.625   0.331   8.851  0.5318 -0.0625  0.3113
11163SOL    HW135421   8.688   0.260   8.846  1.0974  0.5040 -1.3961
11163SOL    HW235422   8.668   0.399   8.903 -0.3167 -1.1895  2.6330
11164SOL     OW35423   6.938   5.260   2.524  0.0550 -0.1729 -0.6930
11164SOL    HW135424   6.999   5.193   2.555 -2.2194 -1.5965  1.0883
11164SOL    HW235425   6.908   5.227   2.439  2.4798  1.1135 -2.1380
11165SOL     OW35426   7.438   2.029   4.713  0.0559 -0.3989 -0.0752
11165SOL    HW135427   7.484   2.024   4.797  0.4939 -1.2035 -0.3549
11165SOL    HW235428   7.505   2.008   4.648  0.3497  2.5321 -0.8730
11166SOL     OW35429   5.860   8.110   4.304  0.9362 -0.1657 -0.5644
11166SOL    HW135430   5.820   8.070   4.382 -0.3250  1.2470 -0.4427
11166SOL    HW235431   5.953   8.117   4.326  0.4180  1.3978  1.3968
11167SOL     OW35432   3.567   4.251   4.747  0.4005 -0.0701  0.1246
11167SOL    HW135433   3.582   4.296   4.663 -0.0737 -0.0686  0.0409
11167SOL    HW235434   3.655   4.229   4.778  0.7508  2.1468  0.8564
11168SOL     OW35435   4.736   6.882   3.284 -0.1968  0.1766 -0.9132
11168SOL    HW135436   4.731   6.796   3.241 -0.7656  0.6558 -1.8342
11168SOL    HW235437   4.678   6.874   3.359  0.4654 -0.5341 -0.4664
11169SOL     OW35438   8.379   3.688   5.195  0.2328  0.1082  0.0977
11169SOL    HW135439   8.376   3.716   5.104  1.3512 -0.8536 -0.2575
11169SOL    HW235440   8.353   3.765   5.245  0.9126  1.0447 -0.9666
11170SOL     OW35441   1.174   1.629   4.882 -0.3124  0.6122  1.0593
11170SOL    HW135442   1.133   1.716   4.881 -2.6618 -0.2699 -3.4271
11170SOL    HW235443   1.111   1.573   4.927 -0.7775  0.5250  0.3128
11171SOL     OW35444   8.823   2.961   0.315  0.1274  0.2210  0.9525
11171SOL    HW135445   8.821   3.036   0.255  0.4580  0.0807  0.7629
11171SOL    HW235446   8.731   2.934   0.323 -0.1208  1.2405  1.7794
11172SOL     OW35447   2.487   0.515   2.792 -0.3174  0.4270  0.6609
11172SOL    HW135448   2.514   0.573   2.721  0.3244  0.6601  1.0843
11172SOL    HW235449   2.559   0.519   2.855  0.3706 -1.7954  0.1276
11173SOL     OW35450   6.828   7.035   5.289  1.0671  0.3587  0.4480
11173SOL    HW135451   6.922   7.029   5.270  1.0853 -0.8592  0.8025
11173SOL    HW235452   6.788   7.060   5.206  1.5903 -0.4159 -0.0582
11174SOL     OW35453   7.415   3.583   5.369  0.6223  0.3227  0.7304
11174SOL    HW135454   7.502   3.571   5.407  0.8284 -1.3716 -0.1638
11174SOL    HW235455   7.356   3.589   5.444  1.5779  2.5878  1.3814
11175SOL     OW35456   7.241   8.332   8.620  0.4341 -0.4207 -0.2715
11175SOL    HW135457   7.235   8.398   8.551 -1.3398  0.6357  0.8037
11175SOL    HW235458   7.263   8.382   8.699  2.6462 -1.6295 -0.0707
11176SOL     OW35459   0.479   2.631   5.380 -0.0166  0.0969  0.2218
11176SOL    HW135460   0.559   2.606   5.428  0.0568  0.6721  0.4029
11176SOL    HW235461   0.408   2.610   5.440  0.1365  1.9909  1.1190
11177SOL     OW35462   1.822   2.588   3.527 -0.4350  0.3047  0.0502
11177SOL    HW135463   1.836   2.682   3.530 -1.2744  0.4184  1.5178
11177SOL    HW235464   1.878   2.553   3.597  3.3879 -0.8905 -3.2332
11178SOL     OW35465   7.679   4.922   1.816  0.0200  0.3214  0.2189
11178SOL    HW135466   7.715   4.891   1.733  1.6024  3.3905 -0.3926
11178SOL    HW235467   7.750   4.970   1.858 -1.5221  1.1651  2.0800
11179SOL     OW35468   3.700   7.372   0.646 -0.1999 -0.1831 -0.2020
11179SOL    HW135469   3.632   7.391   0.582 -1.4012 -0.2355  1.0073
11179SOL    HW235470   3.744   7.295   0.612 -1.7063 -1.0378 -0.3214
11180SOL     OW35471   5.533   3.515   6.311  0.3683 -0.3634 -0.1003
11180SOL    HW135472   5.511   3.601   6.347  1.3159 -0.5136  0.8804
11180SOL    HW235473   5.537   3.529   6.216  1.5350  0.9256  0.1144
11181SOL     OW35474   3.245   6.673   8.761 -0.2358  0.3434  0.4757
11181SOL    HW135475   3.175   6.713   8.710 -1.0901 -1.1759  0.3905
11181SOL    HW235476   3.268   6.739   8.826 -1.7400  0.8938  0.4931
11182SOL     OW35477   0.799   4.699   4.668 -0.3802  0.2305 -0.2266
11182SOL    HW135478   0.843   4.766   4.720 -1.4727 -0.0811  1.1375
11182SOL    HW235479   0.826   4.616   4.707 -1.1736 -0.0117 -0.1707
11183SOL     OW35480   1.560   2.587   3.447 -0.1513  0.0674 -0.0565
11183SOL    HW135481   1.655   2.575   3.449 -0.2581 -0.7547  0.4293
11183SOL    HW235482   1.528   2.542   3.525 -0.9099  0.6928  0.0070
11184SOL     OW35483   4.854   6.579   0.607 -0.0858 -0.1429 -0.0065
11184SOL    HW135484   4.896   6.495   0.587 -1.6523 -0.8213 -0.5995
11184SOL    HW235485   4.909   6.617   0.675  2.1964 -0.3829 -1.5850
11185SOL     OW35486   5.305   3.147   3.044  0.2289 -0.4340  0.4489
11185SOL    HW135487   5.313   3.171   2.952  1.1000 -0.8664  0.4020
11185SOL    HW235488   5.374   3.196   3.088 -1.3346  1.2099  1.1892
11186SOL     OW35489   1.123   2.695   8.070  0.1187  0.1471  0.3394
11186SOL    HW135490   1.201   2.661   8.113 -0.8524 -2.0610  0.5037
11186SOL    HW235491   1.132   2.668   7.979 -0.2058  0.3524  0.2421
11187SOL     OW35492   2.635   2.474   3.201  0.4816  0.2268  0.5446
11187SOL    HW135493   2.586   2.550   3.232 -0.0957  0.8173 -1.6254
11187SOL    HW235494   2.595   2.400   3.245  0.0116  1.0179  1.4985
11188SOL     OW35495   8.102   4.837   0.595  0.2407 -0.3748  0.7297
11188SOL    HW135496   8.013   4.857   0.623 -0.1360 -0.4608 -0.3961
11188SOL    HW235497   8.097   4.751   0.555  0.6860 -0.0711 -0.0051
11189SOL     OW35498   4.374   1.197   3.876 -0.4442  0.1141 -0.0166
11189SOL    HW135499   4.400   1.109   3.849 -2.8458 -0.1048 -1.9368
11189SOL    HW235500   4.348   1.187   3.968 -0.8869 -1.2751 -0.2623
11190SOL     OW35501   5.792   4.782   5.811 -0.1564 -0.4300  0.2188
11190SOL    HW135502   5.740   4.839   5.754  1.0802  0.5064 -0.0245
11190SOL    HW235503   5.816   4.708   5.755 -0.7811 -0.6122  0.1834
11191SOL     OW35504   1.375   5.879   3.597  0.2451 -0.4502  0.4681
11191SOL    HW135505   1.314   5.837   3.658 -0.2006 -0.7704 -0.1950
11191SOL    HW235506   1.362   5.834   3.514 -0.1313  0.8898 -0.2259
11192SOL     OW35507   2.862   1.809   4.078 -0.0239 -0.2012 -0.1992
11192SOL    HW135508   2.788   1.770   4.031 -0.2580  1.0889 -0.9292
11192SOL    HW235509   2.938   1.787   4.026 -0.1597  0.3427 -0.6293
11193SOL     OW35510   8.606   8.778   6.328 -0.1807  0.1146 -0.2149
11193SOL    HW135511   8.636   8.862   6.294 -1.2832  1.6905  2.4253
11193SOL    HW235512   8.524   8.798   6.373 -0.4592 -2.3865  0.5302
11194SOL     OW35513   0.647   5.469   3.443  0.0039  0.1618  0.5765
11194SOL    HW135514   0.707   5.475   3.370 -0.2306 -0.9701  0.2710
11194SOL    HW235515   0.610   5.557   3.452  1.7641  0.9003  0.8486
11195SOL     OW35516   6.331   6.666   0.514 -0.2567 -0.9200 -0.2608
11195SOL    HW135517   6.414   6.700   0.480 -0.7957  0.1310 -0.5532
11195SOL    HW235518   6.349   6.651   0.607  0.1737 -0.3549 -0.2409
11196SOL     OW35519   3.177   4.367   4.010 -0.2367  0.6283 -0.0161
11196SOL    HW135520   3.139   4.316   3.938  0.2765  0.7452 -0.3732
11196SOL    HW235521   3.124   4.344   4.087 -0.8305  0.5560 -0.4439
11197SOL     OW35522   4.746   4.699   3.210 -0.2581 -0.3427  0.0433
11197SOL    HW135523   4.678   4.664   3.269 -0.2279 -2.9490 -1.3308
11197SOL    HW235524   4.732   4.653   3.128  0.7880  1.9504 -1.5224
11198SOL     OW35525   7.384   0.045   1.369 -0.1672  0.0857 -0.0104
11198SOL    HW135526   7.297   0.056   1.407 -0.0424 -0.3731  0.4226
11198SOL    HW235527   7.439   0.108   1.415  0.3685 -1.6571  1.8785
11199SOL     OW35528   3.956   6.121   6.953  0.1651  0.5802 -0.5889
11199SOL    HW135529   3.889   6.138   6.887 -1.3319 -1.5395  0.2941
11199SOL    HW235530   3.922   6.162   7.033 -1.0108 -1.9481  0.2902
11200SOL     OW35531   1.882   0.855   0.500  0.1664 -0.0504  0.4191
11200SOL    HW135532   1.888   0.837   0.593  0.9096  1.7766  0.7741
11200SOL    HW235533   1.966   0.829   0.464  0.1422 -0.0861  0.3879
11201SOL     OW35534   7.250   6.753   8.848  0.4201  0.2159 -0.3426
11201SOL    HW135535   7.243   6.707   8.931 -1.2499 -1.1060 -1.1408
11201SOL    HW235536   7.196   6.831   8.859 -0.2612 -0.2462 -0.3365
11202SOL     OW35537   3.625   0.496   3.331 -0.2275 -0.6708 -0.6019
11202SOL    HW135538   3.683   0.484   3.405  0.1897  0.0781 -0.7986
11202SOL    HW235539   3.570   0.571   3.355  2.1049  1.7733 -2.3368
11203SOL     OW35540   5.570   2.318   1.517 -0.1112  0.5472 -0.2401
11203SOL    HW135541   5.620   2.396   1.538  1.9609 -0.8821  0.4820
11203SOL    HW235542   5.521   2.298   1.597  0.2321  0.4968 -0.0410
11204SOL     OW35543   2.224   4.253   5.367  0.3374 -0.2780  0.0634
11204SOL    HW135544   2.158   4.187   5.346 -0.6623  0.7007  0.0483
11204SOL    HW235545   2.280   4.211   5.433 -1.0589 -0.6999  1.0135
11205SOL     OW35546   6.203   0.114   7.230 -0.4714 -0.1826  0.0522
11205SOL    HW135547   6.236   0.191   7.184 -0.1048 -0.9401 -0.9856
11205SOL    HW235548   6.114   0.137   7.256 -0.2900  0.6596 -0.0676
11206SOL     OW35549   3.634   6.141   2.027 -0.0257  0.3196 -0.1694
11206SOL    HW135550   3.584   6.101   2.098 -0.1440 -0.7933 -0.8479
11206SOL    HW235551   3.569   6.189   1.975 -0.0038  0.7938  0.2361
11207SOL     OW35552   2.574   5.594   6.062 -0.4435  0.6617  0.6639
11207SOL    HW135553   2.625   5.613   5.984 -1.6431  0.2032 -0.2588
11207SOL    HW235554   2.596   5.504   6.084 -0.3555  0.6837  0.6673
11208SOL     OW35555   4.652   2.439   4.775 -0.1794 -0.0867 -0.2967
11208SOL    HW135556   4.644   2.427   4.870 -0.1332 -2.2379 -0.5000
11208SOL    HW235557   4.685   2.528   4.764 -0.8547  0.4543  1.6644
11209SOL     OW35558   2.485   6.942   3.798 -0.5810  0.3499  0.0145
11209SOL    HW135559   2.502   6.934   3.704 -0.1725 -0.5454  0.1550
11209SOL    HW235560   2.485   7.036   3.814  1.1955  0.4761 -0.5509
11210SOL     OW35561   3.137   4.390   2.195 -0.1902 -0.2078  0.2652
11210SOL    HW135562   3.139   4.302   2.232  2.3084 -0.7886 -1.0231
11210SOL    HW235563   3.116   4.376   2.102  0.2807  0.5248  0.0378
11211SOL     OW35564   0.478   6.273   0.064  0.2498  0.3816  0.2120
11211SOL    HW135565   0.542   6.343   0.053 -0.2625  0.7997 -0.1878
11211SOL    HW235566   0.489   6.218  -0.013 -0.1098  0.6583 -0.0433
11212SOL     OW35567   8.153   5.283   3.799  0.1611 -0.0543 -0.4782
11212SOL    HW135568   8.070   5.246   3.769  0.5493 -0.2298 -1.3660
11212SOL    HW235569   8.135   5.311   3.889 -0.2226 -2.1168  0.1349
11213SOL     OW35570   2.113   3.019   1.446 -0.2331  0.0817 -0.2294
11213SOL    HW135571   2.049   3.086   1.424 -1.2428 -0.2171  1.5792
11213SOL    HW235572   2.198   3.059   1.425 -0.8883  1.3172 -0.6265
11214SOL     OW35573   5.046   4.337   8.613 -0.0572 -0.3064 -0.0258
11214SOL    HW135574   5.100   4.355   8.689 -0.2152 -0.0171  0.0196
11214SOL    HW235575   4.956   4.349   8.644 -0.1543 -0.8270 -0.0887
11215SOL     OW35576   2.740   7.245   0.224 -0.0837  0.1332  0.3167
11215SOL    HW135577   2.668   7.245   0.288 -0.2268 -0.1629  0.1575
11215SOL    HW235578   2.720   7.318   0.166 -1.4928 -1.3087 -1.0935
11216SOL     OW35579   2.086   6.836   2.178 -0.1531 -0.2361 -0.0743
11216SOL    HW135580   2.053   6.840   2.268  1.0026  2.4232  0.3298
11216SOL    HW235581   2.064   6.748   2.149 -2.8693 -0.3545  1.9107
11217SOL     OW35582   3.081   3.934   6.655 -1.0631  0.1539 -0.0057
11217SOL    HW135583   3.146   3.987   6.701 -1.2653  0.2828  0.1342
11217SOL    HW235584   3.075   3.974   6.568 -0.1102 -0.5618 -0.4227
11218SOL     OW35585   5.036   1.152   0.120  0.1838 -0.0528 -0.3195
11218SOL    HW135586   4.998   1.086   0.178  1.9752 -0.0188  0.9962
11218SOL    HW235587   5.071   1.219   0.179  1.6397  0.2309 -1.4324
11219SOL     OW35588   8.455   1.080   5.294  0.3451  0.7277  0.3327
11219SOL    HW135589   8.402   1.047   5.367  0.8153  0.2261  0.4530
11219SOL    HW235590   8.443   1.014   5.225 -1.7835  2.2254 -0.8425
11220SOL     OW35591   4.708   4.678   5.372 -0.2550 -0.1040 -0.7193
11220SOL    HW135592   4.768   4.743   5.335 -2.0472  1.3984 -1.1018
11220SOL    HW235593   4.696   4.614   5.302  0.6087 -0.2383 -0.7612
11221SOL     OW35594   1.790   0.443   6.208 -0.2990 -0.1524 -0.7217
11221SOL    HW135595   1.872   0.483   6.238 -0.4829 -0.8693  0.8268
11221SOL    HW235596   1.783   0.362   6.259 -1.4580 -0.6289 -1.5943
11222SOL     OW35597   2.754   7.459   7.405 -0.1604  0.5614  0.4071
11222SOL    HW135598   2.827   7.403   7.377  0.8473  0.7388  2.4732
11222SOL    HW235599   2.682   7.397   7.421  0.1043  0.1728  0.1200
11223SOL     OW35600   1.950   2.487   3.977 -0.9807 -0.2785  0.3795
11223SOL    HW135601   2.044   2.477   3.991 -0.8746  1.2788  0.9906
11223SOL    HW235602   1.926   2.563   4.029 -2.7681 -1.1695  0.9406
11224SOL     OW35603   4.129   0.666   3.206  0.2937  0.9009  0.0495
11224SOL    HW135604   4.062   0.629   3.263  1.7119  0.3523  1.4118
11224SOL    HW235605   4.209   0.663   3.257  1.7800 -0.1921 -2.1679
11225SOL     OW35606   4.815   4.938   1.530  0.1562  0.2161 -0.6478
11225SOL    HW135607   4.851   4.919   1.617  0.2291 -0.7693 -0.8746
11225SOL    HW235608   4.797   5.032   1.531 -0.9533  0.0187  0.8383
11226SOL     OW35609   7.909   3.998   2.301  0.5237 -0.2696  0.2236
11226SOL    HW135610   7.834   3.943   2.277 -0.4823  0.6222  1.2433
11226SOL    HW235611   7.899   4.076   2.247  0.1807  0.2602  1.0438
11227SOL     OW35612   0.504   7.127   4.686  0.0280  0.3565  0.0646
11227SOL    HW135613   0.437   7.164   4.744 -1.1450 -1.2528 -0.1716
11227SOL    HW235614   0.469   7.041   4.663  1.2119  0.3263 -1.7659
11228SOL     OW35615   8.328   8.716   4.823 -0.6530 -0.2931  0.0000
11228SOL    HW135616   8.300   8.648   4.763  0.7373 -0.6363 -0.2922
11228SOL    HW235617   8.353   8.790   4.767 -2.2977  0.5638  0.3161
11229SOL     OW35618   4.986   6.848   5.400 -0.1844 -0.3254  0.4780
11229SOL    HW135619   5.065   6.899   5.420  0.5352 -0.8945 -0.7617
11229SOL    HW235620   5.019   6.759   5.385 -1.0797 -0.5914  0.0426
11230SOL     OW35621   3.281   7.014   5.602  0.4246 -0.6286  0.4722
11230SOL    HW135622   3.257   7.011   5.510  1.6618 -1.5007  0.1509
11230SOL    HW235623   3.377   7.011   5.602  0.4186 -1.5635  1.7978
11231SOL     OW35624   5.560   3.712   0.339  0.2387  0.1972  0.0415
11231SOL    HW135625   5.505   3.659   0.281 -0.3690 -0.9446  1.5832
11231SOL    HW235626   5.540   3.802   0.316  0.6935 -0.1911 -2.1062
11232SOL     OW35627   0.914   2.535   4.027  0.0405  0.4622  0.1168
11232SOL    HW135628   0.871   2.574   3.952 -0.8071  2.2237  1.4434
11232SOL    HW235629   0.875   2.449   4.036  2.2745 -1.1008 -3.1706
11233SOL     OW35630   4.971   6.792   1.113  0.2390 -0.4785 -0.8653
11233SOL    HW135631   5.035   6.860   1.132  2.0376 -2.0914 -0.7585
11233SOL    HW235632   4.931   6.773   1.198  0.1058  0.0839 -0.8001
11234SOL     OW35633   1.622   3.075   4.310 -0.2595 -0.3204  0.1916
11234SOL    HW135634   1.557   3.113   4.370  3.3269  2.6242  2.7236
11234SOL    HW235635   1.622   3.135   4.235  0.0713  0.1827  0.5851
11235SOL     OW35636   2.158   6.302   8.144  0.0992 -0.2968  0.1014
11235SOL    HW135637   2.138   6.217   8.183  1.0513 -0.7566 -0.3740
11235SOL    HW235638   2.118   6.365   8.203  0.8651 -0.9935  1.4126
11236SOL     OW35639   5.413   4.827   3.354  0.7436  0.0374 -0.2765
11236SOL    HW135640   5.328   4.870   3.346  0.9940  0.3386 -1.4675
11236SOL    HW235641   5.446   4.855   3.439 -1.7565 -2.6938  1.8251
11237SOL     OW35642   4.979   6.339   2.894  0.4423  0.0866 -0.4725
11237SOL    HW135643   4.891   6.336   2.858  0.4861 -0.7537 -0.5302
11237SOL    HW235644   5.018   6.418   2.855 -0.8179  1.4282  0.8652
11238SOL     OW35645   6.574   5.328   0.701  0.1437 -0.3845  0.2528
11238SOL    HW135646   6.563   5.301   0.610 -1.7123  0.3265  0.2066
11238SOL    HW235647   6.666   5.313   0.720  0.3377 -1.5731 -1.3983
11239SOL     OW35648   6.281   0.634   2.648 -0.2738  0.1835  0.1183
11239SOL    HW135649   6.311   0.589   2.727 -1.8254  1.3106  1.4165
11239SOL    HW235650   6.285   0.567   2.580  0.4175 -1.0303  1.2853
11240SOL     OW35651   5.721   8.167   5.560 -0.7666  0.2921 -0.4697
11240SOL    HW135652   5.699   8.142   5.470 -2.3208  1.6818 -0.5344
11240SOL    HW235653   5.644   8.144   5.611 -0.6130  1.1521  0.1727
11241SOL     OW35654   2.816   4.881   8.181  0.4484 -0.1259 -0.4651
11241SOL    HW135655   2.777   4.867   8.095 -0.6088  0.0177 -0.0251
11241SOL    HW235656   2.889   4.820   8.184 -0.1819 -0.9405 -1.0458
11242SOL     OW35657   4.847   0.538   3.106 -0.2179  0.0958  0.7976
11242SOL    HW135658   4.836   0.533   3.011 -0.7914  0.0839  0.8599
11242SOL    HW235659   4.941   0.531   3.120 -0.1327  0.0828  0.2295
11243SOL     OW35660   5.588   2.001   2.638  0.1803  0.5513  0.2152
11243SOL    HW135661   5.507   2.017   2.591  1.1396  1.5194 -1.1920
11243SOL    HW235662   5.598   1.906   2.638  0.0567  0.5137 -1.4161
11244SOL     OW35663   4.252   1.635   4.963 -0.0953  0.6152  0.1461
11244SOL    HW135664   4.307   1.565   4.927  0.6409 -0.5992  3.3328
11244SOL    HW235665   4.164   1.597   4.966  0.4849 -0.6942  2.8523
11245SOL     OW35666   5.387   6.466   4.989  0.2815  0.3242  0.0641
11245SOL    HW135667   5.472   6.443   5.028 -0.4824 -0.9528  1.0338
11245SOL    HW235668   5.376   6.404   4.917  0.0820  0.3771  0.0481
11246SOL     OW35669   3.814   0.131   8.144  0.0363 -0.4592 -0.2377
11246SOL    HW135670   3.763   0.128   8.064 -1.1970 -1.7533  0.5436
11246SOL    HW235671   3.901   0.162   8.117 -0.2880 -1.0533 -2.0791
11247SOL     OW35672   2.891   7.265   2.013 -0.3955  0.0710 -0.2178
11247SOL    HW135673   2.901   7.200   2.082  1.1694 -0.3638 -0.8078
11247SOL    HW235674   2.831   7.330   2.050 -0.3992 -0.6731  1.1445
11248SOL     OW35675   5.024   1.662   0.757 -0.0231 -0.3619  0.2665
11248SOL    HW135676   5.116   1.638   0.743  0.1597 -0.3791  1.4290
11248SOL    HW235677   4.978   1.578   0.760  0.0002 -0.3772  0.1958
11249SOL     OW35678   8.602   7.971   4.952 -0.3473  0.5784 -0.6783
11249SOL    HW135679   8.507   7.981   4.951 -0.3390  0.5959 -1.7001
11249SOL    HW235680   8.636   8.060   4.938 -0.1823  0.4967 -0.8030
11250SOL     OW35681   1.629   2.798   7.637  0.4997 -0.0689  0.3119
11250SOL    HW135682   1.537   2.779   7.654  0.6800 -1.1460  0.1476
11250SOL    HW235683   1.637   2.892   7.654 -0.2970 -0.2401  1.8340
11251SOL     OW35684   3.772   7.900   8.645 -0.2629  0.0199 -0.2059
11251SOL    HW135685   3.724   7.818   8.635 -1.7652  1.0228 -1.6313
11251SOL    HW235686   3.711   7.957   8.693  0.2527  0.7146 -0.3739
11252SOL     OW35687   4.215   7.599   3.348  0.4296 -0.1648  0.1111
11252SOL    HW135688   4.293   7.618   3.401  1.5899 -1.5494 -1.0066
11252SOL    HW235689   4.229   7.510   3.317 -1.1917 -0.1104 -0.8766
11253SOL     OW35690   1.894   4.741   6.655  0.0456  0.0800  0.4488
11253SOL    HW135691   1.812   4.696   6.675 -1.9902  2.1483 -2.3381
11253SOL    HW235692   1.942   4.743   6.738 -3.0267 -0.6068  2.3953
11254SOL     OW35693   1.268   4.512   1.518 -0.0224 -0.0642 -0.3761
11254SOL    HW135694   1.345   4.508   1.462  0.8068 -1.0530  0.7722
11254SOL    HW235695   1.275   4.596   1.563  0.4286 -0.1880 -0.2151
11255SOL     OW35696   7.019   2.076   1.345 -0.0341  0.4783  0.7092
11255SOL    HW135697   7.003   2.023   1.266 -0.1687 -0.0927  1.1111
11255SOL    HW235698   7.027   2.012   1.415 -0.2542  1.0004  1.2197
11256SOL     OW35699   3.066   7.628   2.289 -0.4807  0.4211  0.1357
11256SOL    HW135700   3.109   7.707   2.320 -0.5855  0.5869 -0.1402
11256SOL    HW235701   3.080   7.627   2.195 -1.5972  0.8051 -0.0568
11257SOL     OW35702   2.343   7.689   4.472  0.7071  0.5366 -0.1953
11257SOL    HW135703   2.407   7.625   4.504 -0.3171 -0.3789  0.0698
11257SOL    HW235704   2.345   7.680   4.377  0.0223 -0.4749 -0.1368
11258SOL     OW35705   7.810   2.878   8.190  0.6560 -0.4023 -0.3235
11258SOL    HW135706   7.718   2.857   8.205  0.9134 -0.8166  0.7806
11258SOL    HW235707   7.813   2.909   8.099 -0.7828  0.9180  0.0332
11259SOL     OW35708   6.226   6.862   5.109  0.4760 -0.1168 -0.1437
11259SOL    HW135709   6.244   6.769   5.093 -2.3117 -0.5800 -1.2082
11259SOL    HW235710   6.171   6.863   5.187 -0.8566  0.4227 -1.0499
11260SOL     OW35711   6.649   0.573   2.619  0.6324 -0.3353 -0.1743
11260SOL    HW135712   6.612   0.485   2.623  2.1106 -1.0974 -1.7507
11260SOL    HW235713   6.723   0.570   2.680  2.3686 -1.1382 -2.1923
11261SOL     OW35714   4.287   2.063   2.622 -0.3057 -0.2349  0.3230
11261SOL    HW135715   4.371   2.069   2.667  0.3895  0.1914 -0.9740
11261SOL    HW235716   4.246   1.985   2.659 -0.1180  0.5218  2.2192
11262SOL     OW35717   6.278   6.810   1.150  0.4141 -0.2076 -0.2743
11262SOL    HW135718   6.342   6.821   1.220  0.8520 -1.3229 -0.4887
11262SOL    HW235719   6.331   6.797   1.071 -0.0508  1.7397 -0.9850
11263SOL     OW35720   7.881   5.064   7.089  0.0578  0.2621  0.0493
11263SOL    HW135721   7.925   4.995   7.139  2.1428  1.1217 -0.5417
11263SOL    HW235722   7.870   5.136   7.152  0.9951  0.6555 -0.2347
11264SOL     OW35723   3.579   0.963   5.432  0.6572 -0.4438  0.1317
11264SOL    HW135724   3.504   0.970   5.373  1.2765 -0.5722 -0.6863
11264SOL    HW235725   3.556   0.893   5.493  0.4432 -1.0359 -0.6226
11265SOL     OW35726   5.112   2.008   5.136  0.4929  0.3758 -0.3082
11265SOL    HW135727   5.021   2.034   5.150  0.4153 -0.1974  0.2581
11265SOL    HW235728   5.119   1.921   5.174  0.4316 -1.0559 -3.2645
11266SOL     OW35729   6.914   1.166   8.293 -0.0147 -0.2164 -0.0439
11266SOL    HW135730   6.908   1.187   8.386 -1.3316  1.7196 -0.5020
11266SOL    HW235731   7.003   1.131   8.282  1.5674  2.9487  1.3319
11267SOL     OW35732   3.695   3.130   6.482 -0.0178  0.2177  0.4700
11267SOL    HW135733   3.757   3.084   6.538  1.5345  1.8196  0.1573
11267SOL    HW235734   3.656   3.196   6.539 -0.8371 -0.2376  0.4497
11268SOL     OW35735   6.472   4.805   1.401 -0.1621 -0.1574 -0.4594
11268SOL    HW135736   6.483   4.868   1.471  1.2243  0.4818 -1.2203
11268SOL    HW235737   6.558   4.798   1.360 -0.6044 -1.5424 -1.2343
11269SOL     OW35738   4.525   8.416   1.291  0.1035  0.0987  0.7555
11269SOL    HW135739   4.459   8.359   1.330 -0.8844 -0.4449 -1.5671
11269SOL    HW235740   4.482   8.501   1.285 -0.7186 -0.4011 -1.3423
11270SOL     OW35741   1.149   2.834   7.083  0.1542  0.4972 -0.6710
11270SOL    HW135742   1.113   2.882   7.008  1.3519  1.8509 -0.4332
11270SOL    HW235743   1.233   2.801   7.051 -0.0025 -0.2018 -0.3696
11271SOL     OW35744   0.284   3.993   0.081 -0.2783  0.1634 -0.1719
11271SOL    HW135745   0.308   3.938   0.006  2.8372  2.2791 -0.9143
11271SOL    HW235746   0.338   3.959   0.153 -2.7502 -1.4170  1.0638
11272SOL     OW35747   6.914   1.396   8.108 -0.1888  0.0876  0.3111
11272SOL    HW135748   6.893   1.310   8.145  1.3055 -1.0968 -1.3792
11272SOL    HW235749   6.847   1.454   8.142 -0.3037 -1.3801  2.8718
11273SOL     OW35750   0.244   3.407   5.403 -1.2174  0.1518 -0.6766
11273SOL    HW135751   0.204   3.439   5.484  0.6942 -2.5023  1.5041
11273SOL    HW235752   0.174   3.356   5.361 -2.6826  2.7209 -1.6018
11274SOL     OW35753   4.032   0.504   1.720 -0.3678  0.1681 -0.0446
11274SOL    HW135754   3.961   0.442   1.708  1.6441 -2.4682  0.8034
11274SOL    HW235755   4.041   0.548   1.635 -0.7751 -1.9505 -1.2376
11275SOL     OW35756   7.942   8.080   4.252 -0.1317  0.0199  0.4306
11275SOL    HW135757   7.871   8.023   4.281  0.9896 -1.7226 -0.0543
11275SOL    HW235758   7.966   8.130   4.330 -0.7113 -0.6635  1.0630
11276SOL     OW35759   1.287   5.477   1.447 -0.2302  0.1653 -0.1952
11276SOL    HW135760   1.260   5.444   1.362  1.0884 -2.0987  0.1938
11276SOL    HW235761   1.366   5.529   1.430  1.1091 -1.7910 -0.2168
11277SOL     OW35762   4.840   5.036   5.116  0.2501  0.4039 -0.4834
11277SOL    HW135763   4.832   4.965   5.180  2.1272  0.6441  0.0992
11277SOL    HW235764   4.767   5.095   5.136 -0.7033 -0.8018 -0.2738
11278SOL     OW35765   2.519   7.923   6.637  0.4629  0.2798 -0.0543
11278SOL    HW135766   2.469   7.886   6.564  0.4895  1.1308 -0.5171
11278SOL    HW235767   2.455   7.930   6.708  0.1101  0.6149 -0.3949
11279SOL     OW35768   6.587   7.698   0.180 -0.4254 -0.8739  0.4883
11279SOL    HW135769   6.640   7.732   0.252 -0.6976 -2.1133  1.3024
11279SOL    HW235770   6.638   7.718   0.101 -0.0471  0.3499  1.0282
11280SOL     OW35771   5.156   6.932   8.062 -0.2849 -0.1812 -0.7686
11280SOL    HW135772   5.122   6.947   7.974 -1.4938 -2.0301 -0.6607
11280SOL    HW235773   5.086   6.963   8.120 -1.2633 -2.6303 -0.5339
11281SOL     OW35774   0.999   5.659   8.757 -0.1588  0.6120  0.6387
11281SOL    HW135775   0.958   5.696   8.679  1.4274 -0.3418 -0.7127
11281SOL    HW235776   1.091   5.684   8.749  0.5869 -1.8049  0.7093
11282SOL     OW35777   8.072   8.612   6.950 -0.5189  0.7376 -0.5294
11282SOL    HW135778   8.139   8.655   6.897  0.1243  0.5386  0.0983
11282SOL    HW235779   8.116   8.594   7.033 -1.3242  0.4974 -0.1486
11283SOL     OW35780   5.301   3.955   5.700 -0.4676  0.1325  0.8982
11283SOL    HW135781   5.260   3.965   5.614  0.1095  0.7496  0.6908
11283SOL    HW235782   5.300   3.861   5.716 -0.2279 -0.0167  0.0456
11284SOL     OW35783   0.223   8.683   4.676 -0.0839 -0.2067 -0.0710
11284SOL    HW135784   0.274   8.701   4.754  1.2630 -0.7027 -0.8060
11284SOL    HW235785   0.288   8.675   4.606 -1.2858  0.9639 -1.3873
11285SOL     OW35786   5.501   0.337   5.886  0.4446  0.5072 -0.5360
11285SOL    HW135787   5.414   0.379   5.887  0.0754 -0.1074 -2.4902
11285SOL    HW235788   5.489   0.256   5.936  0.4100  1.3147  0.8043
11286SOL     OW35789   7.807   4.212   3.249 -0.2220 -0.2811 -0.1583
11286SOL    HW135790   7.752   4.155   3.196  0.6744  0.9046 -2.4971
11286SOL    HW235791   7.862   4.152   3.299 -1.8723 -1.4475  0.3442
11287SOL     OW35792   7.659   6.194   4.426  0.0723 -0.1919  0.2898
11287SOL    HW135793   7.580   6.176   4.375 -0.6067 -0.7305  1.4716
11287SOL    HW235794   7.726   6.213   4.361 -1.1969  1.0158 -0.7443
11288SOL     OW35795   3.870   3.877   4.707  0.2821  0.1529 -0.0897
11288SOL    HW135796   3.920   3.834   4.637 -0.0555 -0.8158  0.2586
11288SOL    HW235797   3.780   3.876   4.676 -0.0020 -1.0329  0.7002
11289SOL     OW35798   5.719   7.909   5.229 -0.5142  0.2345 -0.1775
11289SOL    HW135799   5.795   7.956   5.194 -1.0012  0.8769 -0.3896
11289SOL    HW235800   5.736   7.904   5.323 -0.4620  0.8542 -0.1504
11290SOL     OW35801   4.444   4.066   3.097  0.0311  0.5623 -0.4330
11290SOL    HW135802   4.373   4.083   3.159 -1.4773 -0.6272 -1.7104
11290SOL    HW235803   4.524   4.071   3.148 -1.0567  0.9939  1.2904
11291SOL     OW35804   4.301   5.614   8.132 -0.4429 -0.3363 -0.1701
11291SOL    HW135805   4.382   5.643   8.088 -0.8928 -1.2307 -1.6590
11291SOL    HW235806   4.301   5.519   8.121 -0.3969 -0.6601  2.1665
11292SOL     OW35807   5.613   3.180   6.821  0.1226 -0.1320 -0.1185
11292SOL    HW135808   5.609   3.145   6.732  1.5077 -1.3507  0.2491
11292SOL    HW235809   5.535   3.145   6.864 -0.4714  0.3394 -0.8160
11293SOL     OW35810   1.212   1.964   3.193 -0.2361  0.2517  0.2317
11293SOL    HW135811   1.120   1.992   3.195 -0.1536  0.4999  1.3277
11293SOL    HW235812   1.260   2.042   3.164 -0.2868  0.4041  0.5498
11294SOL     OW35813   7.805   3.713   5.728 -0.3975  0.3436 -0.2184
11294SOL    HW135814   7.772   3.802   5.741 -0.3162  0.4907 -0.9670
11294SOL    HW235815   7.883   3.709   5.784  0.0260  0.9968 -0.7428
11295SOL     OW35816   4.057   6.475   5.957  0.9083  0.0276  0.8899
11295SOL    HW135817   4.142   6.498   5.921  0.2803  2.8740  1.0204
11295SOL    HW235818   4.054   6.518   6.042 -0.5259 -0.3570  1.0633
11296SOL     OW35819   0.080   0.369   0.304  0.1177  0.2338  0.4578
11296SOL    HW135820   0.018   0.324   0.361 -0.0163  0.6613  0.6558
11296SOL    HW235821   0.119   0.437   0.359  1.0596 -0.2745  0.4490
11297SOL     OW35822   7.794   7.100   2.168 -0.4141 -0.0673 -0.4982
11297SOL    HW135823   7.780   7.180   2.119  1.7148  1.7429  1.6302
11297SOL    HW235824   7.808   7.128   2.259  1.7609 -2.6655  0.1318
11298SOL     OW35825   0.918   3.260   2.368  0.2869 -0.2235 -0.1118
11298SOL    HW135826   0.923   3.167   2.348 -1.0243 -0.5431  0.9381
11298SOL    HW235827   0.825   3.278   2.382  0.5416  1.1843 -0.0296
11299SOL     OW35828   7.726   8.250   0.247 -0.1223 -0.0536  0.3403
11299SOL    HW135829   7.634   8.271   0.230  0.0066  0.5176  0.3201
11299SOL    HW235830   7.755   8.318   0.308  0.6299  0.5133 -0.6240
11300SOL     OW35831   8.753   0.934   4.355 -0.1051  0.1276  0.7402
11300SOL    HW135832   8.753   0.991   4.431  0.0760  0.6081  0.3902
11300SOL    HW235833   8.806   0.981   4.290  0.4933 -0.6823  0.6259
11301SOL     OW35834   1.305   8.132   6.056  0.1961 -0.2228 -0.3860
11301SOL    HW135835   1.228   8.085   6.024  1.2328 -2.1795 -0.1919
11301SOL    HW235836   1.367   8.129   5.983 -0.2666  2.3817 -0.9734
11302SOL     OW35837   6.947   0.331   2.670 -0.1094  0.2544  0.0370
11302SOL    HW135838   6.990   0.404   2.625  0.5110  0.5503  1.0853
11302SOL    HW235839   6.999   0.254   2.644 -0.2582  0.2969 -0.4037
11303SOL     OW35840   0.346   4.733   6.260  0.3745  0.3799 -0.0301
11303SOL    HW135841   0.439   4.736   6.283  0.3974  1.0957 -0.1991
11303SOL    HW235842   0.306   4.681   6.330  0.9756 -0.3683 -0.2281
11304SOL     OW35843   3.699   3.167   3.249 -0.3683 -0.7232 -0.2067
11304SOL    HW135844   3.649   3.223   3.189  0.4442  0.2990  0.0498
11304SOL    HW235845   3.633   3.114   3.294 -1.2092  0.5094  0.0322
11305SOL     OW35846   7.920   6.451   0.351  0.0397 -0.0461 -0.0804
11305SOL    HW135847   8.003   6.403   0.353  0.4068  0.5813  0.0054
11305SOL    HW235848   7.916   6.496   0.436 -0.2015  0.2365 -0.2397
11306SOL     OW35849   3.377   4.036   2.887  0.1978  0.2568  0.0102
11306SOL    HW135850   3.416   4.120   2.864  0.4496  0.6067  1.6183
11306SOL    HW235851   3.322   4.014   2.812  2.0428  0.6340 -1.4999
11307SOL     OW35852   1.035   1.755   5.391  0.3492  0.4101 -0.4287
11307SOL    HW135853   1.004   1.784   5.477  0.7006 -0.0539 -0.1351
11307SOL    HW235854   1.011   1.826   5.331 -0.8251  0.2853 -0.1351
11308SOL     OW35855   0.300   1.439   3.164 -0.1303  0.8498 -0.1080
11308SOL    HW135856   0.371   1.497   3.135 -1.2684  1.5457 -1.7235
11308SOL    HW235857   0.236   1.499   3.203 -0.4862  0.4395 -0.0625
11309SOL     OW35858   8.766   7.398   7.969  0.1039  0.1620 -0.0848
11309SOL    HW135859   8.674   7.400   7.995 -0.0594 -0.9202 -0.5248
11309SOL    HW235860   8.773   7.463   7.900 -0.2406  0.5201  0.2104
11310SOL     OW35861   6.966   1.118   1.373 -0.2186 -0.1365 -0.1113
11310SOL    HW135862   6.945   1.034   1.414 -1.5444 -0.2793 -0.9988
11310SOL    HW235863   6.886   1.169   1.381  0.3262  0.7583 -0.2748
11311SOL     OW35864   0.576   1.739   4.308 -0.0332  0.0156 -0.5444
11311SOL    HW135865   0.554   1.654   4.346  1.1781 -0.5049 -0.9438
11311SOL    HW235866   0.600   1.794   4.382 -3.1916  0.8427 -0.0008
11312SOL     OW35867   1.306   3.152   0.020  0.5578 -0.3787  0.1704
11312SOL    HW135868   1.298   3.169  -0.074  1.1777 -2.3950 -0.3058
11312SOL    HW235869   1.398   3.129   0.032  0.2895 -1.0203  1.1010
11313SOL     OW35870   2.584   7.319   0.478  0.9866 -0.5277  0.2718
11313SOL    HW135871   2.557   7.311   0.569 -2.7554  0.5161 -0.5614
11313SOL    HW235872   2.645   7.393   0.477 -0.9586  1.2372  1.7006
11314SOL     OW35873   1.857   4.083   7.405  0.5583 -0.2078  0.7837
11314SOL    HW135874   1.806   4.052   7.330  2.3635 -1.1281 -0.1329
11314SOL    HW235875   1.896   4.004   7.442  0.5228  0.3609  2.0647
11315SOL     OW35876   5.027   6.397   1.726 -0.2334  0.0277 -0.2852
11315SOL    HW135877   5.118   6.384   1.752  0.1625  0.3703 -1.4198
11315SOL    HW235878   4.988   6.444   1.799  0.3063 -0.7643  0.5299
11316SOL     OW35879   1.229   1.515   8.112  0.1788  0.0304 -0.3697
11316SOL    HW135880   1.295   1.558   8.166  0.7671 -1.4799  0.1889
11316SOL    HW235881   1.254   1.535   8.022  0.6694  0.5008 -0.1335
11317SOL     OW35882   6.123   1.691   5.570 -0.3504 -0.2501  0.1754
11317SOL    HW135883   6.095   1.771   5.525 -0.5957 -0.1178  0.5548
11317SOL    HW235884   6.049   1.668   5.626 -0.1600 -0.5713  0.2993
11318SOL     OW35885   4.370   8.811   1.070 -0.0784  0.9181 -0.1941
11318SOL    HW135886   4.354   8.872   1.142 -0.2892  1.7179 -0.8961
11318SOL    HW235887   4.462   8.787   1.078  0.0283  1.4059  0.0446
11319SOL     OW35888   7.556   0.134   6.618 -0.3771 -0.0505  0.1987
11319SOL    HW135889   7.596   0.175   6.694  2.0566 -2.6821  0.4744
11319SOL    HW235890   7.593   0.180   6.543 -0.5536  0.6484  0.5333
11320SOL     OW35891   2.029   2.194   1.520 -0.2370  0.1412  0.2826
11320SOL    HW135892   2.097   2.177   1.454 -0.1472 -0.8734  0.6160
11320SOL    HW235893   2.072   2.251   1.583  0.1701 -0.1222  0.2519
11321SOL     OW35894   7.255   7.024   1.456  0.4082  0.5084 -0.3715
11321SOL    HW135895   7.210   7.107   1.474  1.5747  1.0775  0.0965
11321SOL    HW235896   7.186   6.958   1.454 -0.3276  1.1650  1.4515
11322SOL     OW35897   4.352   8.778   5.350 -0.5836  0.9345 -0.2059
11322SOL    HW135898   4.433   8.731   5.374 -1.0495  0.7250  1.0354
11322SOL    HW235899   4.366   8.867   5.382 -0.4863  1.1416 -0.8137
11323SOL     OW35900   0.025   2.559   0.761 -0.0075 -0.0528  0.2898
11323SOL    HW135901   0.038   2.524   0.849 -0.3282 -0.1732  0.2887
11323SOL    HW235902   0.059   2.649   0.766  1.5450 -0.5913  0.0853
11324SOL     OW35903   2.109   8.851   0.422  0.3097 -0.0578 -0.4624
11324SOL    HW135904   2.092   8.941   0.392 -0.1408  0.3724  0.9926
11324SOL    HW235905   2.204   8.842   0.417  0.5742  1.2306  1.2442
11325SOL     OW35906   3.212   4.018   1.962  0.1257 -0.0684 -0.0864
11325SOL    HW135907   3.189   3.939   1.913 -0.8144  0.1454 -0.0062
11325SOL    HW235908   3.139   4.030   2.023  1.5291 -0.6774  1.8061
11326SOL     OW35909   8.616   4.591   8.175  0.0645  0.1953 -0.1785
11326SOL    HW135910   8.615   4.605   8.080 -0.0994 -2.7963 -0.7294
11326SOL    HW235911   8.684   4.525   8.188  0.4301  0.9161  1.8870
11327SOL     OW35912   4.611   5.931   2.627 -0.3014 -0.3046  0.1099
11327SOL    HW135913   4.590   5.954   2.536  2.1700  1.0429 -0.2221
11327SOL    HW235914   4.595   5.837   2.633 -2.5893 -0.0414 -1.0634
11328SOL     OW35915   6.306   3.146   1.117  0.3599  0.2558  0.3161
11328SOL    HW135916   6.370   3.109   1.057  3.3809  2.0389  2.1493
11328SOL    HW235917   6.282   3.231   1.079  0.4983  0.3686  0.4738
11329SOL     OW35918   5.023   0.341   5.901 -0.2484  0.8080 -0.4007
11329SOL    HW135919   5.018   0.436   5.911 -0.7396  0.7035  0.4219
11329SOL    HW235920   5.087   0.328   5.832  0.6215  1.7195  0.1970
11330SOL     OW35921   6.655   4.464   7.265  0.3082 -1.0411 -0.4770
11330SOL    HW135922   6.660   4.495   7.174 -0.2993  2.9098  0.6511
11330SOL    HW235923   6.741   4.487   7.302 -0.2882 -0.3427  0.5131
11331SOL     OW35924   5.075   3.783   8.450  0.4781 -0.0816  0.0125
11331SOL    HW135925   5.002   3.806   8.509  0.9853 -1.1183  1.0779
11331SOL    HW235926   5.073   3.851   8.383 -2.2894 -0.7712 -0.7306
11332SOL     OW35927   1.681   5.845   4.130 -0.4931  0.0421 -1.0288
11332SOL    HW135928   1.680   5.863   4.224  0.0320 -0.9221 -0.8253
11332SOL    HW235929   1.598   5.879   4.098 -0.9696 -0.2031 -0.0887
11333SOL     OW35930   1.254   1.904   3.857  0.1461  0.5090 -0.0623
11333SOL    HW135931   1.217   1.928   3.942 -0.5211 -0.9608  0.0958
11333SOL    HW235932   1.231   1.977   3.799 -0.5793  0.9052  0.7107
11334SOL     OW35933   6.815   1.745   0.530 -0.0749  0.8533  0.3948
11334SOL    HW135934   6.860   1.823   0.563 -0.4396  0.2842  2.3624
11334SOL    HW235935   6.880   1.675   0.539 -0.0020  0.7804 -0.6485
11335SOL     OW35936   7.335   5.352   3.055  0.4421 -0.0010 -0.0911
11335SOL    HW135937   7.344   5.318   3.145  0.2117 -1.1411 -0.4783
11335SOL    HW235938   7.249   5.394   3.055 -0.4620 -1.7421 -0.2804
11336SOL     OW35939   8.624   1.100   8.240  0.8630  0.3693  0.0502
11336SOL    HW135940   8.543   1.085   8.192 -0.2120  0.8099  1.6610
11336SOL    HW235941   8.648   1.014   8.274  1.2149  0.1974 -0.6120
11337SOL     OW35942   0.169   4.744   8.058 -0.1894  0.4221  0.3400
11337SOL    HW135943   0.147   4.694   8.136 -2.3302  1.9751  0.8212
11337SOL    HW235944   0.159   4.681   7.986  0.2388 -0.6150  1.1584
11338SOL     OW35945   7.565   4.173   1.310  0.0224  0.7556  0.1134
11338SOL    HW135946   7.618   4.132   1.242 -0.3135 -0.7542  0.7066
11338SOL    HW235947   7.475   4.165   1.279 -0.1270  0.1263  0.6828
11339SOL     OW35948   2.133   8.206   2.082  0.4752  0.2176  0.4070
11339SOL    HW135949   2.063   8.213   2.146  0.8982 -0.5876  0.9801
11339SOL    HW235950   2.158   8.297   2.063 -1.8642  0.6210 -1.1501
11340SOL     OW35951   2.799   7.333   3.058 -0.4209  0.1377  0.3739
11340SOL    HW135952   2.777   7.279   3.134 -0.3624 -1.4113 -0.6693
11340SOL    HW235953   2.877   7.293   3.020  1.4864  2.7566  1.2504
11341SOL     OW35954   6.862   5.456   8.362  0.1597 -0.0649 -0.2754
11341SOL    HW135955   6.817   5.504   8.431  0.3400  2.5259 -1.8534
11341SOL    HW235956   6.914   5.390   8.409 -1.5389  0.0110  1.8512
11342SOL     OW35957   2.917   4.838   1.523 -0.0984 -0.8180 -0.5441
11342SOL    HW135958   2.983   4.903   1.499  0.1633 -1.2878 -1.1269
11342SOL    HW235959   2.839   4.890   1.542  0.2935 -0.2909 -0.3482
11343SOL     OW35960   3.857   3.396   7.204 -0.0388  0.0683 -0.1194
11343SOL    HW135961   3.895   3.410   7.290 -0.9640 -0.4226  0.3851
11343SOL    HW235962   3.932   3.399   7.144  0.8587 -1.2130  0.8658
11344SOL     OW35963   0.905   6.406   1.004 -0.1119 -0.5203  0.3149
11344SOL    HW135964   0.956   6.480   1.036  0.7773 -1.4462  1.1071
11344SOL    HW235965   0.954   6.372   0.929  0.8447 -1.8208  1.4822
11345SOL     OW35966   6.886   7.577   5.901 -0.0376  0.2043 -0.4206
11345SOL    HW135967   6.834   7.657   5.895 -1.7357 -0.8631 -0.8117
11345SOL    HW235968   6.922   7.565   5.814 -1.3492 -0.4079 -0.9118
11346SOL     OW35969   3.885   2.231   4.516  0.5006 -0.2591  0.4887
11346SOL    HW135970   3.818   2.204   4.453 -0.6155 -0.2906  1.6438
11346SOL    HW235971   3.898   2.324   4.499  1.1732 -0.5257 -0.6164
11347SOL     OW35972   8.126   1.951   2.736 -0.2593 -0.4425  0.1175
11347SOL    HW135973   8.066   1.927   2.807  0.2561 -2.6545 -0.1482
11347SOL    HW235974   8.119   2.047   2.731 -2.1152 -0.4473  1.5312
11348SOL     OW35975   5.589   7.967   8.726  0.3524 -0.4801 -0.3979
11348SOL    HW135976   5.654   8.030   8.695  0.6462 -0.4340  0.2892
11348SOL    HW235977   5.610   7.956   8.819 -0.2154 -0.9622 -0.3268
11349SOL     OW35978   3.711   7.814   4.552 -0.6377 -0.4981  0.0930
11349SOL    HW135979   3.635   7.860   4.517 -1.0874 -1.2289  0.0849
11349SOL    HW235980   3.736   7.865   4.629 -1.0164 -0.1444 -0.0137
11350SOL     OW35981   0.501   6.813   8.439 -0.2469 -0.2540 -0.0042
11350SOL    HW135982   0.501   6.722   8.468  0.7004 -0.3549 -0.3016
11350SOL    HW235983   0.583   6.849   8.471 -0.2505  0.2807 -0.5700
11351SOL     OW35984   4.730   0.444   6.423 -0.0416 -0.0073 -0.2201
11351SOL    HW135985   4.656   0.501   6.401 -0.6341 -0.8017 -0.3435
11351SOL    HW235986   4.745   0.461   6.516  0.9576  1.6444 -0.6440
11352SOL     OW35987   6.404   2.986   6.134  0.6010 -0.0668  0.0915
11352SOL    HW135988   6.385   3.067   6.182 -0.8355 -0.7027  0.6709
11352SOL    HW235989   6.330   2.929   6.155  1.6339 -1.5650 -0.2303
11353SOL     OW35990   7.928   1.246   4.458  0.6712 -0.2053  0.3666
11353SOL    HW135991   7.847   1.296   4.469  0.3249  0.0213 -2.3353
11353SOL    HW235992   7.899   1.155   4.451  0.6391 -0.1427 -0.4215
11354SOL     OW35993   2.127   6.554   0.595  0.6091  0.1952  0.1496
11354SOL    HW135994   2.212   6.511   0.603  1.3194  1.5577  0.1964
11354SOL    HW235995   2.065   6.482   0.580  1.6477 -0.8848  0.8790
11355SOL     OW35996   7.553   3.533   3.505  0.4368  0.1568  0.6481
11355SOL    HW135997   7.495   3.457   3.513 -2.0912  1.7929 -0.6870
11355SOL    HW235998   7.596   3.521   3.420  0.4928 -0.0506  0.7050
11356SOL     OW35999   5.615   1.515   3.243 -0.1715  0.2777 -0.2948
11356SOL    HW136000   5.646   1.440   3.293  2.6446  1.3364 -0.2733
11356SOL    HW236001   5.668   1.514   3.163 -0.9898  1.5364 -0.8899
11357SOL     OW36002   5.266   8.457   2.691  0.4040 -0.0608  0.2498
11357SOL    HW136003   5.288   8.366   2.669 -0.9959 -0.5614  0.8496
11357SOL    HW236004   5.214   8.451   2.771 -1.9136  1.0322 -1.0935
11358SOL     OW36005   3.036   5.450   0.525  0.4927  0.0847 -0.3790
11358SOL    HW136006   2.970   5.453   0.456 -0.1051 -1.4446  0.0980
11358SOL    HW236007   3.083   5.533   0.517 -0.3006  0.4111 -1.8875
11359SOL     OW36008   3.246   2.641   4.600 -0.3979  0.9094 -0.0364
11359SOL    HW136009   3.221   2.729   4.571 -0.4733  0.3315 -1.8942
11359SOL    HW236010   3.335   2.629   4.567 -0.3036  0.3758  0.3941
11360SOL     OW36011   2.603   3.667   6.474 -0.6135  0.2084  0.4464
11360SOL    HW136012   2.545   3.597   6.505 -1.6849  0.7065 -0.3859
11360SOL    HW236013   2.691   3.630   6.483 -1.0621 -0.6562  1.4927
11361SOL     OW36014   4.561   4.956   0.582  0.1694  0.2696 -0.3955
11361SOL    HW136015   4.651   4.983   0.567  0.5096 -0.4078  0.3682
11361SOL    HW236016   4.568   4.870   0.624 -0.8520 -0.5405 -1.7662
11362SOL     OW36017   8.410   1.434   0.294  0.3803 -0.3565  0.7201
11362SOL    HW136018   8.344   1.393   0.237  0.2031  0.9434 -0.0531
11362SOL    HW236019   8.491   1.388   0.273  0.0370 -0.8635  0.4658
11363SOL     OW36020   7.862   4.684   7.466  0.6974 -0.0152 -0.9889
11363SOL    HW136021   7.796   4.687   7.397  0.2102  1.0206 -0.4941
11363SOL    HW236022   7.811   4.682   7.547  1.2731  0.8321 -0.5979
11364SOL     OW36023   8.229   4.927   2.301  0.3463 -0.9057 -0.1218
11364SOL    HW136024   8.222   4.974   2.217 -2.7908  0.9933  1.0187
11364SOL    HW236025   8.192   4.841   2.283 -2.4376  0.2223 -0.3387
11365SOL     OW36026   1.582   2.684   3.885  0.0358  0.0057 -0.0320
11365SOL    HW136027   1.554   2.696   3.975  2.7330 -0.5302  0.9645
11365SOL    HW236028   1.613   2.593   3.881  0.4763  0.1857 -1.3424
11366SOL     OW36029   1.942   5.137   7.474  0.4219  0.2514 -0.7860
11366SOL    HW136030   1.897   5.107   7.394  0.0042  2.9496 -1.6593
11366SOL    HW236031   1.915   5.075   7.541 -0.1062 -1.4752 -2.4999
11367SOL     OW36032   1.806   3.502   0.348 -0.4541  0.3132  0.3748
11367SOL    HW136033   1.782   3.480   0.438 -0.5156  0.6743  0.4486
11367SOL    HW236034   1.790   3.422   0.299  0.8784 -0.3158  0.9193
11368SOL     OW36035   4.588   2.729   3.635 -0.0187 -0.3692 -0.2347
11368SOL    HW136036   4.670   2.736   3.586  0.5468 -1.5428  0.4978
11368SOL    HW236037   4.520   2.757   3.573  0.9337  0.8272 -0.7792
11369SOL     OW36038   6.595   2.631   1.390  0.2892  0.4168  0.3462
11369SOL    HW136039   6.525   2.688   1.357  0.1559  0.3881  0.5812
11369SOL    HW236040   6.651   2.690   1.441  0.6232  0.5086 -0.1167
11370SOL     OW36041   8.816   3.527   1.791 -0.5820  1.2088 -0.0927
11370SOL    HW136042   8.870   3.459   1.831 -1.4727 -0.7098 -1.9892
11370SOL    HW236043   8.769   3.567   1.865 -0.1420 -0.3314  1.0593
11371SOL     OW36044   0.580   3.444   1.655  0.1201  0.2829 -0.0122
11371SOL    HW136045   0.561   3.358   1.616 -0.6931  1.1243 -1.5829
11371SOL    HW236046   0.675   3.445   1.666  0.1525 -0.7804 -0.0922
11372SOL     OW36047   6.027   8.192   7.195  0.2685  0.3314 -0.1641
11372SOL    HW136048   6.090   8.229   7.256  0.4327 -0.1737 -0.0178
11372SOL    HW236049   6.062   8.213   7.108  2.1491 -2.2468 -0.1631
11373SOL     OW36050   8.290   0.437   2.789 -0.2319  0.0594 -0.2552
11373SOL    HW136051   8.218   0.392   2.831  0.0976 -0.9190 -0.7095
11373SOL    HW236052   8.362   0.432   2.852 -0.6945  1.5150  0.4287
11374SOL     OW36053   7.249   5.996   8.165 -0.5332  0.0456  0.2371
11374SOL    HW136054   7.332   6.037   8.138  0.2140 -1.7841 -0.4157
11374SOL    HW236055   7.215   5.958   8.084 -1.7135  0.2222  0.6385
11375SOL     OW36056   5.610   7.034   5.416 -0.3445  0.7455 -0.2788
11375SOL    HW136057   5.702   7.061   5.414  0.1107 -0.6158  1.2095
11375SOL    HW236058   5.605   6.967   5.483 -2.8424  2.2359  1.1884
11376SOL     OW36059   3.360   2.475   5.299  0.1896  0.7201  0.6150
11376SOL    HW136060   3.390   2.566   5.303  0.8984  0.4689  1.3559
11376SOL    HW236061   3.345   2.451   5.390  0.3733 -0.0237  0.4513
11377SOL     OW36062   2.684   3.388   4.499  0.0879  0.4801  0.5244
11377SOL    HW136063   2.690   3.413   4.407 -1.3857 -2.4997 -0.5191
11377SOL    HW236064   2.752   3.322   4.510 -1.0550 -0.6742  0.9460
11378SOL     OW36065   1.844   1.083   7.430  0.0798 -0.4849 -0.1686
11378SOL    HW136066   1.766   1.137   7.440 -0.7165 -1.5726 -0.2729
11378SOL    HW236067   1.828   1.033   7.350  0.5658 -1.2285  0.1876
11379SOL     OW36068   8.292   5.405   3.156  0.1827  0.5574 -0.5251
11379SOL    HW136069   8.320   5.481   3.104 -0.3222  1.6754  0.7685
11379SOL    HW236070   8.204   5.385   3.123  0.2033  0.7223 -0.6807
11380SOL     OW36071   5.279   7.040   2.642 -0.0679 -0.0602  0.1214
11380SOL    HW136072   5.208   6.991   2.683  0.8868 -1.5038  0.1441
11380SOL    HW236073   5.302   6.988   2.564  2.3947 -0.8992  1.2873
11381SOL     OW36074   3.197   0.372   7.861  0.3703  0.3032  0.2122
11381SOL    HW136075   3.232   0.398   7.776  0.7718  1.2232  0.6372
11381SOL    HW236076   3.130   0.307   7.842  2.1281 -1.3484 -0.6625
11382SOL     OW36077   8.282   2.802   1.826  0.0900  0.7142 -0.1034
11382SOL    HW136078   8.192   2.832   1.812 -0.2859 -0.1805  0.3175
11382SOL    HW236079   8.291   2.797   1.921 -0.0560 -0.9882 -0.1446
11383SOL     OW36080   8.314   3.634   3.577  0.2076  0.7523  0.3186
11383SOL    HW136081   8.247   3.568   3.560 -0.0381  0.9418  0.5470
11383SOL    HW236082   8.300   3.700   3.508  0.7906  0.3145 -0.2336
11384SOL     OW36083   8.824   3.608   2.980 -0.0872 -0.0070 -0.1978
11384SOL    HW136084   8.760   3.678   2.998 -0.3429 -0.0770 -0.8335
11384SOL    HW236085   8.815   3.548   3.055 -1.4245 -0.4939 -0.7204
11385SOL     OW36086   7.412   4.065   6.765 -0.0284 -0.2537  0.0864
11385SOL    HW136087   7.403   3.970   6.763  0.8630 -0.3582 -3.0593
11385SOL    HW236088   7.337   4.094   6.818 -1.9302 -2.5630 -1.1266
11386SOL     OW36089   6.824   6.123   7.562  0.0116  0.0207  0.4016
11386SOL    HW136090   6.748   6.158   7.609  0.0602 -2.7607  2.8708
11386SOL    HW236091   6.839   6.184   7.490 -2.1364  2.7975  2.1234
11387SOL     OW36092   0.789   2.033   2.813  0.2667 -0.7327  0.4183
11387SOL    HW136093   0.770   1.948   2.852  0.6352  0.0393  2.4113
11387SOL    HW236094   0.802   2.092   2.888  1.6762  0.7175 -0.8699
11388SOL     OW36095   0.921   2.688   1.080 -0.9187 -0.2524  0.3872
11388SOL    HW136096   0.853   2.643   1.030 -1.7066  1.5179 -0.1965
11388SOL    HW236097   0.986   2.714   1.015 -1.6695  1.5537  0.3037
11389SOL     OW36098   5.107   6.997   3.711  0.7496  0.1145  0.3518
11389SOL    HW136099   5.147   6.914   3.735 -0.2387 -0.6565 -0.6175
11389SOL    HW236100   5.030   7.005   3.769  1.0071  0.5150  0.6518
11390SOL     OW36101   8.561   4.550   7.473  0.5284 -0.1045  0.1706
11390SOL    HW136102   8.597   4.497   7.544  2.2210 -2.4508 -2.2747
11390SOL    HW236103   8.619   4.626   7.468  1.0702 -0.4816  0.5789
11391SOL     OW36104   6.008   1.505   8.515  0.3559  0.2735 -0.1039
11391SOL    HW136105   6.084   1.480   8.461  0.6288  0.2560  0.2861
11391SOL    HW236106   6.046   1.532   8.598 -0.0348  0.7417 -0.0739
11392SOL     OW36107   1.886   1.459   4.334 -0.2410 -0.0011  0.6375
11392SOL    HW136108   1.810   1.409   4.363  0.1105  0.6691  2.9621
11392SOL    HW236109   1.951   1.447   4.404  0.8024  1.5764  0.0209
11393SOL     OW36110   4.245   0.447   5.116  0.2823 -0.0414 -0.0143
11393SOL    HW136111   4.208   0.436   5.028  0.8636 -1.2997 -0.1172
11393SOL    HW236112   4.204   0.527   5.149 -1.7066 -0.8094 -0.5228
11394SOL     OW36113   6.822   3.189   8.414  0.7110  0.1742  0.5532
11394SOL    HW136114   6.760   3.150   8.351  0.9077 -0.5496  0.7906
11394SOL    HW236115   6.891   3.226   8.359  0.7233 -0.1777  0.3214
11395SOL     OW36116   8.464   4.393   2.669 -0.1747 -0.4804  0.4139
11395SOL    HW136117   8.443   4.484   2.650 -1.3181 -0.8771 -0.3159
11395SOL    HW236118   8.522   4.366   2.597  0.4739 -0.2219  0.8380
11396SOL     OW36119   1.005   2.749   2.591  0.2782 -0.6396  0.5172
11396SOL    HW136120   0.973   2.715   2.508  0.2233 -1.2561  0.7811
11396SOL    HW236121   0.986   2.679   2.654 -0.2501  0.0680  1.1626
11397SOL     OW36122   5.723   0.412   0.184  0.1670 -0.1137  0.1197
11397SOL    HW136123   5.726   0.507   0.167 -2.0534 -0.0908 -0.5036
11397SOL    HW236124   5.712   0.405   0.278  1.1210  0.1973  0.2675
11398SOL     OW36125   2.717   5.212   4.719 -0.6750  0.0395  0.8154
11398SOL    HW136126   2.781   5.181   4.784 -0.0556 -0.5254 -0.0458
11398SOL    HW236127   2.755   5.188   4.635 -0.4768  2.5295  0.0955
11399SOL     OW36128   6.206   7.634   3.260 -0.0016 -0.5655  0.3571
11399SOL    HW136129   6.122   7.613   3.300  0.6040 -0.9989  1.4637
11399SOL    HW236130   6.268   7.634   3.333  0.7893  0.7792 -0.2641
11400SOL     OW36131   7.186   7.529   4.858  0.6621 -0.1289  0.6277
11400SOL    HW136132   7.155   7.475   4.931 -0.2280  0.3418  0.6182
11400SOL    HW236133   7.280   7.516   4.857  0.4779 -1.6198  0.6783
11401SOL     OW36134   6.861   6.492   3.128 -0.0496 -0.2413  0.3300
11401SOL    HW136135   6.851   6.399   3.148  1.0745 -0.2341  1.0433
11401SOL    HW236136   6.854   6.497   3.033 -0.1416 -1.0567  0.2873
11402SOL     OW36137   1.195   4.796   8.328 -0.3316 -0.0226  0.1962
11402SOL    HW136138   1.174   4.842   8.247  0.1264  1.0533  0.6821
11402SOL    HW236139   1.124   4.820   8.388  0.5629  1.0551  0.8380
11403SOL     OW36140   3.865   6.359   3.595  0.3128  0.4009 -0.0418
11403SOL    HW136141   3.775   6.389   3.585  0.9802  2.4602 -0.4486
11403SOL    HW236142   3.888   6.323   3.509  0.0865  0.5374 -0.1609
11404SOL     OW36143   4.696   3.459   0.542 -0.0793 -0.0293 -0.0084
11404SOL    HW136144   4.603   3.449   0.520  0.1472 -0.8577 -0.6204
11404SOL    HW236145   4.710   3.401   0.617  0.9937 -3.8835 -2.9030
11405SOL     OW36146   2.285   8.560   0.976 -0.5949 -0.2742 -0.0500
11405SOL    HW136147   2.296   8.562   1.071  2.0879 -1.4802 -0.2439
11405SOL    HW236148   2.373   8.572   0.941 -1.3734 -0.7156 -2.3959
11406SOL     OW36149   4.969   3.838   2.518 -0.1977 -0.1943  0.0385
11406SOL    HW136150   4.902   3.796   2.463 -1.3692  0.2973  1.0366
11406SOL    HW236151   4.929   3.921   2.545  0.0956 -0.6735  2.0953
11407SOL     OW36152   5.882   1.373   3.602  0.0610  0.0830  0.3601
11407SOL    HW136153   5.847   1.337   3.684  0.9747 -1.0712  0.2825
11407SOL    HW236154   5.974   1.347   3.603  0.4568  1.3917 -0.3277
11408SOL     OW36155   1.256   4.370   0.526 -0.4925  0.3178  0.1546
11408SOL    HW136156   1.233   4.458   0.494 -0.0553  0.2980 -0.2190
11408SOL    HW236157   1.346   4.379   0.556  0.3373 -0.5178 -1.9010
11409SOL     OW36158   7.815   8.233   2.616  0.1054  0.1825 -0.1573
11409SOL    HW136159   7.789   8.322   2.594  1.9928  0.9740  0.5423
11409SOL    HW236160   7.768   8.213   2.697 -0.0703  0.7007 -0.1296
11410SOL     OW36161   1.097   0.892   7.816  0.4429  0.6765  0.5167
11410SOL    HW136162   1.067   0.807   7.783  1.6076  1.2388 -2.2023
11410SOL    HW236163   1.030   0.918   7.879 -1.3602 -1.0045 -0.5970
11411SOL     OW36164   6.961   7.091   4.749  0.0176  0.0334 -0.1462
11411SOL    HW136165   7.037   7.121   4.700 -0.8596 -0.2700 -1.7785
11411SOL    HW236166   6.914   7.034   4.688 -1.6710  0.4489  0.6983
11412SOL     OW36167   7.308   3.940   4.113 -0.0877  0.3024 -0.1485
11412SOL    HW136168   7.359   3.885   4.172 -0.0361 -0.4596 -0.8810
11412SOL    HW236169   7.320   4.029   4.147  1.2194  0.0720  0.0723
11413SOL     OW36170   3.308   5.407   5.964  0.3134  0.5651 -0.0424
11413SOL    HW136171   3.268   5.357   5.893  0.0257 -2.0576  1.8317
11413SOL    HW236172   3.238   5.466   5.993 -0.9285 -1.1466  0.5919
11414SOL     OW36173   7.222   3.614   5.567  0.4400 -0.2232 -0.1361
11414SOL    HW136174   7.132   3.592   5.593  0.4196  0.1702  0.1439
11414SOL    HW236175   7.228   3.709   5.581 -0.5746  0.7098 -4.4037
11415SOL     OW36176   3.860   4.181   3.137  0.4320 -0.1528 -0.3415
11415SOL    HW136177   3.925   4.111   3.146  0.7056  0.1902  0.4245
11415SOL    HW236178   3.871   4.234   3.216  0.4875  0.9728 -1.0817
11416SOL     OW36179   7.976   5.635   3.819 -0.2500  0.3073 -0.1045
11416SOL    HW136180   8.062   5.647   3.778  0.1839 -0.5210  0.5283
11416SOL    HW236181   7.989   5.658   3.911 -0.6405 -0.0346  0.0423
11417SOL     OW36182   1.839   5.556   5.926 -0.3148  0.0257 -0.3335
11417SOL    HW136183   1.748   5.579   5.947  0.1698  0.3035  1.6708
11417SOL    HW236184   1.879   5.534   6.011  1.1418 -1.4278 -1.3304
11418SOL     OW36185   6.045   2.661   3.350 -0.2298  1.1987 -0.5597
11418SOL    HW136186   5.975   2.597   3.344 -1.7330  2.7053  0.1430
11418SOL    HW236187   6.093   2.637   3.429  1.5033 -1.1371 -2.1630
11419SOL     OW36188   2.127   4.340   8.417 -0.1851  0.3203 -0.0152
11419SOL    HW136189   2.083   4.282   8.478  0.1353  0.7509  0.6399
11419SOL    HW236190   2.057   4.376   8.362 -0.4901  0.0305  0.1837
11420SOL     OW36191   8.338   6.630   7.766 -0.0771 -0.2487  0.0335
11420SOL    HW136192   8.374   6.555   7.813  0.8395 -0.9147 -1.6301
11420SOL    HW236193   8.344   6.703   7.828  1.1630 -1.0520  0.9107
11421SOL     OW36194   6.984   5.142   2.904 -0.5026 -0.0583 -0.2397
11421SOL    HW136195   6.893   5.171   2.907 -0.5620 -0.3315  1.2153
11421SOL    HW236196   6.980   5.047   2.908 -0.2306 -0.2868 -3.2544
11422SOL     OW36197   1.254   4.945   5.521  0.3381 -0.1023 -0.2090
11422SOL    HW136198   1.336   4.909   5.486 -0.4119  0.5508 -2.8993
11422SOL    HW236199   1.186   4.893   5.479 -0.6894 -0.3335  1.6333
11423SOL     OW36200   7.169   5.647   7.665  0.1995 -0.3597  0.0796
11423SOL    HW136201   7.099   5.693   7.619 -1.7236 -1.4639  1.7233
11423SOL    HW236202   7.249   5.678   7.624 -1.2543  0.6080 -2.2173
11424SOL     OW36203   5.394   1.501   5.221  0.3514 -0.2178  0.1076
11424SOL    HW136204   5.474   1.553   5.228  0.7165 -0.9420  5.8875
11424SOL    HW236205   5.424   1.415   5.192  0.8728  0.5465 -1.8278
11425SOL     OW36206   3.060   2.342   5.421  0.0838  0.2832  0.0024
11425SOL    HW136207   2.979   2.388   5.443 -0.1735 -0.2068  0.0859
11425SOL    HW236208   3.050   2.317   5.329  0.8114  1.6001 -0.4605
11426SOL     OW36209   4.386   8.726   4.957 -0.2979  0.2316 -0.0492
11426SOL    HW136210   4.371   8.771   5.040  2.6181  2.1069 -0.4278
11426SOL    HW236211   4.327   8.770   4.895  1.5448  2.7786 -0.1225
11427SOL     OW36212   5.959   0.103   2.335 -0.0875 -0.2042 -0.1329
11427SOL    HW136213   5.900   0.030   2.315 -0.5246  0.1875 -0.3028
11427SOL    HW236214   6.045   0.073   2.305 -0.5580 -0.0080 -1.7866
11428SOL     OW36215   2.622   0.452   3.315 -0.4583  0.2224 -0.2204
11428SOL    HW136216   2.681   0.436   3.242 -0.5742 -1.8581  0.0902
11428SOL    HW236217   2.542   0.404   3.293 -0.4506 -0.5602  1.3164
11429SOL     OW36218   8.390   2.159   4.378  0.2214 -0.1232  0.1145
11429SOL    HW136219   8.368   2.210   4.455  0.5390  2.0895 -1.1598
11429SOL    HW236220   8.463   2.103   4.406 -2.4479 -2.6794  2.5294
11430SOL     OW36221   0.389   2.177   0.496  0.7414  0.6011 -0.3988
11430SOL    HW136222   0.478   2.156   0.524  0.2201  1.8132  2.6274
11430SOL    HW236223   0.382   2.272   0.509 -0.8338  0.6095 -1.0769
11431SOL     OW36224   7.975   8.649   2.045 -0.1914 -0.4654  0.9239
11431SOL    HW136225   8.049   8.611   1.998 -0.5478  0.4797 -0.4629
11431SOL    HW236226   7.919   8.574   2.064 -0.5662 -0.8000 -1.1757
11432SOL     OW36227   5.444   7.819   7.260  0.8790 -0.4023 -0.1478
11432SOL    HW136228   5.479   7.907   7.251  2.3859 -0.8783  0.6458
11432SOL    HW236229   5.393   7.822   7.341  0.1766 -0.0566 -0.5885
11433SOL     OW36230   3.818   1.749   0.866  0.6125 -0.3424  0.3517
11433SOL    HW136231   3.767   1.700   0.930  0.4282 -0.3389  0.2073
11433SOL    HW236232   3.781   1.725   0.781 -1.3296  2.0931  0.3986
11434SOL     OW36233   8.283   8.533   1.571  0.2401 -0.4519 -0.3801
11434SOL    HW136234   8.190   8.536   1.593  0.2517  0.8668 -0.4272
11434SOL    HW236235   8.291   8.460   1.510 -0.7195 -0.7350 -0.1857
11435SOL     OW36236   3.409   0.341   2.366  0.2418  0.1437 -0.1951
11435SOL    HW136237   3.358   0.284   2.309  0.4117  0.2487 -0.4537
11435SOL    HW236238   3.365   0.427   2.358 -0.0168  0.0505  0.1969
11436SOL     OW36239   4.711   0.220   3.694  0.4769 -0.1160  0.2254
11436SOL    HW136240   4.698   0.251   3.604 -1.8843 -1.5396 -0.0106
11436SOL    HW236241   4.710   0.125   3.687 -1.5277 -0.3030  1.8909
11437SOL     OW36242   2.768   1.737   1.198 -0.3480  0.3006 -0.4960
11437SOL    HW136243   2.712   1.666   1.230 -1.8082  1.8382  0.4973
11437SOL    HW236244   2.836   1.746   1.265 -0.4656  0.1904 -0.3600
11438SOL     OW36245   6.854   5.997   4.359 -0.3526 -0.2024 -0.2592
11438SOL    HW136246   6.848   5.901   4.363  0.5772 -0.3399 -1.4193
11438SOL    HW236247   6.941   6.017   4.392  1.5468 -0.2560 -4.5390
11439SOL     OW36248   8.233   4.610   5.463  0.1164  0.1391 -0.2785
11439SOL    HW136249   8.217   4.535   5.521  1.0912  0.5188  0.5066
11439SOL    HW236250   8.200   4.582   5.378 -2.0440 -0.1583  0.5935
11440SOL     OW36251   5.924   8.129   4.001 -0.0756  0.7747  1.1249
11440SOL    HW136252   5.928   8.039   3.970 -0.7312  0.7160  1.2023
11440SOL    HW236253   5.989   8.134   4.071  1.9256  1.0710 -0.6451
11441SOL     OW36254   5.961   6.775   1.977  0.0887 -0.1795 -0.0167
11441SOL    HW136255   5.922   6.688   1.970 -2.7813  0.9098  1.0631
11441SOL    HW236256   6.031   6.765   2.042 -0.6692 -1.5156  0.6310
11442SOL     OW36257   0.735   5.540   6.304 -0.0686  0.4323  0.8850
11442SOL    HW136258   0.754   5.619   6.255  1.0269 -0.1444  0.3311
11442SOL    HW236259   0.821   5.511   6.336 -0.2092 -1.3377 -0.1981
11443SOL     OW36260   7.578   8.734   5.104  0.1046  0.2328  0.4094
11443SOL    HW136261   7.497   8.779   5.128 -2.1630 -1.3959 -3.3474
11443SOL    HW236262   7.601   8.770   5.019  1.0311 -2.1072 -0.4134
11444SOL     OW36263   5.681   4.914   3.205  0.4492  0.1415 -0.0023
11444SOL    HW136264   5.674   4.825   3.242  0.6431  0.5859  1.1481
11444SOL    HW236265   5.590   4.943   3.196  0.4048  0.5317  1.4422
11445SOL     OW36266   3.937   5.038   2.300  0.2278 -0.4200 -0.0089
11445SOL    HW136267   3.952   5.107   2.234 -0.7373  1.4344  1.6018
11445SOL    HW236268   4.022   4.994   2.307  0.9203  0.6663 -1.0442
11446SOL     OW36269   7.416   0.280   6.361 -0.3329 -0.3508 -0.3013
11446SOL    HW136270   7.355   0.280   6.434 -1.3665 -1.0236 -1.1381
11446SOL    HW236271   7.365   0.248   6.287  0.7421  0.1239 -1.2774
11447SOL     OW36272   2.433   6.404   0.558  0.7759  0.2376 -0.4962
11447SOL    HW136273   2.451   6.312   0.539  2.2713  0.4210 -0.1029
11447SOL    HW236274   2.477   6.452   0.488  0.7757  0.6802 -0.1955
11448SOL     OW36275   7.666   6.488   7.766  0.2887 -0.3660  0.3473
11448SOL    HW136276   7.605   6.558   7.790 -0.6968 -0.4653 -1.6603
11448SOL    HW236277   7.625   6.408   7.799 -0.8724 -0.4646 -1.2123
11449SOL     OW36278   5.940   2.802   2.233  0.0104 -0.5112 -0.1799
11449SOL    HW136279   5.851   2.801   2.198  1.2854 -1.6742 -3.8022
11449SOL    HW236280   5.995   2.772   2.161  3.0908 -2.7529  2.7718
11450SOL     OW36281   1.506   2.000   1.710  0.5624 -0.3364  0.4561
11450SOL    HW136282   1.579   2.045   1.752 -0.0909  0.9227  0.2736
11450SOL    HW236283   1.519   2.016   1.616  0.1392 -0.2465  0.4135
11451SOL     OW36284   2.706   2.472   5.905 -0.0095 -0.1251  0.1392
11451SOL    HW136285   2.759   2.492   5.828 -0.2828  0.0096 -0.0176
11451SOL    HW236286   2.617   2.460   5.870 -0.5204  1.8484  0.6455
11452SOL     OW36287   8.447   8.620   8.216 -0.0081 -0.0694  0.4574
11452SOL    HW136288   8.436   8.711   8.243  0.2933  0.5365 -1.3774
11452SOL    HW236289   8.421   8.618   8.124 -1.9574 -2.2607  0.9630
11453SOL     OW36290   3.645   7.353   4.885  0.5190 -0.1196  0.3952
11453SOL    HW136291   3.620   7.446   4.892  1.3444  0.0331  1.6691
11453SOL    HW236292   3.692   7.348   4.803  3.3181  1.3526  1.7634
11454SOL     OW36293   4.165   0.678   5.225  0.3603 -0.1865 -0.0177
11454SOL    HW136294   4.141   0.699   5.316  0.3995  0.5974 -0.1765
11454SOL    HW236295   4.204   0.759   5.192 -0.7094 -0.0791 -1.0966
11455SOL     OW36296   6.254   2.427   7.378 -0.4041 -0.2835  0.1107
11455SOL    HW136297   6.256   2.504   7.320 -1.3676  0.1007  0.5698
11455SOL    HW236298   6.342   2.423   7.415  0.3091 -0.6538 -1.5072
11456SOL     OW36299   1.573   6.722   4.229 -0.1328  0.1711  0.0314
11456SOL    HW136300   1.548   6.661   4.160  0.7276  1.9396 -1.9368
11456SOL    HW236301   1.490   6.747   4.270 -0.8485  0.1727 -1.3466
11457SOL     OW36302   0.304   6.267   6.649  0.0177 -0.6876  0.1780
11457SOL    HW136303   0.308   6.236   6.739  2.0729 -0.7044  0.1197
11457SOL    HW236304   0.395   6.271   6.620 -0.4744  0.8157 -1.3902
11458SOL     OW36305   8.776   0.944   7.312  0.7433  0.1117 -0.4956
11458SOL    HW136306   8.802   0.852   7.314 -0.4972 -0.2744 -0.9644
11458SOL    HW236307   8.849   0.989   7.269  0.9797 -0.7926 -1.0629
11459SOL     OW36308   5.309   4.348   3.463 -0.5142 -0.4880  0.2100
11459SOL    HW136309   5.344   4.420   3.410 -0.2201 -1.1789 -0.5629
11459SOL    HW236310   5.328   4.269   3.412 -1.8722 -1.0239  0.4814
11460SOL     OW36311   6.308   6.020   1.156 -0.4469  0.0312  0.6807
11460SOL    HW136312   6.214   6.025   1.170 -0.9125 -0.4893 -1.6954
11460SOL    HW236313   6.326   6.089   1.092  0.0051 -2.2369 -1.8678
11461SOL     OW36314   6.912   2.323   2.494  0.3047  0.2706  0.1744
11461SOL    HW136315   6.955   2.258   2.549  1.5208  0.3659 -0.6394
11461SOL    HW236316   6.977   2.391   2.480  0.5262 -0.3401 -2.3854
11462SOL     OW36317   5.252   6.269   5.900 -0.3592  0.3160  0.5288
11462SOL    HW136318   5.282   6.306   5.983  0.8990  1.5258 -0.4101
11462SOL    HW236319   5.236   6.176   5.919 -1.3692  0.8332  2.4109
11463SOL     OW36320   3.716   6.797   0.091 -0.0064  0.0005  0.4017
11463SOL    HW136321   3.654   6.749   0.035 -1.1293  0.5552  1.1414
11463SOL    HW236322   3.705   6.757   0.178  0.9190 -0.1103  0.4741
11464SOL     OW36323   2.189   5.373   3.966 -0.1546  0.3056  0.5458
11464SOL    HW136324   2.137   5.331   4.034  1.1324 -1.5013  0.4764
11464SOL    HW236325   2.125   5.413   3.908 -1.4167 -0.9058  1.0616
11465SOL     OW36326   6.001   3.349   7.749  1.1792  0.1489  0.3970
11465SOL    HW136327   5.964   3.311   7.829 -1.0758  1.7560  0.2327
11465SOL    HW236328   6.006   3.443   7.768  1.5514  0.4272 -1.0013
11466SOL     OW36329   0.855   1.543   5.261 -0.3790  0.2103  0.4729
11466SOL    HW136330   0.836   1.602   5.187  1.9176  0.1171 -0.2516
11466SOL    HW236331   0.881   1.601   5.332 -2.2421  0.2743  1.1652
11467SOL     OW36332   5.245   6.801   0.325 -0.3661 -0.0618  0.2426
11467SOL    HW136333   5.326   6.789   0.375  0.1342 -0.1283 -0.5704
11467SOL    HW236334   5.210   6.713   0.314  1.4149 -0.5442 -2.5952
11468SOL     OW36335   5.777   2.526   7.190 -0.2817  0.4047  0.3932
11468SOL    HW136336   5.764   2.493   7.278  0.0875  2.1866  1.1554
11468SOL    HW236337   5.715   2.477   7.136 -1.2756  0.0381  1.8279
11469SOL     OW36338   1.763   7.773   5.949 -0.0965  0.2723 -0.0349
11469SOL    HW136339   1.693   7.731   5.899  2.0603 -0.3051 -2.8132
11469SOL    HW236340   1.829   7.797   5.883  3.1490 -0.8327  2.5093
11470SOL     OW36341   8.276   6.872   1.250  0.0894  0.1495  0.1948
11470SOL    HW136342   8.351   6.893   1.306 -0.3401 -0.4297  1.0055
11470SOL    HW236343   8.229   6.804   1.298 -0.1693 -0.5200 -0.9972
11471SOL     OW36344   5.219   3.047   6.951 -0.0921  0.2643 -0.2480
11471SOL    HW136345   5.142   3.065   7.005 -1.0614 -0.4581 -1.3372
11471SOL    HW236346   5.185   3.045   6.862  1.3805  0.9227 -0.8601
11472SOL     OW36347   3.308   1.677   5.665  0.3867 -0.0360  0.4472
11472SOL    HW136348   3.325   1.650   5.574  1.8023  2.2320 -0.0546
11472SOL    HW236349   3.213   1.677   5.673  0.1047  1.6355 -1.7500
11473SOL     OW36350   3.541   3.851   2.530  0.7869  0.8227  0.1170
11473SOL    HW136351   3.618   3.826   2.480 -0.1589 -0.3920 -0.8074
11473SOL    HW236352   3.575   3.881   2.614  2.1551 -1.7848  0.5783
11474SOL     OW36353   8.311   1.105   8.509  0.0228 -0.1357 -0.8762
11474SOL    HW136354   8.245   1.113   8.578  1.2318 -1.0925  0.4504
11474SOL    HW236355   8.277   1.158   8.437 -0.9971  1.4215  0.6727
11475SOL     OW36356   7.742   4.135   4.124  0.0248 -0.4346  0.1050
11475SOL    HW136357   7.701   4.157   4.041  0.5776  1.4143  0.2648
11475SOL    HW236358   7.708   4.048   4.146 -0.0684 -1.0089 -2.0630
11476SOL     OW36359   1.929   4.987   6.042 -0.6785 -0.0286 -0.1233
11476SOL    HW136360   2.018   5.019   6.055 -0.9603  0.8382 -0.3021
11476SOL    HW236361   1.885   5.056   5.993 -1.1487 -0.9178 -0.9955
11477SOL     OW36362   0.380   8.443   1.451 -0.1517  0.5502  0.1277
11477SOL    HW136363   0.447   8.383   1.421 -1.0939  0.0143 -0.9878
11477SOL    HW236364   0.332   8.468   1.372 -0.9367  1.3240  0.8190
11478SOL     OW36365   4.572   7.447   3.362  0.3539  0.4775  0.0543
11478SOL    HW136366   4.627   7.522   3.340 -1.7318  1.7531 -1.2654
11478SOL    HW236367   4.499   7.484   3.412 -1.2292 -0.4225 -1.4447
11479SOL     OW36368   3.234   4.181   7.367  0.3318 -0.1861  0.2092
11479SOL    HW136369   3.225   4.173   7.272 -1.3431  2.7948 -0.0313
11479SOL    HW236370   3.153   4.144   7.402 -0.0296  0.6366  0.2737
11480SOL     OW36371   2.264   2.601   5.953 -0.2460  0.3902  0.0764
11480SOL    HW136372   2.208   2.640   5.886  0.8680 -0.1028 -1.1968
11480SOL    HW236373   2.216   2.525   5.985 -1.6881  1.7680  1.3536
11481SOL     OW36374   0.128   3.182   7.656  0.2473  0.5183 -0.3098
11481SOL    HW136375   0.113   3.155   7.566 -2.8822 -0.0654  0.2792
11481SOL    HW236376   0.156   3.101   7.700  2.5905  0.9714 -0.8191
11482SOL     OW36377   1.216   3.581   8.414  0.1501 -0.1298 -0.3947
11482SOL    HW136378   1.181   3.670   8.402  0.3855 -0.2036 -1.7724
11482SOL    HW236379   1.269   3.587   8.493  0.9053  1.2100 -0.9713
11483SOL     OW36380   4.513   0.955   5.130  0.3682 -0.1638  0.2235
11483SOL    HW136381   4.519   1.050   5.121 -0.7955 -0.0158  0.7933
11483SOL    HW236382   4.419   0.937   5.133  0.5503 -1.4713 -1.1047
11484SOL     OW36383   8.248   2.541   5.517 -0.0596  0.2698 -0.1664
11484SOL    HW136384   8.271   2.459   5.475  0.1497 -0.3617  1.1466
11484SOL    HW236385   8.306   2.606   5.477 -0.0209 -0.2668 -0.9965
11485SOL     OW36386   6.346   6.943   8.305  0.1694 -0.4789 -0.6364
11485SOL    HW136387   6.419   6.960   8.364 -0.4920  0.8055 -0.1563
11485SOL    HW236388   6.359   7.003   8.232 -0.2530 -0.4461 -0.6883
11486SOL     OW36389   5.710   4.336   4.308 -0.0530 -0.0040  0.1267
11486SOL    HW136390   5.696   4.331   4.213 -1.5280  0.4651  0.2846
11486SOL    HW236391   5.686   4.426   4.330  1.2529  0.1954  0.8255
11487SOL     OW36392   1.793   4.320   6.474 -0.3126 -0.5069  0.2226
11487SOL    HW136393   1.764   4.387   6.412  0.0414 -1.1396 -0.6491
11487SOL    HW236394   1.807   4.243   6.420 -0.9027 -1.3499  1.2386
11488SOL     OW36395   8.056   7.766   4.040 -0.9817 -0.4716 -0.2183
11488SOL    HW136396   8.058   7.685   3.990 -1.4337  0.0782 -1.1498
11488SOL    HW236397   7.964   7.789   4.045 -1.0046 -0.7575  1.3117
11489SOL     OW36398   5.995   7.262   2.486 -0.3748  0.5484  0.2367
11489SOL    HW136399   5.901   7.275   2.473 -0.2622  0.4287 -0.7358
11489SOL    HW236400   6.032   7.350   2.490 -0.4269  0.5869 -0.1403
11490SOL     OW36401   3.077   1.943   7.209  0.3174  0.3364 -0.2042
11490SOL    HW136402   2.986   1.931   7.180  0.3776 -1.5787  0.2556
11490SOL    HW236403   3.108   1.855   7.227  1.1806  1.1554  2.9525
11491SOL     OW36404   3.153   7.945   1.252 -0.2647  0.1132  0.3289
11491SOL    HW136405   3.079   7.938   1.192 -1.4177 -0.6211  1.7776
11491SOL    HW236406   3.119   7.916   1.337  1.3260  1.0477  1.3486
11492SOL     OW36407   1.050   1.686   8.410 -0.0611 -0.1779  0.0117
11492SOL    HW136408   1.067   1.636   8.330 -0.4903 -0.4484  0.0868
11492SOL    HW236409   0.974   1.643   8.449 -1.2140  1.2584 -0.5502
11493SOL     OW36410   5.165   4.671   4.803 -0.1290  0.5349  0.1739
11493SOL    HW136411   5.241   4.667   4.861 -0.0733  1.5619  0.1936
11493SOL    HW236412   5.201   4.670   4.715 -0.1286  0.4147  0.1754
11494SOL     OW36413   8.317   3.175   1.112 -0.0110 -0.0897 -0.8764
11494SOL    HW136414   8.255   3.104   1.098  0.6064 -0.7464 -0.3349
11494SOL    HW236415   8.310   3.194   1.206  0.8016 -0.3553 -0.7582
11495SOL     OW36416   1.076   7.876   4.558 -0.0139  0.1475  0.5109
11495SOL    HW136417   1.026   7.797   4.582 -2.8355  1.0675 -1.6882
11495SOL    HW236418   1.167   7.849   4.565 -0.8114 -2.7109  1.7089
11496SOL     OW36419   6.422   3.245   2.688  0.0200  0.0659  0.8295
11496SOL    HW136420   6.399   3.165   2.735 -0.2063  0.0012  0.6119
11496SOL    HW236421   6.482   3.291   2.747  1.1106 -0.8399  0.4519
11497SOL     OW36422   5.154   0.984   8.475 -0.4144 -0.1173 -0.3799
11497SOL    HW136423   5.230   0.993   8.417  0.6466  0.0244  0.9837
11497SOL    HW236424   5.165   1.053   8.540 -1.1234 -0.7791  0.4741
11498SOL     OW36425   1.867   3.437   2.514 -0.3256  0.1840 -0.2454
11498SOL    HW136426   1.813   3.512   2.541  1.1501  1.0913  0.3146
11498SOL    HW236427   1.929   3.474   2.450 -0.2839 -0.8065 -0.7946
11499SOL     OW36428   1.117   4.821   1.814  0.0245  0.2119 -0.0753
11499SOL    HW136429   1.097   4.743   1.865 -0.3053  0.6063  0.4169
11499SOL    HW236430   1.116   4.792   1.723 -1.2244 -0.1265  0.0234
11500SOL     OW36431   7.487   5.839   8.485 -0.2728  0.1293 -0.3781
11500SOL    HW136432   7.561   5.779   8.483 -1.9657 -2.0454 -1.0150
11500SOL    HW236433   7.449   5.828   8.572 -0.6215  0.2604 -0.5111
11501SOL     OW36434   0.900   1.669   7.924 -0.0969  0.4445  0.0824
11501SOL    HW136435   0.924   1.739   7.983  2.3239  0.1440 -0.4311
11501SOL    HW236436   0.935   1.696   7.839  0.7027 -1.2463 -0.1687
11502SOL     OW36437   7.013   2.276   0.063  0.3032 -0.7083  0.4738
11502SOL    HW136438   7.069   2.346   0.096  0.5347 -1.3222  1.4009
11502SOL    HW236439   7.072   2.202   0.051  0.5726 -0.1459 -2.7930
11503SOL     OW36440   8.010   6.643   1.121  0.3850 -0.2897  0.3556
11503SOL    HW136441   8.098   6.651   1.086  1.4260  0.5640  2.9128
11503SOL    HW236442   8.016   6.575   1.188 -0.5001  0.7538  1.5654
11504SOL     OW36443   4.820   6.552   0.020 -0.1006 -0.4819  0.5581
11504SOL    HW136444   4.730   6.583   0.033  0.2679  0.7068  0.3787
11504SOL    HW236445   4.866   6.628  -0.016  0.7312 -1.3806 -0.3326
11505SOL     OW36446   3.316   5.346   7.724  0.3511 -0.1144 -0.2255
11505SOL    HW136447   3.405   5.375   7.706  0.1530  0.0935 -0.8963
11505SOL    HW236448   3.302   5.271   7.667 -0.1267  0.2587 -0.6098
11506SOL     OW36449   1.674   7.588   5.731  0.1676  0.2270 -0.2380
11506SOL    HW136450   1.656   7.519   5.794 -1.9413 -0.3676 -1.3960
11506SOL    HW236451   1.616   7.660   5.757 -0.6869 -0.0089 -1.4064
11507SOL     OW36452   7.460   7.472   3.729 -0.1954 -0.1576 -0.8159
11507SOL    HW136453   7.399   7.478   3.802 -0.2551  1.7726 -0.9918
11507SOL    HW236454   7.546   7.468   3.770 -0.3390 -1.6522 -0.6042
11508SOL     OW36455   2.905   0.218   5.340 -0.4615 -0.0531 -0.2766
11508SOL    HW136456   2.919   0.265   5.258  0.4063 -2.5008 -1.6292
11508SOL    HW236457   2.964   0.260   5.402 -0.8744  1.6122 -0.9520
11509SOL     OW36458   5.556   0.110   4.436 -0.1081  0.3771  0.3965
11509SOL    HW136459   5.540   0.051   4.510 -1.2015  1.5532  1.1316
11509SOL    HW236460   5.623   0.066   4.385  1.0979 -0.2321  2.3851
11510SOL     OW36461   3.048   4.281   8.048 -0.4341  0.3810  0.4292
11510SOL    HW136462   3.008   4.298   8.133  1.4735  0.9873  1.2493
11510SOL    HW236463   3.118   4.218   8.066 -0.6674 -0.2946 -0.8695
11511SOL     OW36464   8.409   1.012   2.090 -0.3718 -0.3103 -0.2113
11511SOL    HW136465   8.353   1.089   2.099 -0.9301 -0.7720  0.3380
11511SOL    HW236466   8.419   1.001   1.996 -0.4435  0.3182 -0.3003
11512SOL     OW36467   7.194   3.009   3.163  0.0527  0.5669  0.2275
11512SOL    HW136468   7.171   3.101   3.153  1.2548  1.0097  1.2114
11512SOL    HW236469   7.138   2.963   3.101 -0.1200  2.0232 -0.7451
11513SOL     OW36470   5.187   0.712   1.403  0.6253 -0.0181 -0.2422
11513SOL    HW136471   5.208   0.684   1.492 -0.2480  0.4341  0.1263
11513SOL    HW236472   5.156   0.802   1.413  3.5240  1.2388 -1.4084
11514SOL     OW36473   4.955   6.335   8.846  0.1509 -0.0434 -0.2904
11514SOL    HW136474   4.918   6.422   8.860  2.1581  0.8640 -0.2006
11514SOL    HW236475   4.916   6.280   8.915 -0.3024  1.0586  0.3517
11515SOL     OW36476   4.495   2.074   4.891 -0.4001  0.7076 -0.7939
11515SOL    HW136477   4.406   2.052   4.863  0.8832 -1.6411 -3.5621
11515SOL    HW236478   4.533   2.118   4.815  0.6567  2.2802  0.5918
11516SOL     OW36479   4.683   5.502   2.810 -0.5121 -0.3311  0.2627
11516SOL    HW136480   4.660   5.588   2.846 -2.4719 -0.8750  0.4072
11516SOL    HW236481   4.609   5.446   2.833 -0.4479 -1.4472 -2.0396
11517SOL     OW36482   7.104   0.026   1.099 -0.1309 -0.1642  0.8570
11517SOL    HW136483   7.199   0.038   1.110 -0.1702 -0.1798  1.2035
11517SOL    HW236484   7.067   0.052   1.183 -0.7558  3.6063 -0.3577
11518SOL     OW36485   8.803   2.076   6.636  0.1407  0.2069 -0.5656
11518SOL    HW136486   8.840   2.070   6.548 -1.4566 -1.1544 -1.1877
11518SOL    HW236487   8.712   2.050   6.626 -0.2761  0.7698  1.3790
11519SOL     OW36488   5.452   4.670   7.380  0.1436  0.4654 -0.1050
11519SOL    HW136489   5.538   4.700   7.351  0.9739 -2.0622 -0.4735
11519SOL    HW236490   5.438   4.715   7.463  1.4195  1.5481 -0.4256
11520SOL     OW36491   1.178   0.300   1.233 -0.2464  0.2981  0.2057
11520SOL    HW136492   1.144   0.216   1.199  3.1091 -0.7071 -1.1281
11520SOL    HW236493   1.265   0.279   1.265  1.0976  3.4172 -0.9872
11521SOL     OW36494   1.387   4.892   7.473 -0.3477  0.0621 -0.4833
11521SOL    HW136495   1.360   4.825   7.537  0.9032 -1.5035 -1.5161
11521SOL    HW236496   1.315   4.956   7.475 -2.0005 -1.6872  0.0042
11522SOL     OW36497   4.636   4.352   4.642 -0.3680 -0.3430  0.7463
11522SOL    HW136498   4.584   4.432   4.629  0.4231  0.3735  1.8245
11522SOL    HW236499   4.661   4.355   4.735 -0.1562 -1.7483  0.7478
11523SOL     OW36500   8.350   3.414   2.489 -0.3668 -0.1817  0.2518
11523SOL    HW136501   8.432   3.419   2.538  0.0883  0.8683 -0.5697
11523SOL    HW236502   8.362   3.339   2.431  0.9828  1.2714 -1.4752
11524SOL     OW36503   0.459   0.979   5.565 -0.0410 -0.4803 -0.5335
11524SOL    HW136504   0.396   1.041   5.603 -1.3678 -1.7763 -0.5541
11524SOL    HW236505   0.464   1.004   5.473  0.7324  0.6283 -0.2215
11525SOL     OW36506   3.571   8.687   3.632 -0.3114  0.0029  0.1325
11525SOL    HW136507   3.651   8.642   3.603  0.3140  0.3320  1.2890
11525SOL    HW236508   3.567   8.669   3.726 -0.5568  1.5972  0.4437
11526SOL     OW36509   2.437   3.452   6.789  0.0749  0.2481 -0.4336
11526SOL    HW136510   2.511   3.449   6.850 -1.7568  0.1927  1.9218
11526SOL    HW236511   2.372   3.392   6.826 -0.6197 -0.9368 -3.2800
11527SOL     OW36512   1.936   2.515   4.671 -0.1991  0.8634  0.5566
11527SOL    HW136513   1.925   2.528   4.577  0.3330 -4.8537 -0.6353
11527SOL    HW236514   2.029   2.494   4.681 -0.5441 -0.0350  2.0843
11528SOL     OW36515   2.958   5.562   7.433  0.4440 -0.1266 -0.4748
11528SOL    HW136516   2.894   5.492   7.444  0.3099  0.2060  1.2151
11528SOL    HW236517   3.038   5.526   7.471  0.3791  0.5933  0.3818
11529SOL     OW36518   4.203   5.616   2.654  0.6334  0.4474 -0.1939
11529SOL    HW136519   4.109   5.621   2.640  0.9501  3.0497 -2.0012
11529SOL    HW236520   4.213   5.614   2.749 -1.2172 -2.0502  0.0570
11530SOL     OW36521   1.371   1.789   0.809  0.1145 -0.0279  0.2375
11530SOL    HW136522   1.330   1.873   0.829 -1.8626 -1.0044  0.5735
11530SOL    HW236523   1.433   1.776   0.881 -1.6184 -0.1147  1.7962
11531SOL     OW36524   7.902   7.283   7.861 -0.3914 -0.6305 -0.6646
11531SOL    HW136525   7.891   7.378   7.856  0.1048 -0.5615 -0.5141
11531SOL    HW236526   7.940   7.259   7.776  0.1208 -0.5983 -0.4488
11532SOL     OW36527   4.390   1.145   0.948 -0.1678  0.3527  0.0334
11532SOL    HW136528   4.440   1.134   1.029 -0.6106 -0.1846  0.2452
11532SOL    HW236529   4.298   1.145   0.976 -0.3249  0.1835 -0.4640
11533SOL     OW36530   2.695   4.479   7.918  0.4710  0.0070 -0.3555
11533SOL    HW136531   2.612   4.522   7.936  0.3196 -0.7992  1.0311
11533SOL    HW236532   2.699   4.474   7.822 -0.3579  1.3882 -0.4917
11534SOL     OW36533   5.137   7.810   0.656  0.4920 -0.2425  0.2005
11534SOL    HW136534   5.063   7.870   0.664  0.6166 -0.1191  0.4429
11534SOL    HW236535   5.149   7.800   0.562 -0.4085 -0.9852  0.1509
11535SOL     OW36536   0.785   4.246   8.036 -0.4743 -0.2965 -0.4449
11535SOL    HW136537   0.832   4.174   8.079  0.4462  0.2113 -0.5862
11535SOL    HW236538   0.726   4.202   7.974  1.1859 -0.9150 -1.6505
11536SOL     OW36539   2.737   8.283   7.541 -0.0250 -0.1903  0.5300
11536SOL    HW136540   2.682   8.205   7.541  1.8939 -1.6771  2.4096
11536SOL    HW236541   2.816   8.257   7.589  0.6167  3.0001  1.4684
11537SOL     OW36542   1.826   7.971   6.813  0.2843 -0.2749 -0.0754
11537SOL    HW136543   1.751   8.026   6.791 -0.4241 -0.7653  0.9896
11537SOL    HW236544   1.897   8.032   6.832  0.5564  0.1764 -2.3387
11538SOL     OW36545   6.657   6.484   7.827  0.1495 -0.8253 -0.0463
11538SOL    HW136546   6.656   6.497   7.921  1.4588 -1.0556  0.0063
11538SOL    HW236547   6.639   6.571   7.791 -1.1181 -0.8801  0.4033
11539SOL     OW36548   8.279   1.314   6.342  0.7454 -0.3716  0.3067
11539SOL    HW136549   8.309   1.252   6.276  0.6856  0.0239 -0.0931
11539SOL    HW236550   8.356   1.367   6.363  0.2027  1.1596 -1.2848
11540SOL     OW36551   2.138   8.004   1.348  0.3479 -0.6495 -0.1035
11540SOL    HW136552   2.157   7.910   1.341 -1.1620 -0.9465 -0.7024
11540SOL    HW236553   2.156   8.038   1.260  3.2099  0.1460  0.6956
11541SOL     OW36554   0.646   7.504   4.374 -0.7222  0.3052 -0.3278
11541SOL    HW136555   0.620   7.462   4.456  0.8193 -1.9747 -0.9093
11541SOL    HW236556   0.675   7.591   4.400 -2.5584  0.5416  1.1677
11542SOL     OW36557   8.841   5.001   4.922 -0.7567  0.2563  0.0812
11542SOL    HW136558   8.931   5.028   4.902  0.2681 -1.8494  1.4869
11542SOL    HW236559   8.827   4.922   4.870 -0.4840 -1.3885  2.3367
11543SOL     OW36560   3.412   1.437   6.087  0.0545  0.0145  0.0503
11543SOL    HW136561   3.376   1.502   6.028  0.5655  0.5813  0.3510
11543SOL    HW236562   3.408   1.355   6.038 -0.8487  0.2182 -0.2258
11544SOL     OW36563   4.750   3.617   1.376  0.0270  0.1072  0.3021
11544SOL    HW136564   4.805   3.603   1.299 -0.6714  0.0430 -0.1931
11544SOL    HW236565   4.766   3.541   1.431 -0.4335 -0.4927 -0.3730
11545SOL     OW36566   4.345   7.016   4.930  0.2409  0.3850  0.5506
11545SOL    HW136567   4.289   7.075   4.880  1.5874  1.7592  0.5785
11545SOL    HW236568   4.300   6.932   4.929 -0.6891  0.8723 -1.3201
11546SOL     OW36569   3.338   1.565   5.425  0.1134  0.1929  0.2837
11546SOL    HW136570   3.312   1.491   5.480  0.4967 -0.1098  0.0655
11546SOL    HW236571   3.277   1.562   5.351 -0.5440  0.7343  0.7919
11547SOL     OW36572   0.671   2.652   1.582 -0.3508 -0.2843 -0.0592
11547SOL    HW136573   0.702   2.562   1.594  0.6192  0.0771  0.2818
11547SOL    HW236574   0.712   2.701   1.653 -0.9739  0.4109 -0.1668
11548SOL     OW36575   1.715   4.562   5.104  0.2059  0.6419  1.1160
11548SOL    HW136576   1.674   4.628   5.160 -0.6451  0.7995  0.3356
11548SOL    HW236577   1.671   4.480   5.128 -0.1809  0.7140  0.6923
11549SOL     OW36578   3.115   5.590   1.018 -0.9336  0.2118  0.4033
11549SOL    HW136579   3.065   5.672   1.028 -2.9677 -0.3848 -3.1303
11549SOL    HW236580   3.108   5.547   1.103 -2.5086  2.2964  1.4160
11550SOL     OW36581   6.907   4.591   3.475 -0.2642 -0.2197  0.2861
11550SOL    HW136582   6.885   4.577   3.567  0.9945 -0.1217  0.6141
11550SOL    HW236583   6.954   4.512   3.449 -1.1969 -0.5394 -0.4722
11551SOL     OW36584   4.066   4.444   5.575 -0.6438  0.0136  0.0584
11551SOL    HW136585   4.087   4.389   5.650  0.4816 -1.2772 -1.1573
11551SOL    HW236586   3.986   4.406   5.540 -1.4932  0.9642  0.8872
11552SOL     OW36587   8.549   4.741   4.434  0.2636 -0.3948 -0.3800
11552SOL    HW136588   8.620   4.677   4.423  0.2436 -0.1850 -1.8173
11552SOL    HW236589   8.543   4.785   4.350 -0.3300  0.8991  0.3101
11553SOL     OW36590   5.343   5.026   2.644  0.3071 -0.3897  0.2665
11553SOL    HW136591   5.340   5.104   2.700 -0.6961 -1.3070  1.5636
11553SOL    HW236592   5.252   4.995   2.641  0.3855 -0.5670 -1.6531
11554SOL     OW36593   7.314   5.128   0.882 -0.3741 -0.6376  0.5843
11554SOL    HW136594   7.303   5.222   0.896 -1.4109 -0.5538 -0.6409
11554SOL    HW236595   7.347   5.095   0.966 -0.3966  0.7442  1.1643
11555SOL     OW36596   1.039   3.235   1.244 -1.3368 -0.5502 -0.1475
11555SOL    HW136597   1.078   3.261   1.327 -0.1728  1.1467 -1.1532
11555SOL    HW236598   0.948   3.214   1.265 -1.4521  1.1925  1.3444
11556SOL     OW36599   4.582   1.618   3.667  0.0756 -0.2182 -0.8433
11556SOL    HW136600   4.608   1.655   3.751  0.7041  0.8127 -1.4653
11556SOL    HW236601   4.516   1.552   3.689 -0.8252  1.0222  0.3445
11557SOL     OW36602   0.356   5.923   2.417 -0.0324  0.3704  0.3721
11557SOL    HW136603   0.385   5.844   2.372  1.9766  1.9448 -1.3283
11557SOL    HW236604   0.288   5.959   2.361 -0.0934  0.4727  0.5099
11558SOL     OW36605   2.440   6.016   1.821 -0.3149  0.1480  0.3873
11558SOL    HW136606   2.524   5.972   1.809 -0.4182  0.2204 -0.6934
11558SOL    HW236607   2.379   5.969   1.763 -0.8478  0.5529  0.6055
11559SOL     OW36608   4.468   7.324   7.757 -0.1828  0.3861 -1.0795
11559SOL    HW136609   4.535   7.258   7.741  0.8664  0.8273  1.1211
11559SOL    HW236610   4.511   7.408   7.739 -0.6668  0.5883 -1.3059
11560SOL     OW36611   7.512   8.153   2.458 -0.3433 -0.4947 -0.4935
11560SOL    HW136612   7.586   8.096   2.437  1.5062  1.1759  1.0454
11560SOL    HW236613   7.550   8.241   2.463 -3.2204  1.1531 -3.7144
11561SOL     OW36614   0.686   2.350   2.787  0.0850  0.2830  0.0507
11561SOL    HW136615   0.685   2.446   2.791  0.6053  0.3348 -0.7372
11561SOL    HW236616   0.734   2.323   2.866 -0.8577  0.6187  0.7583
11562SOL     OW36617   1.757   0.327   4.038  0.5221  0.5058  0.0203
11562SOL    HW136618   1.811   0.405   4.051  2.1031 -0.4368 -0.4857
11562SOL    HW236619   1.779   0.298   3.949 -1.8485  0.7997 -0.7316
11563SOL     OW36620   8.553   2.792   8.079 -0.0821  0.1682 -0.2645
11563SOL    HW136621   8.577   2.794   8.172  0.4751  0.1393 -0.4081
11563SOL    HW236622   8.459   2.810   8.079  0.0200  0.7536  0.2632
11564SOL     OW36623   0.958   3.361   3.010  0.7219 -0.4664  0.1170
11564SOL    HW136624   0.931   3.269   3.015  0.7078 -0.6023 -1.7238
11564SOL    HW236625   0.880   3.407   2.981  1.6636 -0.4881 -2.7551
11565SOL     OW36626   8.639   8.808   0.768 -0.3769  0.1873 -0.1071
11565SOL    HW136627   8.709   8.775   0.712 -0.3209 -0.0780  0.1154
11565SOL    HW236628   8.667   8.787   0.857  1.0205  3.3300  0.3214
11566SOL     OW36629   8.695   0.074   0.421 -0.4790  0.2329  0.5540
11566SOL    HW136630   8.680   0.157   0.376 -1.3016  0.8360  1.8765
11566SOL    HW236631   8.762   0.030   0.368  0.0278  1.7547 -0.1351
11567SOL     OW36632   1.621   7.912   4.807  0.1401 -0.9741  0.0866
11567SOL    HW136633   1.598   7.997   4.769  1.3737 -0.9380 -0.6249
11567SOL    HW236634   1.560   7.901   4.880 -1.0284 -0.1697 -0.7281
11568SOL     OW36635   8.190   1.168   4.134  0.3465  0.5143 -0.1461
11568SOL    HW136636   8.263   1.117   4.170 -1.0730 -2.1450 -0.7940
11568SOL    HW236637   8.176   1.238   4.198  1.8761 -0.3812  1.2433
11569SOL     OW36638   0.225   3.533   6.885 -0.1604  0.4890 -0.3695
11569SOL    HW136639   0.298   3.496   6.934 -1.0289  1.9120  2.1916
11569SOL    HW236640   0.157   3.466   6.887 -0.4189  0.7643  1.0280
11570SOL     OW36641   5.289   7.411   1.620 -0.2461 -0.3927 -0.3854
11570SOL    HW136642   5.228   7.339   1.605  0.0788 -0.6852 -0.3363
11570SOL    HW236643   5.348   7.409   1.544 -0.4592  0.0566 -0.5668
11571SOL     OW36644   7.140   8.625   3.574  0.3693 -0.1728  0.1914
11571SOL    HW136645   7.092   8.697   3.615  0.3050 -0.3732  0.4713
11571SOL    HW236646   7.134   8.643   3.480 -1.1911 -0.7768  0.1431
11572SOL     OW36647   0.350   2.248   5.776  0.0955 -0.0716 -0.0279
11572SOL    HW136648   0.324   2.156   5.769  1.0686 -0.3302 -0.4278
11572SOL    HW236649   0.396   2.266   5.694 -2.7691  1.6898 -1.3987
11573SOL     OW36650   1.090   1.084   5.744 -0.3219  0.2315 -0.2199
11573SOL    HW136651   1.174   1.043   5.763 -0.6902  0.9978  4.0817
11573SOL    HW236652   1.112   1.167   5.702  1.0218  0.0385  0.0683
11574SOL     OW36653   8.462   1.667   3.683  0.7162 -0.1032  0.6573
11574SOL    HW136654   8.472   1.646   3.775  1.7034 -0.2190  0.5314
11574SOL    HW236655   8.458   1.581   3.639 -1.1833 -0.0875  0.7081
11575SOL     OW36656   8.353   0.122   3.206 -0.4556  0.1460  0.1059
11575SOL    HW136657   8.310   0.056   3.259  0.9241 -1.1681 -0.3439
11575SOL    HW236658   8.383   0.188   3.268  1.0964 -1.3402  1.0446
11576SOL     OW36659   1.003   1.056   6.043  0.5417  0.1205  0.1946
11576SOL    HW136660   0.975   1.047   5.952  0.6654  0.1291  0.1560
11576SOL    HW236661   1.070   1.125   6.041  0.0240  0.6372  0.4032
11577SOL     OW36662   7.360   6.154   0.672  0.2288  0.4825  0.3304
11577SOL    HW136663   7.286   6.180   0.727 -1.9442  1.5172 -2.8357
11577SOL    HW236664   7.328   6.078   0.623  1.0448  1.2090 -1.4107
11578SOL     OW36665   1.664   3.262   2.530 -1.0094 -0.4639  0.9635
11578SOL    HW136666   1.740   3.321   2.522 -2.2174  1.1654  0.9544
11578SOL    HW236667   1.605   3.308   2.590 -2.5593 -1.0624 -0.0386
11579SOL     OW36668   6.017   0.979   0.651  0.0473 -0.4964 -0.1593
11579SOL    HW136669   5.967   0.975   0.732 -0.5431  0.1977 -0.4793
11579SOL    HW236670   6.100   0.937   0.672 -0.7184 -1.8107  0.3415
11580SOL     OW36671   2.078   8.589   4.940  0.8591  0.3307  0.7001
11580SOL    HW136672   2.007   8.527   4.923  0.7778  0.2951  1.1687
11580SOL    HW236673   2.051   8.668   4.893  0.7870  0.1323  0.4036
11581SOL     OW36674   5.048   7.788   5.496  0.2781  0.3863  0.2599
11581SOL    HW136675   5.052   7.814   5.404 -0.3839 -0.2455  0.0374
11581SOL    HW236676   4.959   7.810   5.524 -0.0570 -0.8754  0.2773
11582SOL     OW36677   8.725   5.615   4.923  0.0580 -0.2209 -0.7372
11582SOL    HW136678   8.690   5.702   4.939  2.4728  0.8600 -0.8758
11582SOL    HW236679   8.798   5.607   4.985  1.2854 -1.2486 -2.2510
11583SOL     OW36680   1.209   0.597   1.078 -0.1064 -0.3005 -0.1766
11583SOL    HW136681   1.159   0.636   1.149 -1.1060  1.3459 -1.7021
11583SOL    HW236682   1.194   0.503   1.087 -2.0367  0.0346  0.4658
11584SOL     OW36683   1.894   8.092   2.486  0.2920 -0.5524 -0.9921
11584SOL    HW136684   1.889   8.003   2.451 -0.1497 -0.1444 -2.0221
11584SOL    HW236685   1.805   8.126   2.476  0.3355 -0.1717 -0.1230
11585SOL     OW36686   1.079   4.902   7.923 -0.0326  0.8460  0.1099
11585SOL    HW136687   0.995   4.919   7.881 -0.2443 -2.1443 -0.9164
11585SOL    HW236688   1.066   4.927   8.015 -1.8245  1.0275 -0.1715
11586SOL     OW36689   8.212   0.411   3.113 -0.2898 -0.2050  0.5384
11586SOL    HW136690   8.186   0.388   3.202  2.1950 -0.0640  1.3733
11586SOL    HW236691   8.229   0.328   3.070  0.4784 -0.2250  0.8653
11587SOL     OW36692   3.801   4.383   7.941  0.0385  0.1995  0.3696
11587SOL    HW136693   3.808   4.332   8.022 -0.9326 -0.4525  0.0669
11587SOL    HW236694   3.713   4.363   7.908  0.2872  0.7303 -0.6599
11588SOL     OW36695   0.412   4.153   5.651  0.3810 -0.0717  0.0045
11588SOL    HW136696   0.318   4.148   5.667  0.5824  0.6563  1.6038
11588SOL    HW236697   0.435   4.067   5.616 -0.5424 -0.9732  1.5081
11589SOL     OW36698   1.838   8.529   8.682  0.3154  0.7277 -0.3001
11589SOL    HW136699   1.841   8.606   8.625 -0.5255  1.3249  0.4315
11589SOL    HW236700   1.896   8.551   8.755  1.0196  0.1575 -0.6687
11590SOL     OW36701   5.494   2.602   0.848 -0.1264  0.1301  0.0731
11590SOL    HW136702   5.587   2.607   0.870 -0.5477 -0.0546  2.1340
11590SOL    HW236703   5.464   2.693   0.847 -0.3099  0.1091  1.4464
11591SOL     OW36704   2.583   2.118   6.946 -0.2980  0.4191  0.6387
11591SOL    HW136705   2.667   2.164   6.946 -0.7689  1.3117  1.4099
11591SOL    HW236706   2.557   2.115   6.854  0.9936 -0.6602  0.2865
11592SOL     OW36707   7.812   7.616   5.881 -0.0974 -0.1464 -0.0434
11592SOL    HW136708   7.729   7.568   5.884 -0.8015  1.0533  0.5353
11592SOL    HW236709   7.792   7.702   5.919  1.1455  0.5798 -0.9486
11593SOL     OW36710   7.964   7.393   0.726 -0.5114 -0.2281  0.9577
11593SOL    HW136711   7.953   7.471   0.672 -1.4640  0.8330  2.5965
11593SOL    HW236712   8.034   7.416   0.788 -0.4998 -0.8315  1.1783
11594SOL     OW36713   2.625   4.272   3.460 -0.4916  0.2680  0.0975
11594SOL    HW136714   2.721   4.279   3.453 -0.3415 -2.0629 -1.0108
11594SOL    HW236715   2.592   4.322   3.386 -0.0587 -0.1382 -0.3776
11595SOL     OW36716   1.451   1.430   7.298  0.0017 -0.1169  0.0168
11595SOL    HW136717   1.363   1.413   7.265  0.5441 -1.4038 -0.8729
11595SOL    HW236718   1.465   1.364   7.366 -0.1344  0.8400  0.9991
11596SOL     OW36719   5.081   2.499   2.157  0.0469 -0.3206  0.3494
11596SOL    HW136720   5.060   2.420   2.206 -0.2989 -0.0183  0.6868
11596SOL    HW236721   5.172   2.486   2.128 -0.5172 -1.5766 -1.0094
11597SOL     OW36722   7.851   2.632   5.576  0.1762  0.0252  0.1480
11597SOL    HW136723   7.766   2.629   5.621 -0.3761 -0.4211 -0.8940
11597SOL    HW236724   7.913   2.596   5.640 -0.7253 -1.3707  0.2913
11598SOL     OW36725   0.111   2.238   3.193  0.3474  0.1612  0.5981
11598SOL    HW136726   0.083   2.259   3.104 -0.8682  0.0189  0.9304
11598SOL    HW236727   0.120   2.143   3.194  1.4303  0.2417  0.3476
11599SOL     OW36728   6.946   4.391   7.348  0.3648  0.1589 -0.3138
11599SOL    HW136729   6.911   4.314   7.394  2.7711 -0.1355  1.2448
11599SOL    HW236730   6.976   4.356   7.264 -0.6195 -0.0957 -0.5774
11600SOL     OW36731   6.236   3.925   4.476  0.1370  0.2447 -0.2653
11600SOL    HW136732   6.307   3.921   4.539  1.3180 -1.5725 -1.6292
11600SOL    HW236733   6.185   3.846   4.491  0.4311 -0.2094 -1.5599
11601SOL     OW36734   3.174   4.825   5.960 -0.7076 -0.1803  0.4615
11601SOL    HW136735   3.118   4.751   5.983 -1.3142  1.0419  3.3928
11601SOL    HW236736   3.141   4.898   6.013  0.5299  1.9405 -1.5047
11602SOL     OW36737   5.871   1.139   8.755 -0.0466  0.4045 -0.0876
11602SOL    HW136738   5.857   1.222   8.711 -1.8813  0.3236  0.2711
11602SOL    HW236739   5.966   1.123   8.747  0.3631  2.5519 -0.0499
11603SOL     OW36740   2.995   0.420   2.557 -0.2491  0.0724 -0.2102
11603SOL    HW136741   3.014   0.331   2.526 -1.7013  0.5258 -2.6862
11603SOL    HW236742   2.966   0.409   2.647 -1.0912 -2.0736 -0.6959
11604SOL     OW36743   8.206   8.398   0.857 -0.2971 -0.5096  0.1383
11604SOL    HW136744   8.177   8.473   0.805  1.2931 -0.2275 -0.3880
11604SOL    HW236745   8.216   8.327   0.794  0.6156 -0.4582  0.2102
11605SOL     OW36746   7.922   5.125   1.828 -0.4968  0.8390 -0.0799
11605SOL    HW136747   7.947   5.208   1.788 -2.0348  2.1475  1.5090
11605SOL    HW236748   7.917   5.145   1.922 -3.3898 -0.3288  0.1016
11606SOL     OW36749   7.420   7.367   5.610 -0.7287  0.0062 -0.1079
11606SOL    HW136750   7.420   7.320   5.693  0.3051 -0.8907 -0.5750
11606SOL    HW236751   7.440   7.457   5.632 -1.8191  0.0605  0.7305
11607SOL     OW36752   4.616   4.927   4.514 -0.6076 -0.2116  0.4893
11607SOL    HW136753   4.700   4.883   4.523 -0.5093 -0.0519  0.3532
11607SOL    HW236754   4.632   5.016   4.545 -0.2286  0.3967 -1.3396
11608SOL     OW36755   0.242   5.006   5.166 -0.1195 -0.0055  0.1706
11608SOL    HW136756   0.212   4.919   5.192  0.3784 -0.2160  0.0388
11608SOL    HW236757   0.175   5.066   5.201 -0.4513 -0.4357  0.2765
11609SOL     OW36758   7.612   8.176   5.968 -0.1681  0.2344  0.2739
11609SOL    HW136759   7.578   8.090   5.944  0.7947  0.0956 -0.6926
11609SOL    HW236760   7.657   8.162   6.051 -0.2820 -0.1309  0.2758
11610SOL     OW36761   6.780   2.445   7.046  0.8146  0.0299 -0.5533
11610SOL    HW136762   6.717   2.508   7.080  0.0713 -0.1874 -1.4886
11610SOL    HW236763   6.817   2.403   7.124 -0.2498  0.1116  0.0068
11611SOL     OW36764   5.461   1.192   5.000  0.1198 -0.5107  0.2033
11611SOL    HW136765   5.475   1.114   4.948  2.1703 -0.2789  0.3265
11611SOL    HW236766   5.516   1.179   5.078 -2.3795 -0.5821  2.0758
11612SOL     OW36767   8.242   6.822   0.513  0.0110  0.0596 -0.3887
11612SOL    HW136768   8.214   6.731   0.508  0.4288 -0.0373 -1.0706
11612SOL    HW236769   8.174   6.865   0.566 -1.4278 -0.1692 -1.9487
11613SOL     OW36770   4.178   7.185   5.346 -0.0850 -0.0759 -0.2946
11613SOL    HW136771   4.141   7.206   5.431  1.4013 -0.8550  0.5904
11613SOL    HW236772   4.103   7.158   5.293 -0.9910  0.1064  0.8601
11614SOL     OW36773   1.934   0.462   7.318  0.1982  0.7443 -0.7931
11614SOL    HW136774   1.927   0.367   7.308 -0.9309  0.6730  0.3987
11614SOL    HW236775   2.019   0.484   7.279 -0.0327 -0.5824 -2.1441
11615SOL     OW36776   8.618   8.618   7.382  0.3717  0.1812 -0.0787
11615SOL    HW136777   8.570   8.551   7.431  2.9829 -1.5770  0.3144
11615SOL    HW236778   8.710   8.593   7.393  1.3410  2.7935 -1.5423
11616SOL     OW36779   1.337   2.692   6.404  0.1698  0.1275 -1.0483
11616SOL    HW136780   1.284   2.764   6.369  1.6516  0.5851 -2.5027
11616SOL    HW236781   1.362   2.641   6.326  2.2725  0.2587 -0.5388
11617SOL     OW36782   0.412   6.148   1.609 -0.4562 -0.3177  0.3239
11617SOL    HW136783   0.465   6.163   1.687  1.5428 -2.6166 -0.4673
11617SOL    HW236784   0.441   6.215   1.547 -1.2833  0.8321  1.1279
11618SOL     OW36785   2.775   0.595   8.494 -0.2492 -0.6001  0.4299
11618SOL    HW136786   2.867   0.575   8.475  0.0507  0.3754  0.7974
11618SOL    HW236787   2.740   0.628   8.411 -0.5645 -1.9614  0.0054
11619SOL     OW36788   1.308   3.269   6.681 -0.2830 -0.5025 -0.0692
11619SOL    HW136789   1.220   3.298   6.704  0.3839  0.0525  2.0038
11619SOL    HW236790   1.307   3.175   6.697 -0.6957 -0.6374 -0.8215
11620SOL     OW36791   1.189   2.094   2.178  0.4493 -0.1395  0.4172
11620SOL    HW136792   1.138   2.162   2.134  1.5913  0.6092  0.1984
11620SOL    HW236793   1.253   2.067   2.113  0.8658 -0.4654  0.9560
11621SOL     OW36794   1.608   1.677   5.190 -0.4121 -0.0573  0.0928
11621SOL    HW136795   1.540   1.615   5.217  0.4648 -1.8954 -1.7227
11621SOL    HW236796   1.664   1.685   5.267 -0.9305 -0.9813  0.5858
11622SOL     OW36797   2.628   5.742   0.164 -0.2840 -0.4194  0.4016
11622SOL    HW136798   2.573   5.735   0.086  0.9626 -0.3917 -0.4992
11622SOL    HW236799   2.624   5.655   0.204 -0.5592 -0.5730  0.0463
11623SOL     OW36800   2.615   3.169   6.169 -0.2266 -0.6345 -0.1815
11623SOL    HW136801   2.649   3.254   6.141  0.0464 -0.9171 -0.7268
11623SOL    HW236802   2.675   3.105   6.131 -0.4620 -1.0778  0.1769
11624SOL     OW36803   5.598   4.722   6.836  0.4308  0.2673  0.3396
11624SOL    HW136804   5.644   4.731   6.752  0.1742 -1.1393  0.0297
11624SOL    HW236805   5.507   4.741   6.816  0.6758  2.0934  0.7641
11625SOL     OW36806   0.903   8.248   4.538 -0.4891 -0.3127 -0.2715
11625SOL    HW136807   0.977   8.205   4.496 -0.1832 -0.2900  0.2290
11625SOL    HW236808   0.943   8.319   4.589 -0.9657  0.4190 -0.8993
11626SOL     OW36809   8.119   1.841   6.932 -0.0417  0.1620 -0.8908
11626SOL    HW136810   8.125   1.924   6.885 -0.3157  0.2856 -0.7081
11626SOL    HW236811   8.210   1.816   6.949  0.0415  0.3929 -0.9949
11627SOL     OW36812   5.299   2.451   3.990  0.1789  0.4938  0.5246
11627SOL    HW136813   5.334   2.389   4.053 -0.5295  0.0129  0.4590
11627SOL    HW236814   5.205   2.433   3.988  0.4068 -0.9129 -2.1265
11628SOL     OW36815   6.321   6.035   8.518 -0.1332 -0.3555  0.2365
11628SOL    HW136816   6.276   6.090   8.582 -0.2864  0.6214 -0.6793
11628SOL    HW236817   6.394   6.089   8.486 -0.3192 -0.6485 -0.7272
11629SOL     OW36818   2.776   1.956   4.299 -0.2965 -0.7895 -0.3485
11629SOL    HW136819   2.727   1.885   4.340  0.0382 -0.7536  0.1243
11629SOL    HW236820   2.812   1.919   4.219  0.1975 -1.2660  0.0900
11630SOL     OW36821   4.872   1.191   7.362  0.2113  0.0787  0.0192
11630SOL    HW136822   4.879   1.102   7.327 -0.3383 -0.3367  0.9317
11630SOL    HW236823   4.877   1.180   7.457 -1.7422  0.8045  0.2498
11631SOL     OW36824   0.933   5.246   3.840 -0.1183  0.7128  0.3671
11631SOL    HW136825   0.885   5.163   3.831 -0.4799  1.0567 -1.1130
11631SOL    HW236826   0.875   5.302   3.892 -0.0713  0.1896  0.9891
11632SOL     OW36827   4.097   2.874   6.656  0.6329 -0.3262  0.5779
11632SOL    HW136828   4.177   2.848   6.610  0.9079 -1.5706  1.7039
11632SOL    HW236829   4.043   2.796   6.658  0.4616 -0.2037  2.0019
11633SOL     OW36830   1.031   0.408   1.971  0.0471 -0.1775 -0.2040
11633SOL    HW136831   0.966   0.366   2.029 -1.6351  1.7602 -0.5894
11633SOL    HW236832   1.015   0.368   1.886  2.5048 -3.0107  0.4606
11634SOL     OW36833   0.741   2.334   5.356 -0.2255  0.0653  0.5140
11634SOL    HW136834   0.832   2.363   5.350 -1.2977  3.7627 -0.1770
11634SOL    HW236835   0.708   2.375   5.436 -2.1635  1.9166 -1.1038
11635SOL     OW36836   7.661   1.693   6.986  0.0028 -0.1915 -0.0834
11635SOL    HW136837   7.690   1.747   7.060  0.3434  1.8828 -1.6681
11635SOL    HW236838   7.739   1.642   6.962 -0.0809 -0.8031  0.8756
11636SOL     OW36839   3.750   1.399   0.103  0.7445  0.2225  0.1561
11636SOL    HW136840   3.769   1.315   0.144  1.1571  0.2652  0.0506
11636SOL    HW236841   3.825   1.417   0.047  0.0737  0.0572 -0.8093
11637SOL     OW36842   8.852   1.443   0.333  0.1228 -0.0316 -0.7083
11637SOL    HW136843   8.785   1.393   0.286  1.0538  0.1007 -2.1986
11637SOL    HW236844   8.803   1.486   0.404 -1.1965 -0.7087 -1.1660
11638SOL     OW36845   6.580   5.060   7.875  0.1634  0.1613  0.3727
11638SOL    HW136846   6.579   5.154   7.889 -0.9295  0.4305 -1.2986
11638SOL    HW236847   6.567   5.049   7.781  0.4969 -1.6531  0.5012
11639SOL     OW36848   8.218   6.669   1.398 -0.0509  0.1839  0.3515
11639SOL    HW136849   8.311   6.651   1.412 -0.2713 -0.5044  1.0117
11639SOL    HW236850   8.174   6.585   1.415 -0.7861  0.4765 -0.0340
11640SOL     OW36851   0.986   6.806   8.051 -0.2303  0.4684  0.4741
11640SOL    HW136852   1.072   6.842   8.032  0.3693 -0.9479  0.3938
11640SOL    HW236853   0.952   6.779   7.965  0.0170 -0.6036  0.7003
11641SOL     OW36854   6.646   7.350   1.694  0.5311 -0.1326  0.1878
11641SOL    HW136855   6.665   7.436   1.656  2.0506 -0.6032 -0.1627
11641SOL    HW236856   6.719   7.332   1.753 -0.8723 -0.2421  1.9891
11642SOL     OW36857   1.819   5.275   5.901  0.0391  0.0633 -0.2807
11642SOL    HW136858   1.788   5.297   5.813 -0.9312 -1.4044 -0.3551
11642SOL    HW236859   1.852   5.357   5.936 -2.4589  1.4377 -0.8558
11643SOL     OW36860   1.977   8.588   3.444 -0.1618 -0.5148 -0.0259
11643SOL    HW136861   1.999   8.648   3.516 -0.1780 -0.1360 -0.3310
11643SOL    HW236862   1.996   8.638   3.365 -1.4836 -0.4151 -0.2977
11644SOL     OW36863   3.001   1.284   6.413 -0.2433  0.0565 -0.5384
11644SOL    HW136864   2.936   1.353   6.401 -1.2011 -0.9764 -1.4996
11644SOL    HW236865   3.059   1.292   6.338  0.5766  0.7695  0.1506
11645SOL     OW36866   7.865   3.348   3.528 -0.4804  0.1156 -0.1663
11645SOL    HW136867   7.782   3.378   3.565  0.1590  1.4794  0.2552
11645SOL    HW236868   7.841   3.277   3.468 -1.9069  0.2865  0.1651
11646SOL     OW36869   6.708   5.948   0.441 -0.0325  0.0317  0.0424
11646SOL    HW136870   6.651   5.887   0.394  1.0826 -0.3849 -0.7983
11646SOL    HW236871   6.767   5.892   0.491 -0.5584  0.4662  1.1737
11647SOL     OW36872   8.239   8.550   4.657  0.2628  0.1552  0.3415
11647SOL    HW136873   8.189   8.587   4.585 -0.2913 -0.2831  0.4971
11647SOL    HW236874   8.307   8.498   4.615  0.7817  0.9974  0.1280
11648SOL     OW36875   0.919   3.455   8.241  0.5633 -0.1374 -0.3774
11648SOL    HW136876   0.963   3.409   8.312 -0.3973 -1.4116 -0.5858
11648SOL    HW236877   0.943   3.406   8.162 -0.4783 -0.3071 -0.5980
11649SOL     OW36878   7.048   5.282   8.457  0.0398 -0.5117 -0.5423
11649SOL    HW136879   7.061   5.298   8.364 -0.7135 -0.4406 -0.6434
11649SOL    HW236880   7.104   5.208   8.478 -1.1180 -1.6740 -1.4468
11650SOL     OW36881   5.888   8.209   2.685  0.1636  0.1553  0.2946
11650SOL    HW136882   5.825   8.139   2.668  0.2818 -0.0135  0.5312
11650SOL    HW236883   5.963   8.189   2.628  0.0333  0.3144  0.0690
11651SOL     OW36884   7.571   5.241   2.781  0.2730  0.4056  0.3575
11651SOL    HW136885   7.519   5.177   2.829  1.2958 -0.0133  0.9213
11651SOL    HW236886   7.541   5.232   2.690 -0.4569 -0.0030  0.6285
11652SOL     OW36887   4.844   2.329   4.278  0.5360  0.0139 -0.0407
11652SOL    HW136888   4.918   2.305   4.333  1.1053  0.7155 -0.4766
11652SOL    HW236889   4.846   2.425   4.274 -0.3181  0.0386 -0.1643
11653SOL     OW36890   5.085   0.326   4.329 -0.7712 -0.0921  0.3454
11653SOL    HW136891   5.078   0.301   4.237 -0.1846  0.5631  0.1115
11653SOL    HW236892   5.028   0.264   4.375  0.0750 -1.3755 -0.2785
11654SOL     OW36893   7.587   1.085   6.308  1.0179  0.3293  0.4277
11654SOL    HW136894   7.656   1.057   6.367  2.3537  1.8303 -0.3567
11654SOL    HW236895   7.540   1.005   6.286  1.9485 -0.5886  1.6620
11655SOL     OW36896   5.400   0.100   7.181 -0.2622 -0.1476 -0.2679
11655SOL    HW136897   5.416   0.016   7.223 -0.0411  0.0307  0.0078
11655SOL    HW236898   5.344   0.079   7.106  1.5818 -0.8287 -1.5185
11656SOL     OW36899   5.450   1.041   7.826  0.3225 -0.2207  0.6283
11656SOL    HW136900   5.476   1.039   7.734 -0.3595  0.3157  0.4096
11656SOL    HW236901   5.524   1.004   7.873  0.9823  0.1754 -0.0707
11657SOL     OW36902   2.671   5.161   2.613 -0.1954  0.3035  0.0223
11657SOL    HW136903   2.664   5.239   2.557 -1.5939  0.9412  1.0218
11657SOL    HW236904   2.764   5.139   2.612  0.2925  2.1949 -0.0166
11658SOL     OW36905   1.624   5.285   3.134 -0.3301  0.1533 -0.1361
11658SOL    HW136906   1.567   5.214   3.164 -0.5341  0.4369  0.1645
11658SOL    HW236907   1.594   5.361   3.184 -0.0112  0.4139 -0.3420
11659SOL     OW36908   6.283   2.216   8.652  0.1703 -0.0802  0.4203
11659SOL    HW136909   6.337   2.209   8.573 -0.7937 -0.0605 -0.2560
11659SOL    HW236910   6.233   2.135   8.653  0.0008  0.0295  0.8832
11660SOL     OW36911   1.644   1.415   3.844 -0.1219  0.3233 -0.3600
11660SOL    HW136912   1.593   1.496   3.854 -0.2188  0.3118 -0.7292
11660SOL    HW236913   1.686   1.402   3.929  1.0827  1.5616 -0.7378
11661SOL     OW36914   3.503   3.101   4.377 -0.1715 -0.4756  0.0190
11661SOL    HW136915   3.471   3.039   4.312  0.5687 -0.3920 -0.4334
11661SOL    HW236916   3.576   3.056   4.420  1.0752  0.4495 -1.0432
11662SOL     OW36917   2.248   3.221   3.880  0.1801 -0.2199 -0.5140
11662SOL    HW136918   2.242   3.127   3.862  0.8245 -0.7279  1.6233
11662SOL    HW236919   2.273   3.226   3.972 -0.5776  2.0724 -0.3745
11663SOL     OW36920   2.295   2.995   6.882  0.0436  0.2578 -0.0880
11663SOL    HW136921   2.308   3.084   6.849 -0.7964  0.6167  0.5050
11663SOL    HW236922   2.274   2.943   6.804  0.5203  0.5782 -0.4357
11664SOL     OW36923   5.613   5.870   1.662  0.5290  0.1920  0.2490
11664SOL    HW136924   5.607   5.803   1.731 -1.3650 -2.3150 -2.1240
11664SOL    HW236925   5.696   5.852   1.619  0.6157  0.2029  0.4090
11665SOL     OW36926   2.283   5.380   0.677  0.2839  0.0243  0.3298
11665SOL    HW136927   2.292   5.447   0.609 -0.4010 -0.1743  0.0379
11665SOL    HW236928   2.309   5.424   0.758  0.5519  0.4272  0.0320
11666SOL     OW36929   7.111   1.515   3.030  0.2325  0.1302 -0.3450
11666SOL    HW136930   7.041   1.501   2.967 -0.1392 -0.3928  0.1644
11666SOL    HW236931   7.116   1.432   3.078 -0.3287  0.9141  1.1306
11667SOL     OW36932   1.969   3.421   7.392  0.3966 -0.1834 -0.1667
11667SOL    HW136933   1.939   3.372   7.469 -1.5867  0.9908 -0.1379
11667SOL    HW236934   2.065   3.417   7.397  0.3011 -1.1232  1.7068
11668SOL     OW36935   6.333   5.856   3.891  0.1098  0.0383 -0.3194
11668SOL    HW136936   6.272   5.929   3.881 -0.8553 -0.7570 -0.3548
11668SOL    HW236937   6.395   5.866   3.819  1.9879  2.6539  1.4614
11669SOL     OW36938   2.409   6.499   1.597 -0.1400  0.4872  0.4714
11669SOL    HW136939   2.453   6.415   1.616 -0.0655  0.1005 -1.2190
11669SOL    HW236940   2.355   6.516   1.675  0.7686 -0.5088  1.3605
11670SOL     OW36941   7.102   0.993   6.087 -0.2188  0.2654 -0.4988
11670SOL    HW136942   7.161   1.040   6.027  1.0330  1.6459  1.6803
11670SOL    HW236943   7.046   1.062   6.123  0.2148 -0.2146  1.1674
11671SOL     OW36944   5.001   8.114   2.344 -0.2176 -0.0194 -0.4569
11671SOL    HW136945   4.947   8.134   2.268 -0.9012 -0.0118  0.0224
11671SOL    HW236946   5.089   8.104   2.309 -0.2989  1.2293 -1.0702
11672SOL     OW36947   0.173   4.191   6.023  0.8968  0.1403  0.0653
11672SOL    HW136948   0.121   4.185   5.943  1.3629 -0.6620 -0.1871
11672SOL    HW236949   0.257   4.226   5.995  0.8202  0.5342  0.3227
11673SOL     OW36950   2.731   7.929   1.511  0.2774  0.2568  0.0854
11673SOL    HW136951   2.728   7.885   1.596 -0.0559  0.4263  0.1664
11673SOL    HW236952   2.671   7.879   1.456  0.0798  0.4652  0.1084
11674SOL     OW36953   5.212   1.380   8.580  0.1825 -0.6065  0.4559
11674SOL    HW136954   5.246   1.450   8.637  2.3419 -1.1365 -0.1125
11674SOL    HW236955   5.198   1.423   8.495  1.9705 -0.9198 -0.0289
11675SOL     OW36956   3.545   2.746   6.148 -0.3734  0.0628 -0.3670
11675SOL    HW136957   3.518   2.663   6.187 -0.2929  0.8279  1.4250
11675SOL    HW236958   3.482   2.809   6.181  0.0743  0.8627 -1.0122
11676SOL     OW36959   0.584   0.682   2.149 -0.1238  0.1460 -0.3373
11676SOL    HW136960   0.666   0.679   2.099 -0.6976  1.2114 -1.3995
11676SOL    HW236961   0.611   0.701   2.239  0.8910 -1.2257 -0.3131
11677SOL     OW36962   8.451   4.578   4.848  0.1266 -0.0624  0.1805
11677SOL    HW136963   8.511   4.590   4.921 -1.3973  0.2100  1.4323
11677SOL    HW236964   8.464   4.487   4.822  0.9454 -0.0598  0.5310
11678SOL     OW36965   6.618   4.336   3.310  0.6199 -0.0570  0.0317
11678SOL    HW136966   6.701   4.309   3.348 -0.6657  0.7053  3.7358
11678SOL    HW236967   6.613   4.430   3.326 -1.1585 -0.1771  0.3332
11679SOL     OW36968   1.855   8.038   6.486  0.1668  0.1467  0.0309
11679SOL    HW136969   1.877   8.062   6.396  1.4349  2.2461  0.8448
11679SOL    HW236970   1.762   8.059   6.493  0.4934  1.8745 -0.2646
11680SOL     OW36971   5.940   5.345   1.848 -0.0055 -0.5049  0.5997
11680SOL    HW136972   5.975   5.434   1.850  2.8091 -1.3902 -1.8279
11680SOL    HW236973   5.856   5.353   1.802 -0.3098  0.9984  1.3566
11681SOL     OW36974   3.300   3.235   2.464  0.0966 -0.5487 -0.5005
11681SOL    HW136975   3.208   3.260   2.454 -0.6987 -2.5451  1.0513
11681SOL    HW236976   3.310   3.218   2.558  1.4532 -2.4464 -0.9278
11682SOL     OW36977   4.178   2.512   4.725 -0.2368  0.1048  0.6086
11682SOL    HW136978   4.129   2.430   4.714 -0.3944  0.4794 -2.1706
11682SOL    HW236979   4.263   2.494   4.685 -1.2593  2.0314 -2.9141
11683SOL     OW36980   6.522   2.779   4.699  0.3997 -0.0061  0.4329
11683SOL    HW136981   6.609   2.749   4.726  1.4258  0.0642 -2.4746
11683SOL    HW236982   6.473   2.698   4.682  0.8350 -0.0660 -0.5899
11684SOL     OW36983   0.794   8.014   0.398 -0.3569  0.8416 -0.0156
11684SOL    HW136984   0.849   8.055   0.331 -0.1102  1.1787  0.3895
11684SOL    HW236985   0.853   7.998   0.471 -0.3726 -0.5385 -0.2789
11685SOL     OW36986   8.226   8.337   4.874 -0.0747 -0.5400  0.5539
11685SOL    HW136987   8.170   8.373   4.806 -0.5720 -0.9310  0.7435
11685SOL    HW236988   8.245   8.411   4.932 -1.6063 -0.6856  1.2954
11686SOL     OW36989   0.864   7.232   4.976  0.0654 -0.5311 -0.3008
11686SOL    HW136990   0.785   7.192   5.013 -1.5055  0.3309 -2.5236
11686SOL    HW236991   0.870   7.317   5.020 -2.1726  0.7751 -2.2902
11687SOL     OW36992   0.453   5.717   4.429  0.6366  0.2299 -0.2958
11687SOL    HW136993   0.431   5.637   4.382 -0.8057  1.0558 -1.1165
11687SOL    HW236994   0.461   5.784   4.360  1.7645  0.8248  0.3686
11688SOL     OW36995   7.827   1.993   0.474  0.6704  0.2257 -0.2175
11688SOL    HW136996   7.906   2.047   0.470 -0.3226  1.6607 -1.3574
11688SOL    HW236997   7.775   2.031   0.545  1.6453 -1.7380  1.6746
11689SOL     OW36998   4.132   4.837   2.415  0.1537 -0.1913  0.8954
11689SOL    HW136999   4.184   4.905   2.457 -0.5842  0.1947  1.2043
11689SOL    HW237000   4.063   4.816   2.478 -0.5059 -0.1636  0.2118
11690SOL     OW37001   0.240   3.450   8.374 -0.3859  1.0696 -0.2877
11690SOL    HW137002   0.326   3.426   8.340  0.2358  1.7567  0.7486
11690SOL    HW237003   0.205   3.511   8.309 -0.3622  0.3256 -1.0170
11691SOL     OW37004   3.221   7.135   6.999  0.2143 -0.1500 -0.5979
11691SOL    HW137005   3.289   7.193   7.033  0.7967 -0.9264 -0.4361
11691SOL    HW237006   3.157   7.195   6.960  0.3201  0.6586  0.4434
11692SOL     OW37007   4.356   6.493   3.744  0.0132  0.0884 -0.2907
11692SOL    HW137008   4.310   6.447   3.814  1.4505  2.3635  2.3866
11692SOL    HW237009   4.296   6.563   3.717 -0.0623 -0.0246 -0.4133
11693SOL     OW37010   6.738   0.581   3.915  0.5335 -0.0299  0.2350
11693SOL    HW137011   6.679   0.653   3.890  0.4083 -0.1684  0.1327
11693SOL    HW237012   6.757   0.536   3.833 -0.0287 -0.5982  0.4026
11694SOL     OW37013   3.399   6.732   1.733  0.4107 -0.1493 -0.6029
11694SOL    HW137014   3.364   6.803   1.788  0.2078 -1.0486  0.4536
11694SOL    HW237015   3.481   6.707   1.776  0.9610  0.0559 -1.4978
11695SOL     OW37016   1.557   7.780   2.366 -0.1017 -0.3454  0.2261
11695SOL    HW137017   1.580   7.732   2.286  1.4054 -0.2444  0.5812
11695SOL    HW237018   1.463   7.797   2.357 -0.5434 -2.7099 -0.2491
11696SOL     OW37019   2.385   1.983   6.342 -0.0179  0.2151  0.4930
11696SOL    HW137020   2.342   1.927   6.277 -1.4551  0.6506  1.0341
11696SOL    HW237021   2.412   1.923   6.411 -0.1057 -0.0212  0.3251
11697SOL     OW37022   2.691   3.845   0.114 -0.5345  0.1940 -0.4642
11697SOL    HW137023   2.666   3.754   0.128  0.8639 -0.1193  0.1983
11697SOL    HW237024   2.759   3.841   0.047 -1.6315  0.9380 -1.6705
11698SOL     OW37025   4.347   5.031   4.153 -0.1659  0.0432 -0.2605
11698SOL    HW137026   4.304   5.053   4.236 -2.2994  0.7995 -1.4788
11698SOL    HW237027   4.416   5.097   4.144  0.2604 -0.2042  1.0028
11699SOL     OW37028   7.964   4.897   4.490 -0.1474  0.1040 -0.2289
11699SOL    HW137029   7.908   4.972   4.511  0.1330  0.0979  0.5569
11699SOL    HW237030   8.053   4.931   4.499 -0.0218 -0.1761 -0.4209
11700SOL     OW37031   1.401   4.113   3.714  0.4663 -0.0063  0.5018
11700SOL    HW137032   1.406   4.055   3.638  0.7078  1.7135 -0.8651
11700SOL    HW237033   1.317   4.091   3.755  0.6440 -1.4300  0.1552
11701SOL     OW37034   0.355   1.761   8.473  0.2730 -0.0600 -0.2130
11701SOL    HW137035   0.324   1.671   8.461 -0.3428 -0.1153  1.5599
11701SOL    HW237036   0.313   1.811   8.403 -0.6220 -0.8796 -0.2791
11702SOL     OW37037   5.402   0.776   3.579 -0.0167 -0.4949  0.1015
11702SOL    HW137038   5.410   0.871   3.586 -0.3295 -0.4742  0.1614
11702SOL    HW237039   5.333   0.752   3.641 -1.1779 -0.5670 -1.1837
11703SOL     OW37040   7.634   3.471   4.818 -0.0496  0.1976  0.0305
11703SOL    HW137041   7.724   3.439   4.833  0.4064  1.7298  0.8126
11703SOL    HW237042   7.636   3.562   4.848 -1.6035  0.5935 -0.9454
11704SOL     OW37043   5.831   0.604   2.553 -0.1858 -0.3650  0.1079
11704SOL    HW137044   5.751   0.638   2.594 -0.3998 -1.6870  0.8276
11704SOL    HW237045   5.886   0.682   2.541  0.2273  0.0493  3.6177
11705SOL     OW37046   7.220   2.864   0.197 -0.2312  0.6994 -0.1927
11705SOL    HW137047   7.221   2.817   0.113  0.6067  1.7239 -0.7795
11705SOL    HW237048   7.307   2.848   0.234 -0.4476  0.6067  0.2742
11706SOL     OW37049   6.039   1.105   3.043  0.0629 -0.3612  0.2231
11706SOL    HW137050   5.962   1.115   3.100  0.9237 -1.3771  1.6381
11706SOL    HW237051   6.100   1.173   3.073  0.2949 -0.5212  0.1133
11707SOL     OW37052   1.635   3.639   5.465 -0.0230  0.0227 -0.0706
11707SOL    HW137053   1.659   3.548   5.449  0.6598  0.1800  0.0231
11707SOL    HW237054   1.647   3.651   5.559  0.9901  0.5115 -0.2476
11708SOL     OW37055   4.539   4.979   6.955  0.2451 -0.1120  0.3845
11708SOL    HW137056   4.469   4.914   6.949  0.5543 -0.3704 -0.4916
11708SOL    HW237057   4.534   5.010   7.046 -0.0055 -1.2475  0.7816
11709SOL     OW37058   7.174   0.420   8.103  0.0730  0.2227 -0.2178
11709SOL    HW137059   7.268   0.423   8.116  0.1064 -0.0727 -0.3915
11709SOL    HW237060   7.147   0.512   8.103 -0.1893  0.3031  3.6265
11710SOL     OW37061   6.881   1.220   5.780  0.5919  0.6033  0.2314
11710SOL    HW137062   6.886   1.131   5.747 -1.7104  0.3582  0.4061
11710SOL    HW237063   6.840   1.271   5.710 -0.5230  0.9397  1.0834
11711SOL     OW37064   3.690   8.476   1.252 -0.6765 -0.4635  0.1625
11711SOL    HW137065   3.741   8.401   1.221 -0.3606 -0.6549  1.1249
11711SOL    HW237066   3.600   8.443   1.257 -0.1929 -1.6576  3.1182
11712SOL     OW37067   1.590   3.140   5.523  0.2301 -0.0723  0.7771
11712SOL    HW137068   1.502   3.149   5.561 -0.5318  1.4078 -1.1740
11712SOL    HW237069   1.633   3.075   5.579 -2.2728 -1.2638  1.5091
11713SOL     OW37070   6.593   7.433   0.056  0.4251  0.1479  0.1367
11713SOL    HW137071   6.672   7.437   0.002 -0.8047  1.0069 -1.6993
11713SOL    HW237072   6.591   7.516   0.103  0.7560  0.0038  0.4056
11714SOL     OW37073   0.606   0.385   1.082 -0.2755  0.6499  0.2277
11714SOL    HW137074   0.625   0.315   1.144  1.2494  0.8165 -0.0189
11714SOL    HW237075   0.617   0.344   0.996 -0.2268  0.9763  0.0773
11715SOL     OW37076   8.768   0.827   4.774  0.4081 -0.1837  0.3945
11715SOL    HW137077   8.749   0.891   4.705 -0.7830 -1.3696 -0.4516
11715SOL    HW237078   8.758   0.876   4.856 -2.1970  0.3908 -0.1562
11716SOL     OW37079   2.706   6.418   0.963  0.4060 -0.2570  0.5277
11716SOL    HW137080   2.714   6.330   0.927 -2.1947 -0.5768  0.5653
11716SOL    HW237081   2.622   6.418   1.008  1.1622  1.7364  2.0953
11717SOL     OW37082   3.640   7.414   1.164  0.3223 -0.3943 -0.0424
11717SOL    HW137083   3.698   7.403   1.089  0.5446 -1.8726  0.3103
11717SOL    HW237084   3.563   7.362   1.143  0.7523 -1.5520  1.0700
11718SOL     OW37085   1.159   1.315   6.419  0.5963 -0.0686 -0.1339
11718SOL    HW137086   1.253   1.333   6.410  0.5520  0.0851 -0.2892
11718SOL    HW237087   1.117   1.375   6.357  0.4891 -1.3768 -1.3675
11719SOL     OW37088   3.776   7.147   1.061 -0.2867  0.2727 -0.2211
11719SOL    HW137089   3.831   7.219   1.091  0.2992 -0.1902 -0.1668
11719SOL    HW237090   3.727   7.120   1.139  0.7557 -0.5019  0.1878
11720SOL     OW37091   5.043   1.244   6.047 -0.1564  0.1085  0.2641
11720SOL    HW137092   5.094   1.196   5.981 -0.8430 -0.5350  0.2036
11720SOL    HW237093   4.953   1.240   6.015 -0.7825 -1.6672  2.0775
11721SOL     OW37094   7.368   5.304   0.059 -0.1970  0.4074 -0.2763
11721SOL    HW137095   7.452   5.337   0.090  0.6530 -0.9515 -1.0033
11721SOL    HW237096   7.308   5.378   0.064  0.7970  1.1333  1.2083
11722SOL     OW37097   4.245   4.088   0.989  0.4808  0.5414  0.1849
11722SOL    HW137098   4.209   4.108   1.075 -0.3955  0.7539 -0.2265
11722SOL    HW237099   4.338   4.072   1.006  0.2330  0.0927  1.2425
11723SOL     OW37100   1.243   7.937   0.985  0.3345 -0.3277 -0.2647
11723SOL    HW137101   1.321   7.882   0.975  1.1240  0.6914  0.0633
11723SOL    HW237102   1.214   7.920   1.074 -0.3907 -1.4165 -0.6953
11724SOL     OW37103   6.999   3.253   2.304  0.0511  0.0666  0.2045
11724SOL    HW137104   7.043   3.317   2.360 -0.3744 -1.1549  2.0116
11724SOL    HW237105   7.068   3.191   2.280  0.1379  0.3448 -0.2798
11725SOL     OW37106   5.128   0.882   5.111  0.2002 -0.1136  0.7660
11725SOL    HW137107   5.222   0.895   5.123  0.1900  1.4635 -0.5637
11725SOL    HW237108   5.118   0.861   5.018 -0.8740  1.1921  0.5519
11726SOL     OW37109   2.461   8.154   6.870 -0.0840  0.3735  0.6900
11726SOL    HW137110   2.478   8.241   6.904 -1.2929  1.3874 -1.1169
11726SOL    HW237111   2.373   8.159   6.833  0.4613 -1.0891 -0.9763
11727SOL     OW37112   3.116   8.361   4.384 -0.5604  0.1432  0.2938
11727SOL    HW137113   3.153   8.441   4.421 -0.5434  1.1174 -1.7107
11727SOL    HW237114   3.041   8.341   4.440 -0.2972  1.3078  1.0942
11728SOL     OW37115   2.059   2.307   3.310  0.0152  0.7237  0.2801
11728SOL    HW137116   2.068   2.397   3.340  0.7151  0.4511  0.9357
11728SOL    HW237117   2.025   2.314   3.221  2.4756  1.7461 -0.6597
11729SOL     OW37118   7.808   7.992   1.303 -0.3431 -0.4284  0.1305
11729SOL    HW137119   7.848   8.067   1.347  0.1085 -1.3640  1.3558
11729SOL    HW237120   7.838   8.000   1.212  0.9219  0.0678  0.5608
11730SOL     OW37121   5.131   8.600   4.129 -0.2773  0.2516 -0.0277
11730SOL    HW137122   5.206   8.650   4.160 -0.4225  0.2312  0.3601
11730SOL    HW237123   5.113   8.537   4.199  0.9669 -1.5239 -1.2327
11731SOL     OW37124   6.410   3.447   7.337  0.4819  0.2316 -0.5019
11731SOL    HW137125   6.383   3.363   7.300  0.0844  1.2771 -2.7565
11731SOL    HW237126   6.347   3.510   7.302  1.4914  1.6486  0.1502
11732SOL     OW37127   5.795   0.773   6.544  0.7211 -0.0774 -0.1409
11732SOL    HW137128   5.776   0.793   6.453  0.9936 -0.2804 -0.2451
11732SOL    HW237129   5.846   0.692   6.540 -0.5596 -0.9299  0.2724
11733SOL     OW37130   4.200   5.258   0.982  0.4125 -0.5602 -0.0868
11733SOL    HW137131   4.283   5.306   0.982  0.3361 -0.4206 -0.5799
11733SOL    HW237132   4.213   5.188   0.917 -0.6096  0.8062 -1.8434
11734SOL     OW37133   1.120   0.217   7.425  0.5061  0.0776 -0.5581
11734SOL    HW137134   1.148   0.277   7.356  1.0846 -0.9548 -1.2494
11734SOL    HW237135   1.029   0.198   7.404  0.9311 -0.9345 -1.5914
11735SOL     OW37136   0.382   3.062   6.678 -0.1215 -0.7461  0.2529
11735SOL    HW137137   0.447   3.090   6.614  0.8611  0.1982  1.6101
11735SOL    HW237138   0.324   3.137   6.688 -0.9426 -1.2845 -0.3239
11736SOL     OW37139   6.217   8.801   5.285 -0.9538  0.2197 -0.0620
11736SOL    HW137140   6.139   8.794   5.340 -0.4586  2.5570  1.0754
11736SOL    HW237141   6.289   8.807   5.348 -0.0354 -0.2821 -1.0519
11737SOL     OW37142   2.909   0.203   8.765 -0.3535  0.9890  0.0020
11737SOL    HW137143   2.898   0.252   8.847  1.2438 -0.6046  1.2504
11737SOL    HW237144   2.999   0.172   8.767 -1.2981 -2.1851 -0.5448
11738SOL     OW37145   3.898   4.028   4.096 -0.1808 -0.2462  0.3110
11738SOL    HW137146   3.975   4.080   4.119  0.2501 -0.3727 -0.7649
11738SOL    HW237147   3.930   3.967   4.029 -1.5077  0.6353 -1.2099
11739SOL     OW37148   5.244   6.257   0.396 -0.3329 -0.1032  0.5002
11739SOL    HW137149   5.211   6.171   0.370  1.0478 -0.1012 -1.4915
11739SOL    HW237150   5.319   6.238   0.452 -0.0418 -0.2163  0.0786
11740SOL     OW37151   5.315   0.744   6.846  0.5339 -0.3764  0.5568
11740SOL    HW137152   5.275   0.814   6.897 -0.4824 -0.4406 -0.1207
11740SOL    HW237153   5.385   0.786   6.797 -0.1175  0.1920  0.0983
11741SOL     OW37154   8.085   6.875   8.168 -0.4056 -0.5088  0.1940
11741SOL    HW137155   8.045   6.788   8.164 -3.5080  0.8396 -0.8748
11741SOL    HW237156   8.057   6.911   8.253  2.0924 -0.9614  1.3310
11742SOL     OW37157   0.815   2.746   1.865 -0.0068  0.0208 -0.2596
11742SOL    HW137158   0.744   2.785   1.915 -0.6729 -0.6034 -0.7122
11742SOL    HW237159   0.793   2.653   1.859  1.1288 -0.2937  0.0815
11743SOL     OW37160   0.967   4.004   6.577 -0.2611  0.1961 -0.0998
11743SOL    HW137161   0.991   4.077   6.520  2.2297  0.8407  1.6166
11743SOL    HW237162   0.961   3.928   6.518 -2.1260  1.5623 -1.7987
11744SOL     OW37163   4.960   0.990   1.903 -0.1486  0.4061 -0.5828
11744SOL    HW137164   4.911   0.945   1.973 -1.2366  1.4660 -0.6339
11744SOL    HW237165   5.013   1.055   1.950  0.3065  0.0786 -0.6329
11745SOL     OW37166   8.047   5.867   7.949 -0.0716 -0.1314  0.3116
11745SOL    HW137167   8.141   5.873   7.932  0.0240 -0.0990  0.8420
11745SOL    HW237168   8.013   5.954   7.928 -0.3246 -0.7043 -1.8900
11746SOL     OW37169   5.851   3.772   2.772 -0.7776  0.1193  0.4055
11746SOL    HW137170   5.841   3.814   2.686 -0.8144 -1.8101 -0.5880
11746SOL    HW237171   5.939   3.733   2.769 -0.8429 -0.0941  1.1929
11747SOL     OW37172   5.241   5.238   2.279  0.0812  0.3801  0.0961
11747SOL    HW137173   5.223   5.182   2.204  0.6433 -0.4893  0.5963
11747SOL    HW237174   5.200   5.194   2.353  2.0392 -0.3575  0.8143
11748SOL     OW37175   0.134   8.814   1.102 -0.3778 -0.1449 -0.8592
11748SOL    HW137176   0.116   8.805   1.008  0.4139  0.4948 -1.0782
11748SOL    HW237177   0.227   8.835   1.107 -0.7828  1.5655 -0.0243
11749SOL     OW37178   0.920   4.572   8.620 -0.2693  0.3095  0.2753
11749SOL    HW137179   0.958   4.546   8.536 -0.0955 -1.6500  0.9290
11749SOL    HW237180   0.993   4.611   8.668  0.6057 -1.9492  0.8929
11750SOL     OW37181   2.193   4.213   5.788 -0.1437  0.0541 -0.9068
11750SOL    HW137182   2.242   4.237   5.867 -0.1361  2.3211 -1.5486
11750SOL    HW237183   2.135   4.286   5.772 -1.2080 -1.0145 -2.2097
11751SOL     OW37184   8.434   7.603   2.924 -0.3949  0.3354 -0.0439
11751SOL    HW137185   8.350   7.606   2.968 -0.3953 -2.2176  0.2958
11751SOL    HW237186   8.477   7.686   2.947 -2.2065  1.0309  0.9790
11752SOL     OW37187   5.357   7.293   2.684 -0.3932 -0.4288  0.7586
11752SOL    HW137188   5.350   7.308   2.779  1.6779  0.9198  0.7506
11752SOL    HW237189   5.350   7.199   2.674  3.2487 -1.0675  2.7276
11753SOL     OW37190   8.634   4.955   1.726 -0.0845 -0.3181 -0.0895
11753SOL    HW137191   8.692   4.978   1.798 -1.5585  0.7736  0.7884
11753SOL    HW237192   8.624   4.860   1.734  1.2520 -0.4809 -0.0431
11754SOL     OW37193   3.654   0.706   2.603 -0.5924  0.1299  0.0432
11754SOL    HW137194   3.723   0.772   2.613  0.0588 -0.3447 -1.0170
11754SOL    HW237195   3.702   0.623   2.602 -1.0599 -0.1572 -1.6249
11755SOL     OW37196   6.851   6.245   0.490 -0.1377  0.0106  0.4848
11755SOL    HW137197   6.947   6.252   0.493 -0.1140  0.0178 -0.1639
11755SOL    HW237198   6.822   6.292   0.568  0.4227 -0.8606  1.2514
11756SOL     OW37199   6.864   6.393   0.741  0.4415  0.5746 -0.4895
11756SOL    HW137200   6.866   6.433   0.828  0.7000 -0.9907  0.2538
11756SOL    HW237201   6.930   6.324   0.744  1.7896  1.6773 -2.5548
11757SOL     OW37202   5.165   7.388   3.723  0.6859  0.0499  0.7936
11757SOL    HW137203   5.190   7.306   3.680  0.6366 -0.8566  2.4277
11757SOL    HW237204   5.092   7.364   3.780 -1.8233  1.9657 -1.3619
11758SOL     OW37205   4.293   7.418   1.607  0.0120 -0.0916  0.0378
11758SOL    HW137206   4.249   7.432   1.523  1.4418  0.2367 -0.6923
11758SOL    HW237207   4.309   7.324   1.611 -1.4083 -0.3411  0.6853
11759SOL     OW37208   5.450   8.012   0.875  0.8018  0.2252  0.4495
11759SOL    HW137209   5.420   7.942   0.934 -0.6427  1.4467  1.2543
11759SOL    HW237210   5.421   8.092   0.918  1.1160  1.2436 -1.1790
11760SOL     OW37211   8.667   4.066   1.731  0.3741  0.2852  0.1538
11760SOL    HW137212   8.743   4.105   1.687  0.9876  0.0779  1.0119
11760SOL    HW237213   8.703   4.025   1.810 -0.6366  0.2487  0.6126
11761SOL     OW37214   3.609   0.129   2.835  0.0091  0.1328 -0.2569
11761SOL    HW137215   3.582   0.042   2.864  0.3491 -0.6090 -2.0534
11761SOL    HW237216   3.548   0.189   2.878 -0.3162 -0.9924  0.8938
11762SOL     OW37217   4.950   8.641   4.746  0.5066  0.3155  0.0481
11762SOL    HW137218   4.885   8.678   4.806 -1.0752 -0.9588 -0.8189
11762SOL    HW237219   4.905   8.569   4.703  2.4151 -0.4178 -0.8292
11763SOL     OW37220   5.244   4.313   0.014  0.4964 -0.5402 -0.3797
11763SOL    HW137221   5.182   4.288   0.082  0.7915 -2.3058 -0.7018
11763SOL    HW237222   5.289   4.390   0.049 -0.7287 -0.2122  0.5376
11764SOL     OW37223   1.942   5.653   6.584 -0.1612 -0.5100  0.0335
11764SOL    HW137224   1.873   5.676   6.522 -0.7921 -0.8920  0.5782
11764SOL    HW237225   1.961   5.735   6.630 -0.8044 -0.5599  0.4068
11765SOL     OW37226   7.544   1.441   1.209  1.0038  0.4582 -0.4952
11765SOL    HW137227   7.457   1.419   1.176  1.1732  0.1870 -0.7693
11765SOL    HW237228   7.547   1.402   1.296 -0.2600  3.0470  0.8070
11766SOL     OW37229   5.564   1.267   8.804 -0.4206 -0.1262 -0.4986
11766SOL    HW137230   5.586   1.357   8.826 -1.3827 -0.0691  0.2510
11766SOL    HW237231   5.607   1.252   8.720  0.1700  0.8601 -0.3847
11767SOL     OW37232   4.852   3.266   6.683 -0.1591 -0.2094 -0.0619
11767SOL    HW137233   4.772   3.296   6.639 -0.4184  2.1008  1.8008
11767SOL    HW237234   4.858   3.320   6.761  2.7984 -0.9325  0.3129
11768SOL     OW37235   4.739   2.811   4.994 -0.4623 -0.4450  0.6630
11768SOL    HW137236   4.762   2.904   4.989  0.5524 -0.6880  0.6714
11768SOL    HW237237   4.771   2.783   5.080 -0.4630 -0.8820  0.5213
11769SOL     OW37238   8.687   4.625   8.839  0.2316 -0.0097 -0.2974
11769SOL    HW137239   8.730   4.634   8.754 -0.4697 -0.1218 -0.6698
11769SOL    HW237240   8.715   4.703   8.888  0.7854 -0.0379 -0.5590
11770SOL     OW37241   5.383   4.513   3.265 -0.8246  0.0895 -0.1742
11770SOL    HW137242   5.340   4.569   3.200 -1.5748 -0.4693 -0.1838
11770SOL    HW237243   5.412   4.437   3.215  1.1713  0.9306 -0.3654
11771SOL     OW37244   5.193   6.992   5.491 -0.0926  0.5087  0.4824
11771SOL    HW137245   5.270   6.971   5.545  0.7646 -1.2704 -1.2829
11771SOL    HW237246   5.225   7.057   5.429 -0.0998  0.0128 -0.0424
11772SOL     OW37247   5.483   6.858   3.626  0.3502 -0.3552  0.0924
11772SOL    HW137248   5.427   6.815   3.691  0.5771  0.1593  0.6393
11772SOL    HW237249   5.510   6.940   3.668  0.5955 -0.0670 -0.6086
11773SOL     OW37250   6.233   3.102   3.451  0.1367  0.4566 -0.3087
11773SOL    HW137251   6.157   3.159   3.439 -1.6362 -1.9897 -1.5643
11773SOL    HW237252   6.256   3.112   3.543  0.0616  3.2671 -0.5037
11774SOL     OW37253   2.247   1.180   5.340  0.1182  0.5473 -0.6321
11774SOL    HW137254   2.202   1.097   5.353 -0.7672  1.4511  2.9550
11774SOL    HW237255   2.202   1.220   5.266 -1.9650 -0.5414 -0.0098
11775SOL     OW37256   0.139   2.390   6.335  0.2873  0.8629 -0.2268
11775SOL    HW137257   0.220   2.368   6.289  0.1709 -1.0799  0.4202
11775SOL    HW237258   0.168   2.446   6.408  0.7387  2.0604 -1.2936
11776SOL     OW37259   2.120   4.590   0.011 -0.0621  0.6706 -0.0638
11776SOL    HW137260   2.188   4.536  -0.029 -0.8331 -1.3635  1.2470
11776SOL    HW237261   2.154   4.613   0.097 -0.0400  1.7406 -0.3400
11777SOL     OW37262   4.796   7.411   7.514 -0.3933  0.3811  0.0756
11777SOL    HW137263   4.735   7.372   7.452 -1.3383 -0.5354  1.5173
11777SOL    HW237264   4.858   7.341   7.535 -1.2893  0.0095  1.6498
11778SOL     OW37265   3.317   1.647   7.115  0.3722  0.1444 -0.1730
11778SOL    HW137266   3.372   1.595   7.056  0.8496  0.0083  0.3788
11778SOL    HW237267   3.248   1.682   7.059  1.8556  1.5482 -1.2026
11779SOL     OW37268   7.257   5.427   1.790 -0.2670 -0.0788 -0.0484
11779SOL    HW137269   7.164   5.435   1.773 -0.1068 -0.3178 -1.1221
11779SOL    HW237270   7.266   5.343   1.835 -0.6700  0.4233  0.9969
11780SOL     OW37271   5.859   3.919   4.994 -0.6177  0.3518  0.5428
11780SOL    HW137272   5.792   3.869   4.947 -0.9855  2.6384 -1.5919
11780SOL    HW237273   5.928   3.934   4.930  0.7029  0.3794  1.9082
11781SOL     OW37274   8.737   3.980   1.367  0.0805  0.6211 -0.3082
11781SOL    HW137275   8.682   4.058   1.372  0.1037  0.6845 -0.9029
11781SOL    HW237276   8.826   4.015   1.356  0.0150  0.5166 -1.2625
11782SOL     OW37277   4.536   7.986   0.969 -0.0643 -0.1359 -0.6933
11782SOL    HW137278   4.608   7.930   0.997 -0.2637 -0.8757 -1.6170
11782SOL    HW237279   4.578   8.060   0.926  0.1794  0.0972 -0.0575
11783SOL     OW37280   3.589   4.304   7.124 -0.2431 -0.0648  0.3789
11783SOL    HW137281   3.530   4.266   7.058 -1.3295 -0.4556  1.5474
11783SOL    HW237282   3.587   4.243   7.197 -0.4819  1.2390  1.5138
11784SOL     OW37283   3.523   4.282   4.208  0.4229  0.0125 -0.1720
11784SOL    HW137284   3.481   4.280   4.294  0.8809 -0.9687  0.0325
11784SOL    HW237285   3.485   4.359   4.166 -0.6965 -0.1712  0.4538
11785SOL     OW37286   0.876   5.949   2.963  0.6433 -0.5054 -0.2557
11785SOL    HW137287   0.823   5.880   2.924  0.4943 -0.3955 -0.2439
11785SOL    HW237288   0.829   5.974   3.043  1.5967 -1.6462  0.7061
11786SOL     OW37289   6.362   3.580   7.743  0.1999  0.3869 -0.0586
11786SOL    HW137290   6.302   3.616   7.678  0.6889  1.5540  0.1042
11786SOL    HW237291   6.435   3.547   7.692 -0.3348 -0.5696 -0.2231
11787SOL     OW37292   4.487   4.006   3.835 -0.2576  0.3858  0.0895
11787SOL    HW137293   4.455   4.078   3.890  0.3107 -1.2342  2.7399
11787SOL    HW237294   4.578   4.028   3.817 -0.5657  1.1376 -0.5920
11788SOL     OW37295   6.517   1.631   1.800  0.1162  0.1319  0.3486
11788SOL    HW137296   6.461   1.626   1.877  0.4525  0.0175  0.5919
11788SOL    HW237297   6.581   1.560   1.813  0.4090  0.3595  0.1579
11789SOL     OW37298   4.418   6.253   0.959  0.5075  0.2508  0.3759
11789SOL    HW137299   4.387   6.331   1.005  1.6663  0.4142  0.9177
11789SOL    HW237300   4.455   6.287   0.877  1.1895  0.2941  0.7006
11790SOL     OW37301   4.619   2.767   2.292  0.2702 -0.7797 -0.0396
11790SOL    HW137302   4.526   2.791   2.288  0.1774 -1.1809 -0.3468
11790SOL    HW237303   4.631   2.707   2.219  1.1890  0.6416 -1.1214
11791SOL     OW37304   6.542   2.110   1.595  0.1313  0.5715 -0.3505
11791SOL    HW137305   6.509   2.043   1.655  1.7892  1.1246  1.2599
11791SOL    HW237306   6.463   2.151   1.559 -0.9111 -0.4582  0.6751
11792SOL     OW37307   7.348   4.890   1.413 -0.4531 -0.5236 -0.1643
11792SOL    HW137308   7.443   4.894   1.402 -0.6631 -0.1372 -2.0679
11792SOL    HW237309   7.331   4.943   1.491  0.8062  0.0736 -0.2689
11793SOL     OW37310   8.536   3.467   8.001 -0.4321  0.1053  0.3923
11793SOL    HW137311   8.582   3.385   8.018 -1.8265 -0.9321 -0.6341
11793SOL    HW237312   8.459   3.463   8.058 -1.2166  0.0488 -0.6523
11794SOL     OW37313   3.987   2.623   8.460  0.0358 -0.0799  0.1416
11794SOL    HW137314   3.987   2.562   8.386  0.0384  0.3302 -0.1954
11794SOL    HW237315   3.995   2.709   8.420 -3.3503  0.4734  0.3383
11795SOL     OW37316   5.316   5.439   0.922 -0.3798  0.4198  0.4906
11795SOL    HW137317   5.281   5.351   0.938  1.5552 -0.6363 -0.6020
11795SOL    HW237318   5.398   5.441   0.972  0.6462  0.7908 -1.1281
11796SOL     OW37319   7.930   4.430   8.578  0.3570  0.5633 -0.0738
11796SOL    HW137320   7.954   4.384   8.659 -1.6521  0.9269  0.7984
11796SOL    HW237321   7.881   4.506   8.608 -0.2386  0.8285 -1.6422
11797SOL     OW37322   1.544   6.813   8.611  0.5212 -0.1159  0.5031
11797SOL    HW137323   1.487   6.787   8.540  1.0126  0.6676 -0.2027
11797SOL    HW237324   1.571   6.903   8.589  1.8326 -0.3758  0.9192
11798SOL     OW37325   4.994   8.144   8.631 -0.3147 -0.2276 -0.2058
11798SOL    HW137326   4.935   8.187   8.567  1.1475  1.4506 -0.5055
11798SOL    HW237327   5.070   8.119   8.580 -0.6391 -2.2467  0.2191
11799SOL     OW37328   8.486   3.176   3.171 -0.9974 -0.1414 -0.4650
11799SOL    HW137329   8.437   3.160   3.251  2.7788  0.1838  2.1754
11799SOL    HW237330   8.520   3.265   3.182 -0.6056  0.0175 -2.6219
11800SOL     OW37331   4.329   6.296   0.610 -0.2072 -0.5072  0.0421
11800SOL    HW137332   4.262   6.277   0.676 -0.0966  1.0763  0.6466
11800SOL    HW237333   4.286   6.355   0.548  0.2642 -0.4437 -0.2332
11801SOL     OW37334   3.625   6.194   1.561 -0.1706 -0.5267 -0.2623
11801SOL    HW137335   3.583   6.144   1.631 -0.4777  0.3617  0.1979
11801SOL    HW237336   3.699   6.238   1.603 -1.6869  1.8540  0.0896
11802SOL     OW37337   1.501   5.980   5.882 -0.4991  0.2595 -0.2133
11802SOL    HW137338   1.539   5.922   5.948  0.3775  0.8128 -0.2072
11802SOL    HW237339   1.505   6.067   5.922 -0.0961  0.5778 -0.9350
11803SOL     OW37340   7.176   0.082   2.908  0.2003  0.2037 -0.2453
11803SOL    HW137341   7.217  -0.004   2.917 -0.5235 -0.0089  1.3419
11803SOL    HW237342   7.159   0.110   2.998  0.0852  1.8570 -0.7474
11804SOL     OW37343   5.789   5.805   1.940  0.1310  0.2403  0.0207
11804SOL    HW137344   5.706   5.764   1.967  0.4941  0.5427  1.7454
11804SOL    HW237345   5.833   5.739   1.887 -0.4919 -0.5552  0.4729
11805SOL     OW37346   4.377   6.904   7.834  0.5450 -0.1417 -0.4778
11805SOL    HW137347   4.310   6.836   7.828 -1.7331  1.9454 -0.2226
11805SOL    HW237348   4.406   6.901   7.926  1.7199 -1.7862 -0.8504
11806SOL     OW37349   3.557   6.224   0.693 -0.6420 -0.3954 -0.0314
11806SOL    HW137350   3.463   6.231   0.709 -0.6247  0.4901 -0.2852
11806SOL    HW237351   3.570   6.264   0.607  0.1199  0.5105  0.4861
11807SOL     OW37352   4.201   6.711   1.331 -0.0836  0.0693 -0.6620
11807SOL    HW137353   4.195   6.800   1.295  1.5641  0.9016  0.9662
11807SOL    HW237354   4.129   6.705   1.393  0.0827  0.4715 -0.4212
11808SOL     OW37355   3.631   1.643   2.024 -0.1724  0.1951  0.1590
11808SOL    HW137356   3.579   1.681   2.094 -1.2133 -0.1744 -0.3828
11808SOL    HW237357   3.568   1.592   1.973  0.3132  1.3968 -1.7385
11809SOL     OW37358   3.801   6.889   5.576  0.8182 -0.5290  0.4307
11809SOL    HW137359   3.823   6.845   5.658 -0.0714  0.1518  1.0578
11809SOL    HW237360   3.870   6.955   5.566  2.6961 -2.5621 -0.9922
11810SOL     OW37361   4.525   1.955   6.137 -0.3148  0.4887  0.0661
11810SOL    HW137362   4.571   2.038   6.125 -1.1289  0.6998 -1.9462
11810SOL    HW237363   4.560   1.920   6.219  1.2606  2.0138  0.1031
11811SOL     OW37364   0.169   0.108   1.586 -0.0485 -0.1576  0.2651
11811SOL    HW137365   0.218   0.042   1.537 -0.5316 -0.0590 -0.3625
11811SOL    HW237366   0.170   0.076   1.676  1.5709  0.0908  0.3664
11812SOL     OW37367   1.379   6.477   2.575 -0.2902 -0.7155  0.1164
11812SOL    HW137368   1.404   6.548   2.517 -1.0632 -0.9584 -0.5252
11812SOL    HW237369   1.433   6.403   2.546  0.3055 -0.4738  0.5968
11813SOL     OW37370   1.926   2.738   2.789  0.1795 -0.7464 -0.7439
11813SOL    HW137371   1.956   2.651   2.762 -0.5004 -1.7094  1.3109
11813SOL    HW237372   1.869   2.767   2.719 -0.2907 -2.3901 -1.0904
11814SOL     OW37373   3.226   6.809   5.327 -0.3260  0.5281  0.1671
11814SOL    HW137374   3.303   6.865   5.334  0.2899 -0.2283 -0.3888
11814SOL    HW237375   3.243   6.737   5.388 -0.6720  0.4450  0.1683
11815SOL     OW37376   6.874   7.322   1.822 -0.2675 -0.1721 -0.2974
11815SOL    HW137377   6.951   7.376   1.841 -0.8941  0.8338 -0.5194
11815SOL    HW237378   6.872   7.257   1.892  0.4323  0.1797  0.0607
11816SOL     OW37379   5.163   4.289   6.070  0.0410  0.4571 -0.2644
11816SOL    HW137380   5.184   4.200   6.040 -0.9776  0.0070  0.3030
11816SOL    HW237381   5.192   4.346   5.998 -0.0076 -0.3922 -0.9780
11817SOL     OW37382   7.128   0.715   8.270 -0.6524 -0.2189  0.4924
11817SOL    HW137383   7.065   0.725   8.198 -0.5107 -1.9360  0.0906
11817SOL    HW237384   7.214   0.716   8.227 -0.4038  1.4527  0.9665
11818SOL     OW37385   5.317   4.837   6.603  0.3010  0.2624 -0.3452
11818SOL    HW137386   5.259   4.816   6.676 -0.0821  1.5605 -0.2606
11818SOL    HW237387   5.262   4.884   6.541  1.0158  0.6142 -0.7278
11819SOL     OW37388   1.169   0.687   7.124 -0.2946 -0.0272  0.1939
11819SOL    HW137389   1.224   0.616   7.157  0.0442  0.4337  0.6396
11819SOL    HW237390   1.080   0.656   7.136 -0.1713 -0.0074  1.2526
11820SOL     OW37391   7.247   1.848   2.550 -0.0306 -0.6124  0.1250
11820SOL    HW137392   7.153   1.836   2.537 -0.2483  0.4853  0.6455
11820SOL    HW237393   7.287   1.788   2.487 -1.0789 -0.3961 -0.7820
11821SOL     OW37394   7.754   5.402   1.778 -0.0286 -0.2529 -0.1719
11821SOL    HW137395   7.717   5.401   1.866  2.2914 -1.2139  0.8658
11821SOL    HW237396   7.713   5.329   1.733 -0.2099 -0.6142  0.5773
11822SOL     OW37397   7.240   0.857   3.065 -0.4191 -0.4129  0.2495
11822SOL    HW137398   7.323   0.899   3.040 -3.0957  4.5164 -1.6634
11822SOL    HW237399   7.207   0.819   2.984 -0.0141 -2.6667  1.0763
11823SOL     OW37400   6.190   1.872   0.305 -0.3726 -0.4723  0.0189
11823SOL    HW137401   6.207   1.890   0.397  1.8489  0.0237 -0.4395
11823SOL    HW237402   6.264   1.911   0.259 -2.1275  0.5310 -2.1196
11824SOL     OW37403   3.383   8.643   0.585  0.3847  0.0036 -0.2193
11824SOL    HW137404   3.470   8.611   0.609  1.6456  2.5311 -1.0846
11824SOL    HW237405   3.370   8.614   0.495  0.0903 -0.7718  0.0616
11825SOL     OW37406   2.427   3.187   5.297  0.2323 -0.2890  0.0312
11825SOL    HW137407   2.440   3.157   5.387 -0.9840 -0.8153  0.0526
11825SOL    HW237408   2.509   3.231   5.274  0.0827  1.0944  1.8781
11826SOL     OW37409   2.947   8.862   8.141  0.0641 -0.7361  0.1285
11826SOL    HW137410   3.036   8.839   8.114 -0.7178 -1.9131 -1.6015
11826SOL    HW237411   2.957   8.945   8.188  2.0392 -0.7450 -0.1810
11827SOL     OW37412   0.906   6.292   7.706 -0.0401 -0.4504  0.4725
11827SOL    HW137413   0.813   6.305   7.684  0.7800  1.1793 -2.6121
11827SOL    HW237414   0.926   6.204   7.677 -0.3681 -0.4237  0.1691
11828SOL     OW37415   8.549   2.057   6.272 -0.0913 -0.6794  0.4945
11828SOL    HW137416   8.520   2.124   6.210  1.3160 -0.8924 -0.4496
11828SOL    HW237417   8.512   2.084   6.356 -0.9752  0.3240 -0.1898
11829SOL     OW37418   8.391   4.558   8.337  0.2092 -0.3991  0.3331
11829SOL    HW137419   8.454   4.490   8.359  0.2477 -0.6042 -0.3694
11829SOL    HW237420   8.410   4.579   8.245 -3.5374 -3.6030 -1.4683
11830SOL     OW37421   2.798   8.312   8.090  0.8443 -0.2862  0.0790
11830SOL    HW137422   2.741   8.382   8.120  0.4878 -0.5843  0.0966
11830SOL    HW237423   2.862   8.356   8.033  0.4920  0.0184 -0.0832
11831SOL     OW37424   6.186   7.929   8.336 -0.1943  0.4870  0.0461
11831SOL    HW137425   6.105   7.978   8.320 -0.7003 -0.6713 -1.0747
11831SOL    HW237426   6.253   7.978   8.288  0.1097  2.2638  2.1376
11832SOL     OW37427   6.083   4.198   3.251  0.3999 -0.4315  0.7000
11832SOL    HW137428   6.162   4.188   3.303 -0.3088  0.6683  2.0500
11832SOL    HW237429   6.085   4.288   3.219 -0.2217 -0.4357  0.6198
11833SOL     OW37430   3.524   6.062   3.516 -0.2501  0.6607  0.2437
11833SOL    HW137431   3.555   6.026   3.600  0.2572  0.2336 -0.1188
11833SOL    HW237432   3.603   6.065   3.461 -0.4353  1.6170  0.0133
11834SOL     OW37433   8.586   7.375   3.623  0.4592 -0.4298 -0.2811
11834SOL    HW137434   8.561   7.466   3.605 -0.3341  0.1117  2.8651
11834SOL    HW237435   8.504   7.326   3.614  0.4471 -0.4594 -0.0267
11835SOL     OW37436   2.956   8.248   1.583 -0.2236 -0.1315  0.3372
11835SOL    HW137437   3.048   8.236   1.607 -0.3716  0.5569  1.3085
11835SOL    HW237438   2.953   8.232   1.489  1.2350  1.6312 -0.0624
11836SOL     OW37439   5.435   2.150   8.133 -0.1523 -0.4498 -0.3114
11836SOL    HW137440   5.483   2.072   8.160  0.6796 -0.0001 -0.4806
11836SOL    HW237441   5.482   2.223   8.174 -0.6818 -0.0038 -0.4887
11837SOL     OW37442   7.920   2.539   0.203 -0.2062 -0.1205  0.3434
11837SOL    HW137443   8.011   2.509   0.210 -0.1183 -0.1539 -0.8192
11837SOL    HW237444   7.923   2.631   0.229  0.2488  0.0122 -0.1642
11838SOL     OW37445   1.285   1.650   5.244  0.7052 -0.2303 -0.1020
11838SOL    HW137446   1.266   1.578   5.184  0.5760  0.1254 -0.4909
11838SOL    HW237447   1.201   1.669   5.286  0.5375  0.2646 -0.6381
11839SOL     OW37448   1.126   4.290   3.947 -0.3150 -0.0557  0.0761
11839SOL    HW137449   1.088   4.289   3.859 -0.4155  0.6743  0.0988
11839SOL    HW237450   1.085   4.366   3.989 -0.0909 -0.2640  0.6713
11840SOL     OW37451   5.600   4.184   0.494  0.0688 -0.1679  0.6862
11840SOL    HW137452   5.635   4.109   0.446 -0.7607  0.4363 -0.9648
11840SOL    HW237453   5.537   4.223   0.434  0.2544  1.6834  1.6166
11841SOL     OW37454   2.023   4.238   1.453 -0.4978 -0.0137  0.1937
11841SOL    HW137455   2.117   4.242   1.467 -0.7099  1.3754  1.5514
11841SOL    HW237456   2.002   4.145   1.455  0.8670 -0.3471 -0.4215
11842SOL     OW37457   3.193   3.751   8.675 -0.2207  0.3781  0.0671
11842SOL    HW137458   3.246   3.726   8.751 -0.0315 -1.1082 -0.5173
11842SOL    HW237459   3.195   3.674   8.618 -2.1618  0.6507 -0.4421
11843SOL     OW37460   3.571   3.075   2.739 -0.6444 -0.2183  0.0364
11843SOL    HW137461   3.496   3.133   2.747 -0.1942  0.4628 -0.5811
11843SOL    HW237462   3.646   3.126   2.770 -0.1119 -0.1595 -1.2640
11844SOL     OW37463   5.857   8.830   8.234 -0.7328  0.5344 -0.1031
11844SOL    HW137464   5.941   8.870   8.213 -0.7882  1.4171  1.2453
11844SOL    HW237465   5.852   8.754   8.177  0.7565  0.7371 -0.5498
11845SOL     OW37466   6.554   4.160   8.697 -0.3061  0.7073 -0.0056
11845SOL    HW137467   6.537   4.086   8.640  1.3747  1.0302 -0.9867
11845SOL    HW237468   6.581   4.121   8.780 -0.2677  0.2191 -0.2458
11846SOL     OW37469   4.499   2.725   2.958 -0.2691  0.5705  0.1247
11846SOL    HW137470   4.562   2.727   3.030 -1.2296 -2.6911  1.2404
11846SOL    HW237471   4.422   2.771   2.993 -1.2337 -2.1221  1.9099
11847SOL     OW37472   7.150   4.016   1.871 -0.3479 -0.1374  0.8694
11847SOL    HW137473   7.124   4.102   1.903 -0.1169  0.1638  0.2633
11847SOL    HW237474   7.074   3.960   1.889  0.0277 -0.1413  2.5187
11848SOL     OW37475   5.733   4.844   7.038  0.0032  0.6020 -0.1628
11848SOL    HW137476   5.698   4.787   6.970 -0.6880  0.9013 -0.0659
11848SOL    HW237477   5.808   4.887   6.997  1.1395 -1.0899  0.0706
11849SOL     OW37478   3.705   8.066   6.462 -0.4839  1.0982  0.0849
11849SOL    HW137479   3.647   8.091   6.390  0.4823  3.2677 -0.0330
11849SOL    HW237480   3.786   8.039   6.419 -0.3489  1.1038  0.3323
11850SOL     OW37481   3.251   7.974   7.452  0.3330 -0.0792  0.7469
11850SOL    HW137482   3.230   7.951   7.362 -0.4483  0.0354  0.8941
11850SOL    HW237483   3.340   8.009   7.448  1.0579 -1.8628  0.3228
11851SOL     OW37484   3.918   1.568   3.603  0.1805 -0.0935  0.0705
11851SOL    HW137485   3.842   1.539   3.554  0.2308  0.1427 -0.1502
11851SOL    HW237486   3.950   1.644   3.555 -0.3164  0.7210  0.9833
11852SOL     OW37487   3.310   4.885   3.975  0.7088 -0.3136  0.3201
11852SOL    HW137488   3.363   4.857   4.050  1.0119 -0.0409  0.2118
11852SOL    HW237489   3.244   4.817   3.965 -0.5134  0.5629  2.0101
11853SOL     OW37490   8.361   0.677   4.626 -0.6118 -0.0906  0.0686
11853SOL    HW137491   8.298   0.688   4.555 -0.4678  2.1131  0.2353
11853SOL    HW237492   8.440   0.721   4.596 -0.3341  0.3181  1.3395
11854SOL     OW37493   5.259   5.470   7.481  0.3300 -0.4599  0.2020
11854SOL    HW137494   5.242   5.561   7.457 -0.5323 -0.2299  1.5654
11854SOL    HW237495   5.205   5.419   7.420 -0.8607  0.0471  0.7949
11855SOL     OW37496   2.865   0.517   8.870  0.3711 -0.0554  0.3468
11855SOL    HW137497   2.905   0.584   8.925  0.4658 -0.1384  0.3808
11855SOL    HW237498   2.772   0.538   8.869  0.1998 -0.6952  1.4432
11856SOL     OW37499   8.205   6.772   6.805  0.0880  0.4298 -1.0375
11856SOL    HW137500   8.126   6.724   6.780 -1.2312  1.1977  1.3691
11856SOL    HW237501   8.276   6.708   6.795 -1.4828 -1.8320  1.2187
11857SOL     OW37502   2.160   4.750   3.084 -1.0743  0.3075 -0.1667
11857SOL    HW137503   2.121   4.672   3.045  1.9241 -1.2534 -0.3717
11857SOL    HW237504   2.253   4.743   3.061 -0.5445  3.5159  0.5731
11858SOL     OW37505   7.903   7.568   7.566 -0.1067 -0.1368  0.0569
11858SOL    HW137506   7.934   7.630   7.633  1.0960 -1.3225  0.6559
11858SOL    HW237507   7.822   7.606   7.534  0.0863  1.2513  1.1042
11859SOL     OW37508   1.883   3.566   3.747 -0.5402  0.1695 -0.0573
11859SOL    HW137509   1.909   3.647   3.792  1.2534  0.1724 -0.9615
11859SOL    HW237510   1.901   3.497   3.810  0.2087  0.3151 -0.0933
11860SOL     OW37511   8.850   4.033   8.417 -0.1275 -0.5160  0.4633
11860SOL    HW137512   8.870   4.127   8.421 -1.5123 -0.0921 -1.3093
11860SOL    HW237513   8.850   4.005   8.508  1.5192  0.9240  0.9717
11861SOL     OW37514   8.283   7.710   5.165 -0.2726  0.1843 -0.2436
11861SOL    HW137515   8.255   7.691   5.075 -0.7543  0.8129 -0.2370
11861SOL    HW237516   8.287   7.805   5.169  0.0529  0.1502  0.3151
11862SOL     OW37517   2.253   6.676   1.744 -0.7897  0.3924  0.4702
11862SOL    HW137518   2.212   6.760   1.723 -1.6276  0.7128  3.0240
11862SOL    HW237519   2.309   6.695   1.819 -0.5635 -1.2251  0.7456
11863SOL     OW37520   6.826   5.743   7.028 -0.1132  0.0530 -0.7081
11863SOL    HW137521   6.826   5.820   7.084  0.9256 -1.1559  1.0465
11863SOL    HW237522   6.742   5.746   6.983 -0.8173  1.2947  0.6046
11864SOL     OW37523   8.415   3.533   4.331 -0.3089 -0.2717  0.8285
11864SOL    HW137524   8.509   3.542   4.344 -0.4303 -0.6173  2.0059
11864SOL    HW237525   8.405   3.523   4.236  0.7942  0.2089  0.6440
11865SOL     OW37526   8.758   2.926   5.489 -0.0524 -0.0159  0.1479
11865SOL    HW137527   8.715   2.949   5.571 -0.0388 -0.4958  0.2922
11865SOL    HW237528   8.738   2.833   5.476  0.7206 -0.1828  0.0846
11866SOL     OW37529   3.086   3.548   0.403  0.3913 -0.6480  0.3297
11866SOL    HW137530   3.028   3.511   0.469  0.6653 -2.1857 -0.2430
11866SOL    HW237531   3.030   3.565   0.327  0.4852 -1.1316  0.1465
11867SOL     OW37532   1.611   7.277   0.299 -0.5562 -0.0650 -0.5938
11867SOL    HW137533   1.524   7.243   0.318 -1.3650  1.7138 -0.9364
11867SOL    HW237534   1.595   7.361   0.257  1.3144  1.8314  2.1312
11868SOL     OW37535   0.264   3.325   4.441 -0.3256 -0.5703  0.3707
11868SOL    HW137536   0.281   3.254   4.503  0.3242 -1.5346 -0.8572
11868SOL    HW237537   0.185   3.297   4.395  0.3181 -0.8488 -0.5862
11869SOL     OW37538   1.173   1.334   7.767 -0.0613 -0.4081 -0.5417
11869SOL    HW137539   1.216   1.418   7.788 -2.2857  0.7161 -0.1931
11869SOL    HW237540   1.245   1.272   7.757  1.7346  1.7483 -1.8000
11870SOL     OW37541   2.887   1.165   6.665  0.2244 -0.5561  0.3671
11870SOL    HW137542   2.824   1.102   6.629  0.0422 -0.6267  0.7937
11870SOL    HW237543   2.909   1.222   6.592 -3.0114  1.6934  0.9507
11871SOL     OW37544   4.576   1.005   3.558  0.2712 -0.1836  0.5990
11871SOL    HW137545   4.606   1.006   3.649  0.1505 -1.8626  0.6953
11871SOL    HW237546   4.507   0.939   3.557 -0.3288  0.4429 -0.5455
11872SOL     OW37547   5.917   1.517   7.812  0.1580  0.0843  0.1776
11872SOL    HW137548   5.831   1.478   7.794 -1.0914  0.7995  3.7631
11872SOL    HW237549   5.918   1.597   7.759 -1.4086  0.0651  0.0635
11873SOL     OW37550   7.417   8.597   8.197 -0.1456 -0.1469  0.1122
11873SOL    HW137551   7.404   8.590   8.292  1.5051  0.3582  0.4145
11873SOL    HW237552   7.511   8.614   8.187 -0.7867  3.4150 -1.3899
11874SOL     OW37553   8.813   7.928   7.163 -0.0457  0.3878 -0.0166
11874SOL    HW137554   8.791   7.943   7.255  1.7654  0.7704  0.3915
11874SOL    HW237555   8.862   8.005   7.137  1.0102 -0.5148 -0.7755
11875SOL     OW37556   3.576   5.818   5.303  0.2704 -0.3826  0.2736
11875SOL    HW137557   3.607   5.782   5.386 -1.8409 -1.1020  0.8138
11875SOL    HW237558   3.537   5.902   5.326  2.0148  0.6865 -0.4496
11876SOL     OW37559   2.320   2.208   3.339  0.1399  0.0797  0.2379
11876SOL    HW137560   2.272   2.148   3.396 -0.5903  1.9820  1.7217
11876SOL    HW237561   2.253   2.253   3.288  0.5315  0.8036  0.3436
11877SOL     OW37562   6.050   2.237   4.056  0.2012 -0.1126 -0.0465
11877SOL    HW137563   6.082   2.220   4.145 -0.0457  1.9988  0.4992
11877SOL    HW237564   6.045   2.332   4.051  0.1888 -0.1981 -2.3412
11878SOL     OW37565   0.209   7.587   4.602 -0.2779  0.3776 -0.2665
11878SOL    HW137566   0.303   7.597   4.584 -0.4776  1.2063 -0.8657
11878SOL    HW237567   0.171   7.672   4.582 -1.2762 -0.1628 -0.7380
11879SOL     OW37568   4.770   6.055   4.437 -0.2894  0.2430 -0.1186
11879SOL    HW137569   4.859   6.039   4.406 -0.0645  1.0394  0.0738
11879SOL    HW237570   4.744   6.136   4.394 -0.6481  0.4003  0.3838
11880SOL     OW37571   6.268   2.359   0.618  0.1869 -0.0889  0.1843
11880SOL    HW137572   6.287   2.381   0.709 -0.1138 -0.4796  0.3462
11880SOL    HW237573   6.348   2.381   0.570 -0.4774  2.4859  0.1328
11881SOL     OW37574   2.632   3.047   1.844  0.1461  0.2610  0.2918
11881SOL    HW137575   2.668   2.970   1.889 -0.0722 -0.4681 -0.7418
11881SOL    HW237576   2.591   3.098   1.914 -1.5824 -1.6108  0.7669
11882SOL     OW37577   5.510   6.047   6.436  0.3207  0.3724  0.9989
11882SOL    HW137578   5.469   5.963   6.455  1.2932 -0.1710  0.7421
11882SOL    HW237579   5.471   6.108   6.499 -1.4719  0.0702  0.2487
11883SOL     OW37580   3.406   1.616   3.110  0.1310 -0.1362 -0.0376
11883SOL    HW137581   3.485   1.660   3.080  0.2183 -0.0946  0.2501
11883SOL    HW237582   3.399   1.639   3.202 -1.3106  1.4962 -0.5062
11884SOL     OW37583   2.010   4.078   1.772  0.0130 -0.4320  0.0502
11884SOL    HW137584   1.935   4.054   1.825 -0.7101 -0.0800 -0.7787
11884SOL    HW237585   1.988   4.048   1.684  1.3442 -1.3427  0.0049
11885SOL     OW37586   1.239   7.865   6.885  0.5206 -0.1592 -0.2646
11885SOL    HW137587   1.151   7.851   6.849 -0.2559  1.7143  0.7516
11885SOL    HW237588   1.298   7.831   6.818 -0.9537 -0.6279 -1.3890
11886SOL     OW37589   7.518   4.032   8.261 -0.4416  0.2143 -0.4918
11886SOL    HW137590   7.593   3.972   8.266 -0.6394 -0.1424 -1.5567
11886SOL    HW237591   7.557   4.118   8.272 -0.4117 -0.1266  3.3932
11887SOL     OW37592   5.206   1.652   3.044  0.0158 -0.2324 -0.1730
11887SOL    HW137593   5.122   1.689   3.072 -0.0355  0.1180 -0.7687
11887SOL    HW237594   5.262   1.662   3.121 -0.6355 -0.9717  0.4161
11888SOL     OW37595   6.573   3.559   4.766 -0.1266  0.2876  0.3494
11888SOL    HW137596   6.517   3.514   4.702 -0.6829  0.0373  1.0113
11888SOL    HW237597   6.584   3.496   4.837  2.0228 -0.1663 -0.2890
11889SOL     OW37598   8.121   1.864   5.075 -0.0766 -0.5402 -0.1246
11889SOL    HW137599   8.051   1.800   5.082  0.7964 -1.6802 -1.2541
11889SOL    HW237600   8.077   1.945   5.049 -1.0076 -1.1852 -0.6331
11890SOL     OW37601   5.066   3.610   4.150 -0.2497  0.2534 -0.6150
11890SOL    HW137602   5.019   3.662   4.215 -1.2346 -0.6409 -0.5827
11890SOL    HW237603   5.003   3.596   4.079 -1.5302 -4.0563  1.0028
11891SOL     OW37604   2.920   6.044   5.172 -0.1871  0.2815  0.6880
11891SOL    HW137605   2.979   6.105   5.216  0.0884 -0.0667  0.8005
11891SOL    HW237606   2.832   6.078   5.191 -0.0715  0.1775  1.4440
11892SOL     OW37607   1.644   2.495   8.529  0.0051  0.1825 -0.4541
11892SOL    HW137608   1.732   2.471   8.558  0.5670  0.4379 -1.8953
11892SOL    HW237609   1.586   2.435   8.576  0.9097  0.2233  0.7570
11893SOL     OW37610   5.756   8.644   7.985  0.1226  0.1243 -0.4988
11893SOL    HW137611   5.770   8.564   7.935  1.4084 -0.3481  0.5293
11893SOL    HW237612   5.682   8.624   8.043 -2.0797  1.0377 -2.8275
11894SOL     OW37613   0.294   1.437   2.456 -0.6575 -0.1689  0.5828
11894SOL    HW137614   0.321   1.500   2.522  0.4907  0.8286 -0.7743
11894SOL    HW237615   0.218   1.478   2.414 -0.0809  0.2038 -0.1149
11895SOL     OW37616   5.011   7.056   5.724 -0.2573  0.4270  0.2257
11895SOL    HW137617   4.998   7.019   5.637  0.7292  1.5883 -0.4595
11895SOL    HW237618   5.063   6.991   5.771 -0.1655  0.1067 -0.3122
11896SOL     OW37619   8.552   3.174   2.470 -0.1154  0.3517  0.1647
11896SOL    HW137620   8.477   3.166   2.411  0.2826 -2.6060 -0.0744
11896SOL    HW237621   8.536   3.108   2.538  1.3478  0.9876  1.1679
11897SOL     OW37622   8.468   2.080   2.923  0.5249  0.4110  0.2173
11897SOL    HW137623   8.450   2.046   3.011  0.3353  1.5846  0.6530
11897SOL    HW237624   8.383   2.085   2.881  0.5836  0.1201  0.0597
11898SOL     OW37625   3.734   3.608   1.699  0.1884 -0.2902 -0.1203
11898SOL    HW137626   3.774   3.675   1.754 -0.8589 -0.2212  0.5849
11898SOL    HW237627   3.754   3.525   1.743  0.3360 -0.3355 -0.2694
11899SOL     OW37628   6.399   5.072   6.663  0.2678  0.3312 -0.6622
11899SOL    HW137629   6.411   5.050   6.571  1.9842 -0.5482 -0.2596
11899SOL    HW237630   6.304   5.075   6.675  0.0186 -0.7345 -2.1717
11900SOL     OW37631   2.843   5.087   6.559  0.0236 -0.0190  0.4371
11900SOL    HW137632   2.813   5.024   6.625 -0.7626  0.1150  0.2162
11900SOL    HW237633   2.911   5.137   6.604  0.0181 -0.4203  0.9077
11901SOL     OW37634   7.448   1.004   7.108 -0.4742  0.0419 -0.6889
11901SOL    HW137635   7.419   0.989   7.198 -0.4702 -0.6063 -0.7914
11901SOL    HW237636   7.385   0.954   7.054 -0.7098  0.7370 -1.0680
11902SOL     OW37637   6.265   1.667   2.999  0.3562 -0.2931 -0.0176
11902SOL    HW137638   6.209   1.709   3.065 -1.7152 -2.7068 -0.1064
11902SOL    HW237639   6.337   1.629   3.050 -0.0829 -0.3341  0.5854
11903SOL     OW37640   0.974   4.031   7.268 -0.2140  0.7207  0.0859
11903SOL    HW137641   1.050   4.089   7.264  0.1236  0.3343  0.6596
11903SOL    HW237642   0.981   3.989   7.354 -0.9768  0.5454  0.0685
11904SOL     OW37643   8.731   7.280   8.695 -0.2537  0.7200 -0.1421
11904SOL    HW137644   8.814   7.237   8.715  0.4025  1.6520 -0.7222
11904SOL    HW237645   8.677   7.213   8.655  0.3038  0.1520  0.0506
11905SOL     OW37646   1.775   6.293   0.092  0.3526 -0.0723 -0.1426
11905SOL    HW137647   1.690   6.251   0.088 -0.6740  1.7156  1.2981
11905SOL    HW237648   1.781   6.326   0.182  2.1542  0.6663 -0.4969
11906SOL     OW37649   2.076   2.564   3.389 -0.2184  0.1230 -0.6476
11906SOL    HW137650   2.092   2.657   3.370 -0.6955  0.0420 -1.5079
11906SOL    HW237651   2.066   2.560   3.484  1.2800  0.7160 -0.4467
11907SOL     OW37652   1.128   8.586   2.320  0.1548  0.0695  0.0153
11907SOL    HW137653   1.079   8.628   2.249 -0.3648 -0.0546  0.2998
11907SOL    HW237654   1.219   8.611   2.304 -0.0108  0.3728 -0.4655
11908SOL     OW37655   7.390   4.352   1.865 -0.3468  0.0488 -0.4114
11908SOL    HW137656   7.307   4.401   1.868 -0.1801  0.3124  0.0697
11908SOL    HW237657   7.458   4.419   1.865 -0.1084 -0.1691  0.6176
11909SOL     OW37658   3.026   2.416   5.935  0.0593  0.2246 -0.1100
11909SOL    HW137659   3.033   2.502   5.976  0.0587  0.8750 -1.4146
11909SOL    HW237660   3.111   2.375   5.949  0.0636  0.4344  0.5091
11910SOL     OW37661   0.838   5.241   7.771  0.3724 -0.1820  0.3920
11910SOL    HW137662   0.929   5.234   7.801  0.5268  0.0264 -0.0131
11910SOL    HW237663   0.844   5.293   7.690  0.1765 -2.0779 -0.9164
11911SOL     OW37664   2.091   0.143   1.559 -0.1607 -1.0292  0.6004
11911SOL    HW137665   2.128   0.087   1.627  1.9136  0.9023  1.1832
11911SOL    HW237666   2.023   0.193   1.604 -0.8170 -1.7863  0.4895
11912SOL     OW37667   4.607   6.342   0.612 -0.1769 -0.1874  0.6075
11912SOL    HW137668   4.620   6.397   0.690 -1.4231  1.7192 -0.4415
11912SOL    HW237669   4.512   6.330   0.607 -0.0027 -1.5343  0.1814
11913SOL     OW37670   1.172   8.038   7.825 -0.4115  0.2056 -0.2429
11913SOL    HW137671   1.164   7.943   7.813 -1.6615  0.5451 -2.7454
11913SOL    HW237672   1.098   8.061   7.881 -1.2144 -0.0751 -1.1736
11914SOL     OW37673   8.284   8.820   0.278  0.7158  0.5431  0.0380
11914SOL    HW137674   8.287   8.726   0.300  1.0062  0.4314 -0.4635
11914SOL    HW237675   8.317   8.864   0.356 -0.5300  0.3061  0.7257
11915SOL     OW37676   8.394   3.976   3.308 -0.0281 -0.3754 -0.1192
11915SOL    HW137677   8.483   3.955   3.337  0.0457  1.0157  0.7327
11915SOL    HW237678   8.405   4.020   3.225  0.1839  0.8446  0.5381
11916SOL     OW37679   1.280   8.615   8.744 -0.1638 -0.0244  0.2168
11916SOL    HW137680   1.298   8.642   8.654  1.2931  3.7287  1.4456
11916SOL    HW237681   1.310   8.524   8.748  0.4020 -0.0880 -2.8630
11917SOL     OW37682   5.086   2.292   4.444  0.3051  0.1924  0.2733
11917SOL    HW137683   5.158   2.263   4.499  0.1728 -0.4698  0.1009
11917SOL    HW237684   5.053   2.371   4.487  1.7353  1.0682 -0.1472
11918SOL     OW37685   4.386   4.608   6.832  0.1041  0.1231  0.1006
11918SOL    HW137686   4.409   4.684   6.885 -0.4835  0.3248  0.0713
11918SOL    HW237687   4.354   4.543   6.895 -1.3322  0.6407 -0.0626
11919SOL     OW37688   8.755   1.617   7.613  0.0951  0.3780 -0.5758
11919SOL    HW137689   8.822   1.549   7.617 -0.2934  0.0639  1.4463
11919SOL    HW237690   8.711   1.603   7.529 -0.4615 -2.3781  0.0805
11920SOL     OW37691   5.698   1.498   7.642  0.0996 -0.3869  0.4268
11920SOL    HW137692   5.613   1.504   7.685  0.6556  1.5290  1.3995
11920SOL    HW237693   5.698   1.570   7.579  0.7657 -0.7553 -0.0065
11921SOL     OW37694   0.251   5.240   6.770 -0.0800 -0.2557 -0.1609
11921SOL    HW137695   0.178   5.196   6.814  0.0438 -1.2786 -0.9519
11921SOL    HW237696   0.312   5.170   6.749  0.6621  0.4584 -0.4172
11922SOL     OW37697   6.769   2.839   3.208 -0.3621 -0.2065 -0.0258
11922SOL    HW137698   6.676   2.831   3.190 -0.6235  1.0512  0.6632
11922SOL    HW237699   6.793   2.927   3.177  0.5471 -0.4327 -0.0059
11923SOL     OW37700   1.539   0.523   5.220  0.4158 -0.3254  0.5921
11923SOL    HW137701   1.578   0.544   5.305 -1.2455  0.7734  1.1320
11923SOL    HW237702   1.448   0.502   5.240  0.2559 -1.1198 -0.8159
11924SOL     OW37703   4.060   1.481   4.709  0.4138 -0.4272  0.0229
11924SOL    HW137704   4.069   1.435   4.793  0.6754 -0.0032  0.2266
11924SOL    HW237705   4.116   1.432   4.648 -0.4105 -1.2293 -0.1121
11925SOL     OW37706   2.465   0.881   8.484  0.2396  0.5024 -0.4040
11925SOL    HW137707   2.375   0.913   8.478  0.5858  1.3060 -1.6045
11925SOL    HW237708   2.512   0.950   8.531  0.0415 -0.4113  1.2371
11926SOL     OW37709   4.757   6.429   2.084  0.8498 -0.3829 -0.4535
11926SOL    HW137710   4.792   6.392   2.165  1.4434  1.3765  0.1388
11926SOL    HW237711   4.830   6.478   2.046  1.1097 -2.5305 -2.9956
11927SOL     OW37712   5.330   8.025   8.582  0.0117 -0.0903  0.0889
11927SOL    HW137713   5.305   8.112   8.551  1.0633 -0.1531 -0.9953
11927SOL    HW237714   5.404   8.042   8.641  1.4069 -0.3397 -1.5111
11928SOL     OW37715   1.111   4.059   6.878  0.2117 -0.3254  0.7314
11928SOL    HW137716   1.055   4.055   6.801  1.6870 -0.1155 -0.3888
11928SOL    HW237717   1.097   3.976   6.923  0.5497 -1.1541 -0.6527
11929SOL     OW37718   2.365   1.315   4.583 -0.4670  0.2139 -0.1926
11929SOL    HW137719   2.403   1.227   4.585 -0.5738  0.1744  0.0509
11929SOL    HW237720   2.393   1.355   4.665  1.4974  1.2032 -1.2685
11930SOL     OW37721   2.068   8.300   4.145  0.3210 -0.0071  0.2254
11930SOL    HW137722   2.049   8.377   4.091 -1.2790 -1.3256 -1.1966
11930SOL    HW237723   1.991   8.290   4.200  0.7364 -0.3189  0.7505
11931SOL     OW37724   5.126   2.636   1.506 -0.0684 -0.3658 -0.2316
11931SOL    HW137725   5.207   2.683   1.487 -0.8876  0.7178 -1.1701
11931SOL    HW237726   5.151   2.543   1.503  1.7125 -0.0805  2.2250
11932SOL     OW37727   7.271   1.009   1.669  0.1389 -0.0126  0.1832
11932SOL    HW137728   7.221   1.085   1.639 -0.0313  0.3229  1.2809
11932SOL    HW237729   7.343   1.002   1.606  0.3691  1.2947  0.2753
11933SOL     OW37730   5.402   6.584   3.824  0.1234 -0.3317  0.0641
11933SOL    HW137731   5.464   6.590   3.896 -0.8684 -0.2227  0.9370
11933SOL    HW237732   5.433   6.511   3.771  1.2295  0.0054  0.2411
11934SOL     OW37733   7.765   1.233   2.553 -0.0002 -0.1579  0.0566
11934SOL    HW137734   7.704   1.252   2.625 -0.5380  1.1660 -0.7203
11934SOL    HW237735   7.846   1.277   2.577 -0.5435  1.2850 -0.6735
11935SOL     OW37736   8.039   4.647   4.444  0.1088 -0.4030 -0.5288
11935SOL    HW137737   7.987   4.621   4.368  0.7518 -0.5845 -0.9176
11935SOL    HW237738   8.022   4.740   4.455  2.4167  0.4073 -2.8730
11936SOL     OW37739   0.648   0.630   0.956  0.0406 -0.1619 -0.3761
11936SOL    HW137740   0.607   0.550   0.990  0.1042 -0.2879 -0.5899
11936SOL    HW237741   0.741   0.606   0.946 -0.0409 -0.2483 -0.9890
11937SOL     OW37742   3.349   8.609   6.828  0.3635  0.9399 -0.0151
11937SOL    HW137743   3.274   8.603   6.888  0.6708  1.8607  0.4855
11937SOL    HW237744   3.312   8.648   6.748  0.0596  0.2109 -0.2332
11938SOL     OW37745   0.470   5.707   2.291 -0.1451 -0.2369 -0.2662
11938SOL    HW137746   0.489   5.694   2.198 -0.2543  1.0359 -0.4887
11938SOL    HW237747   0.455   5.619   2.325 -0.1628 -0.7209 -1.4675
11939SOL     OW37748   0.609   5.340   6.771 -0.3529  0.6480 -0.1692
11939SOL    HW137749   0.611   5.244   6.775  0.5415  0.6605 -0.1014
11939SOL    HW237750   0.555   5.360   6.695 -0.5323  0.0900 -0.1930
11940SOL     OW37751   6.855   7.274   3.422  0.7548 -0.0560  0.3307
11940SOL    HW137752   6.887   7.321   3.499  3.2081  2.2291 -1.8689
11940SOL    HW237753   6.760   7.274   3.432  0.8138  2.8147  1.9632
11941SOL     OW37754   3.827   6.979   8.128 -0.0834  0.1598  0.0483
11941SOL    HW137755   3.852   6.899   8.081 -1.7932 -1.3619  1.5768
11941SOL    HW237756   3.902   6.998   8.184  0.7522  0.2484 -1.0764
11942SOL     OW37757   3.743   0.456   5.266  0.1057  0.3381  0.2156
11942SOL    HW137758   3.649   0.450   5.249 -0.1034 -0.0508  1.4518
11942SOL    HW237759   3.752   0.446   5.361  1.1915  2.5976  0.4406
11943SOL     OW37760   1.401   3.200   1.957  0.1881 -0.0778 -0.3441
11943SOL    HW137761   1.442   3.222   1.874  0.3568  0.7175 -0.0522
11943SOL    HW237762   1.470   3.209   2.022  0.0735 -0.7561 -0.1122
11944SOL     OW37763   1.313   2.008   1.213 -0.3106  0.4733  0.0567
11944SOL    HW137764   1.306   1.972   1.125  1.5030  0.8373 -0.2791
11944SOL    HW237765   1.247   2.077   1.217 -1.7265 -0.8164 -0.3340
11945SOL     OW37766   2.148   8.317   0.946 -0.2154  0.0030  0.3465
11945SOL    HW137767   2.076   8.367   0.984  1.0212 -0.0319  2.9447
11945SOL    HW237768   2.203   8.382   0.902  1.0698  0.9609  3.1833
11946SOL     OW37769   0.164   4.655   3.090 -0.7803 -0.0805 -0.0883
11946SOL    HW137770   0.256   4.654   3.117 -0.7889  1.2651  0.0518
11946SOL    HW237771   0.148   4.567   3.055 -0.1903 -1.2180  2.3018
11947SOL     OW37772   7.901   2.430   7.513  0.2008 -0.0610 -0.2021
11947SOL    HW137773   7.825   2.389   7.555  1.4415 -1.0887  1.1449
11947SOL    HW237774   7.918   2.507   7.566  0.9259 -0.6020  0.3762
11948SOL     OW37775   6.861   8.375   2.549 -0.7886 -0.5243  0.1214
11948SOL    HW137776   6.843   8.453   2.601  0.0388  0.7559 -1.4000
11948SOL    HW237777   6.911   8.318   2.607  0.9488  1.2528  0.4889
11949SOL     OW37778   4.073   2.756   4.780 -0.5427  0.6713  0.5637
11949SOL    HW137779   4.102   2.667   4.763 -1.7668  0.6566 -1.7988
11949SOL    HW237780   4.154   2.807   4.783  0.0460  0.0715 -2.1550
11950SOL     OW37781   7.155   3.216   7.396  0.0903 -0.0353 -0.0131
11950SOL    HW137782   7.121   3.270   7.324 -0.4877  1.0383  1.0224
11950SOL    HW237783   7.121   3.128   7.378 -0.1333  0.2386 -0.9904
11951SOL     OW37784   8.142   4.967   8.434  0.5593 -0.4391 -0.1318
11951SOL    HW137785   8.236   4.976   8.447  0.5835 -1.7708  0.8099
11951SOL    HW237786   8.125   4.873   8.439 -0.5513 -0.4340 -2.4079
11952SOL     OW37787   7.770   4.390   2.556  0.2817  0.4284  0.0168
11952SOL    HW137788   7.825   4.336   2.613  0.0729  1.1453  0.9222
11952SOL    HW237789   7.694   4.334   2.536  0.9784 -0.2980 -0.6396
11953SOL     OW37790   2.603   5.372   7.089 -0.4218 -0.1190  0.9260
11953SOL    HW137791   2.550   5.395   7.165 -1.8975  1.5954 -0.4974
11953SOL    HW237792   2.547   5.394   7.014  2.0150  1.1329 -0.6718
11954SOL     OW37793   4.480   0.502   8.279  0.5176  0.1315 -0.0619
11954SOL    HW137794   4.454   0.419   8.318 -0.5855  0.4923 -0.0098
11954SOL    HW237795   4.555   0.479   8.223 -1.5811 -1.5047 -2.4558
11955SOL     OW37796   7.988   5.667   1.985 -0.0427 -0.1554 -0.1003
11955SOL    HW137797   7.905   5.705   1.958  0.2399  1.7934  1.5404
11955SOL    HW237798   8.016   5.614   1.911 -1.7251  0.8442 -1.5011
11956SOL     OW37799   4.583   6.048   7.204  0.1421 -0.0247 -0.3364
11956SOL    HW137800   4.580   6.054   7.299 -0.1570  1.5771 -0.4146
11956SOL    HW237801   4.492   6.028   7.179 -0.0306  0.7061 -0.3251
11957SOL     OW37802   5.886   1.155   0.166 -0.1372  0.4009  0.1333
11957SOL    HW137803   5.805   1.130   0.212  0.7878 -0.6384  1.2366
11957SOL    HW237804   5.858   1.168   0.076 -1.2156 -1.8251  0.0819
11958SOL     OW37805   3.108   3.743   4.852  0.1836 -0.4056 -0.2280
11958SOL    HW137806   3.157   3.719   4.774 -1.3360  3.5275 -2.7141
11958SOL    HW237807   3.141   3.830   4.875  0.1154 -1.1528  3.2382
11959SOL     OW37808   3.978   8.521   2.787  0.1070  0.0151 -0.3891
11959SOL    HW137809   4.048   8.455   2.796  1.5389  1.0878 -2.5889
11959SOL    HW237810   3.948   8.511   2.697 -2.1499  0.0762  0.3019
11960SOL     OW37811   0.897   2.294   8.314  0.0404  0.0504 -0.0123
11960SOL    HW137812   0.877   2.361   8.249 -1.8411  0.1800  0.6472
11960SOL    HW237813   0.863   2.329   8.396  1.0658 -0.7446  0.7735
11961SOL     OW37814   0.659   5.715   3.824 -0.2657 -0.2931 -0.4217
11961SOL    HW137815   0.576   5.763   3.822 -0.1271  0.3251  3.0070
11961SOL    HW237816   0.695   5.726   3.736 -2.7311  1.3674 -1.3278
11962SOL     OW37817   4.367   3.092   2.538 -0.3161 -0.5643  0.4308
11962SOL    HW137818   4.324   3.009   2.560  1.7381 -2.1216 -1.0252
11962SOL    HW237819   4.444   3.094   2.594 -0.9066  0.9482  1.2318
11963SOL     OW37820   3.464   6.133   0.138 -0.0695 -0.2369  0.2059
11963SOL    HW137821   3.417   6.070   0.194 -1.3252 -0.8555 -1.4649
11963SOL    HW237822   3.397   6.168   0.081  0.9587  1.3468 -0.0773
11964SOL     OW37823   0.981   5.041   2.792 -0.0533 -0.4142  0.1798
11964SOL    HW137824   0.900   5.067   2.835  0.1881  0.7758 -0.0642
11964SOL    HW237825   1.002   5.113   2.733  0.4877 -1.2819 -0.7448
11965SOL     OW37826   1.068   4.214   0.323  0.3545  0.8481 -0.3411
11965SOL    HW137827   1.150   4.185   0.362  0.0377 -0.8310 -0.8484
11965SOL    HW237828   1.039   4.140   0.271 -2.2913  0.7840  1.0695
11966SOL     OW37829   7.364   3.304   5.283  0.7304  0.4018  0.3341
11966SOL    HW137830   7.353   3.260   5.367 -0.0879  1.0859  0.5958
11966SOL    HW237831   7.373   3.397   5.305 -0.0421  0.6565 -0.3507
11967SOL     OW37832   2.064   3.178   0.069  0.2584 -0.3853  0.0079
11967SOL    HW137833   2.112   3.221  -0.003 -1.0501 -0.4507 -0.9400
11967SOL    HW237834   2.088   3.085   0.062 -0.9639 -0.6404 -1.3059
11968SOL     OW37835   4.786   7.164   1.951  0.0492 -0.0928 -1.0693
11968SOL    HW137836   4.731   7.127   2.020  0.6022  1.2271  0.1315
11968SOL    HW237837   4.734   7.156   1.871 -2.1457  1.5584  0.0870
11969SOL     OW37838   6.873   7.964   0.601  0.3834 -0.6042 -0.0622
11969SOL    HW137839   6.845   7.877   0.629  1.0783 -0.8919 -0.2582
11969SOL    HW237840   6.947   7.948   0.542  1.2811  0.1781  0.8265
11970SOL     OW37841   8.716   6.102   2.213 -0.2130  0.4005  0.3306
11970SOL    HW137842   8.656   6.175   2.231 -2.2872 -1.0182 -0.3944
11970SOL    HW237843   8.707   6.045   2.290  0.5226  0.3587  0.3874
11971SOL     OW37844   4.968   3.374   6.095  0.5121  0.1173 -0.2419
11971SOL    HW137845   5.021   3.344   6.169  0.8351  0.5357 -0.2987
11971SOL    HW237846   4.964   3.298   6.036 -0.0740 -0.3433  0.3754
11972SOL     OW37847   1.213   6.132   3.656 -0.0359  0.6014 -0.5268
11972SOL    HW137848   1.289   6.121   3.598  0.8945 -0.4060  0.8050
11972SOL    HW237849   1.147   6.073   3.621  0.1206  0.8120 -1.1869
11973SOL     OW37850   1.537   5.078   4.196  0.1265 -0.2404 -0.3907
11973SOL    HW137851   1.457   5.062   4.146  0.2271  1.8520 -1.3151
11973SOL    HW237852   1.608   5.050   4.138  0.1939  1.2745 -1.0929
11974SOL     OW37853   7.812   3.171   2.740 -0.0753  0.7031 -0.2282
11974SOL    HW137854   7.855   3.154   2.824  0.5323  0.7190 -0.5294
11974SOL    HW237855   7.877   3.145   2.675 -0.8235 -0.0241 -0.6981
11975SOL     OW37856   0.487   8.048   4.149 -0.0397  0.2481 -0.1951
11975SOL    HW137857   0.547   7.974   4.154 -1.4603 -0.9035  0.4005
11975SOL    HW237858   0.485   8.084   4.237 -0.6408 -0.0534 -0.0871
11976SOL     OW37859   6.265   2.682   4.528 -0.0752 -0.1692 -0.7079
11976SOL    HW137860   6.256   2.634   4.610  0.1132  0.5464 -0.2575
11976SOL    HW237861   6.189   2.740   4.525 -1.4101 -1.8457 -2.2207
11977SOL     OW37862   7.997   5.143   1.305 -0.3802 -0.1073  0.1637
11977SOL    HW137863   8.083   5.119   1.271  0.5177  1.3191  1.3145
11977SOL    HW237864   8.000   5.238   1.315 -2.7494  0.2259 -1.4419
11978SOL     OW37865   5.859   0.503   5.298  0.3503  0.2526 -0.0834
11978SOL    HW137866   5.877   0.582   5.349  1.3868 -0.2142  0.3095
11978SOL    HW237867   5.785   0.462   5.343 -0.8556  1.4896 -0.8780
11979SOL     OW37868   1.667   1.276   6.535  0.1873 -0.5367  0.1739
11979SOL    HW137869   1.732   1.250   6.470  1.5745  0.9204  0.9192
11979SOL    HW237870   1.600   1.323   6.485 -0.1586 -1.7506 -0.5473
11980SOL     OW37871   3.750   6.496   0.417 -0.3805 -0.8151 -0.6190
11980SOL    HW137872   3.697   6.546   0.355 -1.1245  0.1449  0.7490
11980SOL    HW237873   3.694   6.424   0.444 -1.0944  0.2476  0.8928
11981SOL     OW37874   4.510   0.939   2.003 -0.4721 -0.2870 -0.1083
11981SOL    HW137875   4.416   0.959   2.013  0.1714  2.3809  1.8012
11981SOL    HW237876   4.552   1.025   1.998  2.1117 -1.2765  2.0439
11982SOL     OW37877   6.017   1.552   1.339  0.1170 -0.5858  0.3959
11982SOL    HW137878   5.969   1.567   1.258  0.3155 -1.6007  0.0658
11982SOL    HW237879   5.965   1.486   1.385  2.1954 -3.3786 -0.9598
11983SOL     OW37880   2.755   7.204   3.291  0.1602 -0.4936  0.8882
11983SOL    HW137881   2.728   7.161   3.372  0.8676  1.1723  2.0659
11983SOL    HW237882   2.799   7.284   3.319 -0.0616  0.4306 -1.1638
11984SOL     OW37883   4.401   3.159   1.537  0.1513  0.2046 -0.7231
11984SOL    HW137884   4.456   3.121   1.606 -1.1748  1.9732  1.4796
11984SOL    HW237885   4.332   3.095   1.524 -0.2526  0.3516  0.5298
11985SOL     OW37886   7.119   3.399   1.936  0.6178 -0.1625  0.1202
11985SOL    HW137887   7.032   3.438   1.949  1.5664  1.1491  3.7848
11985SOL    HW237888   7.180   3.471   1.955  2.4571 -2.1037  2.1155
11986SOL     OW37889   2.815   4.427   4.360 -0.3856  0.2345  0.1963
11986SOL    HW137890   2.874   4.406   4.431  0.8174  0.4489 -0.7114
11986SOL    HW237891   2.779   4.513   4.382 -0.0357  0.2887  0.5558
11987SOL     OW37892   6.097   0.725   5.209  0.5429  0.1631  0.1488
11987SOL    HW137893   6.071   0.693   5.122 -0.2549 -1.6379  1.0045
11987SOL    HW237894   6.015   0.751   5.251  0.8308  0.2710  0.6527
11988SOL     OW37895   5.352   4.907   1.299 -0.5681 -0.0384 -0.6187
11988SOL    HW137896   5.273   4.874   1.343 -0.6251  1.0012  0.0910
11988SOL    HW237897   5.318   4.966   1.231 -0.4639 -1.2909 -1.8130
11989SOL     OW37898   6.890   0.020   2.894  0.0814  0.0561 -0.6684
11989SOL    HW137899   6.960   0.080   2.919  0.7571 -0.9064 -0.2046
11989SOL    HW237900   6.821   0.077   2.859  0.9291  1.0466 -0.7707
11990SOL     OW37901   0.217   4.410   5.737  0.2161 -0.7488  0.0234
11990SOL    HW137902   0.151   4.341   5.743 -1.3529  0.5423 -1.4799
11990SOL    HW237903   0.293   4.376   5.785 -1.6230 -2.1731  2.0706
11991SOL     OW37904   4.343   0.670   7.519  0.3008  0.4473  0.6131
11991SOL    HW137905   4.261   0.718   7.505  1.1491  1.9565  0.5102
11991SOL    HW237906   4.316   0.584   7.550 -1.4216 -0.1073 -2.1208
11992SOL     OW37907   0.540   3.969   6.180  0.5566  0.2931  0.3854
11992SOL    HW137908   0.467   3.947   6.122  0.6434  0.3480  0.2556
11992SOL    HW237909   0.523   4.058   6.208 -0.2438 -0.2139  1.5811
11993SOL     OW37910   8.747   6.124   6.154  0.0114  0.8311 -0.2924
11993SOL    HW137911   8.673   6.110   6.213  0.2512  0.9759  0.0460
11993SOL    HW237912   8.710   6.174   6.081 -0.5146 -0.2466 -0.7826
11994SOL     OW37913   6.327   8.210   3.841 -0.1454 -0.1335 -0.3811
11994SOL    HW137914   6.369   8.214   3.927 -0.8419 -1.6499  0.0531
11994SOL    HW237915   6.279   8.127   3.841 -0.3604 -0.0475 -2.1460
11995SOL     OW37916   1.288   5.213   7.275  1.1781  0.0001 -0.4209
11995SOL    HW137917   1.324   5.155   7.208  1.8834  0.5767 -0.5594
11995SOL    HW237918   1.226   5.159   7.324  1.2409 -0.6427 -1.0404
11996SOL     OW37919   5.398   6.069   0.222  0.0251 -0.0646 -0.8202
11996SOL    HW137920   5.310   6.100   0.198 -1.0510 -1.7038  0.7925
11996SOL    HW237921   5.390   6.043   0.313  2.3142  0.0406 -0.5458
11997SOL     OW37922   1.555   4.958   8.471  0.4846 -0.1142 -0.9354
11997SOL    HW137923   1.510   4.955   8.555 -2.2745 -0.5814 -2.3272
11997SOL    HW237924   1.582   4.867   8.455  2.0354  0.1700 -0.0906
11998SOL     OW37925   8.473   6.005   0.243 -0.0549 -0.0132 -0.2080
11998SOL    HW137926   8.471   6.034   0.335  0.2878  1.5459 -0.6675
11998SOL    HW237927   8.424   6.072   0.196 -0.4958 -0.9693 -1.1503
11999SOL     OW37928   3.559   8.043   5.957  0.0872 -0.0895 -0.5038
11999SOL    HW137929   3.647   8.079   5.964  0.0987 -0.4432  1.7919
11999SOL    HW237930   3.570   7.963   5.906  0.9626  0.2573 -0.8800
12000SOL     OW37931   1.671   3.948   8.219 -0.0483  0.2711 -0.1462
12000SOL    HW137932   1.749   3.974   8.170 -1.0091 -0.0331 -1.9064
12000SOL    HW237933   1.668   4.009   8.294  2.0896 -0.0042  0.2200
12001SOL     OW37934   1.580   1.784   6.448  0.1306  0.4409  0.2239
12001SOL    HW137935   1.557   1.761   6.538  0.8635  1.7876  0.7882
12001SOL    HW237936   1.498   1.818   6.411 -0.2646 -0.4666  0.2534
12002SOL     OW37937   6.177   7.644   7.817 -0.7809  0.1808 -0.3338
12002SOL    HW137938   6.225   7.680   7.743  0.9718  1.2034  1.2301
12002SOL    HW237939   6.114   7.712   7.840  0.3370  0.9350  0.5977
12003SOL     OW37940   5.952   8.391   2.874 -0.3455 -0.0406 -0.0285
12003SOL    HW137941   5.933   8.336   2.798 -0.7588  0.3185 -0.1933
12003SOL    HW237942   5.904   8.351   2.946  0.4674 -0.6856  0.1753
12004SOL     OW37943   3.630   0.245   4.776 -0.0485 -0.1885 -0.3503
12004SOL    HW137944   3.643   0.339   4.793 -1.5997  0.1902 -1.1243
12004SOL    HW237945   3.657   0.234   4.685  0.6167 -0.6122 -0.1089
12005SOL     OW37946   1.587   4.638   7.404  0.3560 -0.2571 -0.0273
12005SOL    HW137947   1.595   4.575   7.476 -1.1730  1.3606  1.6592
12005SOL    HW237948   1.543   4.713   7.443  0.2806  1.0571 -2.4767
12006SOL     OW37949   7.168   8.292   8.191  0.1122 -0.1185 -0.3629
12006SOL    HW137950   7.111   8.268   8.118  0.7398  1.3389 -1.3908
12006SOL    HW237951   7.256   8.271   8.160  0.3668  0.3689  0.0232
12007SOL     OW37952   0.628   4.663   6.684  0.1199  0.4483 -0.1702
12007SOL    HW137953   0.708   4.618   6.657  0.0478 -0.3035  0.8312
12007SOL    HW237954   0.623   4.649   6.778 -2.1349 -1.0787 -0.4496
12008SOL     OW37955   2.909   1.211   5.324 -0.1246  0.3780 -0.0442
12008SOL    HW137956   2.979   1.146   5.322  0.3574  0.9020 -0.3792
12008SOL    HW237957   2.843   1.172   5.382 -0.0609 -0.6176 -0.6035
12009SOL     OW37958   2.320   2.403   6.535 -0.3647 -0.0747  0.2698
12009SOL    HW137959   2.393   2.371   6.587 -0.8270 -0.2782  0.8063
12009SOL    HW237960   2.338   2.496   6.522 -1.3112  0.5376  2.7007
12010SOL     OW37961   8.499   7.393   3.937  0.1704  0.0610 -0.5336
12010SOL    HW137962   8.468   7.461   3.878  3.1890  3.0852  1.0135
12010SOL    HW237963   8.594   7.398   3.933  0.5604 -0.5237  3.4027
12011SOL     OW37964   6.384   1.778   1.182 -0.0482 -0.0451 -0.8199
12011SOL    HW137965   6.365   1.830   1.260  1.8331 -0.5410  0.0109
12011SOL    HW237966   6.299   1.769   1.138 -1.1025  0.4314  1.0315
12012SOL     OW37967   0.660   4.058   0.801  0.0028 -1.1672 -0.3609
12012SOL    HW137968   0.732   4.059   0.864 -2.2015 -0.4878  2.3330
12012SOL    HW237969   0.703   4.068   0.716  2.9404  3.3780  1.2745
12013SOL     OW37970   2.576   1.511   1.247 -0.0342 -0.0821  0.0104
12013SOL    HW137971   2.587   1.456   1.324  0.3148  0.1801  0.1560
12013SOL    HW237972   2.577   1.450   1.173 -1.3194 -0.4272  0.2628
12014SOL     OW37973   5.684   1.234   3.313 -0.1586 -0.6053 -0.7930
12014SOL    HW137974   5.754   1.202   3.371 -0.3367 -3.3785 -1.9644
12014SOL    HW237975   5.603   1.210   3.358 -0.3535  0.3520 -0.6141
12015SOL     OW37976   8.796   5.568   3.669  0.0479 -0.1450  0.2924
12015SOL    HW137977   8.857   5.632   3.705 -0.5165  0.3317  0.4287
12015SOL    HW237978   8.792   5.498   3.735 -0.9032  0.6748  1.1335
12016SOL     OW37979   6.625   6.273   7.675 -0.7074 -0.1746 -0.1451
12016SOL    HW137980   6.613   6.352   7.727  1.6433 -1.5271  2.8104
12016SOL    HW237981   6.578   6.290   7.594 -0.1609  4.3016  0.2119
12017SOL     OW37982   8.020   5.904   6.925  0.4295  0.0960  0.1407
12017SOL    HW137983   8.090   5.967   6.939  0.0043  0.7988 -0.7029
12017SOL    HW237984   7.948   5.935   6.981  0.4892 -0.1056  0.3304
12018SOL     OW37985   0.516   0.019   3.030 -0.6173 -0.4420  0.3476
12018SOL    HW137986   0.570  -0.057   3.053  0.6693  0.3546  0.0783
12018SOL    HW237987   0.495   0.005   2.937 -0.2315 -0.3789  0.2498
12019SOL     OW37988   6.471   5.603   2.000 -0.1900 -0.7621  0.3492
12019SOL    HW137989   6.382   5.627   2.025  0.3634  0.2221  1.5197
12019SOL    HW237990   6.526   5.647   2.065  0.9911 -4.9140  2.4896
12020SOL     OW37991   5.995   4.185   6.879  0.2497  0.1712 -0.5254
12020SOL    HW137992   5.980   4.215   6.789 -1.3074 -0.5230 -0.5259
12020SOL    HW237993   5.937   4.238   6.933  0.0404 -0.4601 -0.1199
12021SOL     OW37994   4.479   6.553   4.916  0.4383 -0.1642 -0.0602
12021SOL    HW137995   4.529   6.533   4.996 -0.2568  0.8505  0.6607
12021SOL    HW237996   4.449   6.468   4.884  0.0501 -0.5337  1.2287
12022SOL     OW37997   0.732   4.306   6.811 -0.3662 -0.0033 -0.1981
12022SOL    HW137998   0.770   4.274   6.893 -2.9154 -0.1600  1.0099
12022SOL    HW237999   0.763   4.396   6.804 -0.0187 -0.0213  0.8688
12023SOL     OW38000   0.390   6.211   3.206 -0.7033 -0.3553  0.1104
12023SOL    HW138001   0.367   6.119   3.219  0.2712 -0.5338  0.5869
12023SOL    HW238002   0.484   6.216   3.222 -1.0971  1.1330  2.4022
12024SOL     OW38003   6.025   2.708   2.484  0.2608 -0.8888 -0.2787
12024SOL    HW138004   5.981   2.721   2.400  1.1260 -2.5223 -1.0298
12024SOL    HW238005   5.961   2.662   2.538 -0.4304  0.4909  0.1219
12025SOL     OW38006   8.207   5.734   3.108  0.4202 -0.8084 -0.1957
12025SOL    HW138007   8.248   5.682   3.040  3.5533  2.3932 -1.0584
12025SOL    HW238008   8.256   5.712   3.188  0.8658 -0.1500 -0.2858
12026SOL     OW38009   6.133   5.020   4.434  0.0465 -0.5551  0.4987
12026SOL    HW138010   6.053   5.024   4.381  0.8301 -0.1789 -0.6973
12026SOL    HW238011   6.111   5.069   4.513 -0.4817  0.7863 -0.4278
12027SOL     OW38012   0.040   5.807   0.767  0.5472  0.0928 -0.5058
12027SOL    HW138013   0.089   5.847   0.694  1.8097 -1.1733 -0.4125
12027SOL    HW238014   0.038   5.714   0.745 -0.3197 -0.1054  0.3802
12028SOL     OW38015   4.930   4.626   6.772  0.3797 -0.5087 -0.2303
12028SOL    HW138016   4.990   4.586   6.709  1.1786  0.6109 -0.2159
12028SOL    HW238017   4.964   4.715   6.784  0.4861 -0.8230  2.1061
12029SOL     OW38018   3.061   8.538   8.193 -0.4897  0.2006  0.1714
12029SOL    HW138019   3.018   8.580   8.119 -2.3347 -2.0729 -0.1431
12029SOL    HW238020   3.028   8.448   8.193  1.8214 -0.7547  1.9215
12030SOL     OW38021   8.097   0.157   0.824  0.1054 -0.4126  0.7643
12030SOL    HW138022   8.075   0.118   0.739  2.0548 -1.5352  0.7230
12030SOL    HW238023   8.012   0.167   0.868 -1.1261  1.5768 -1.8280
12031SOL     OW38024   2.952   4.435   8.567  0.2666 -0.1291 -0.7155
12031SOL    HW138025   3.005   4.424   8.489  1.8518  1.2924  0.1031
12031SOL    HW238026   2.950   4.530   8.583 -0.8028 -0.3051  0.4478
12032SOL     OW38027   6.064   7.678   6.991  0.0174 -0.5916  0.0248
12032SOL    HW138028   6.011   7.659   6.913 -0.3733  0.2881  0.0637
12032SOL    HW238029   6.150   7.698   6.957 -0.5575  1.4220 -0.3479
12033SOL     OW38030   1.067   4.933   8.783  0.6307  0.7418  0.4326
12033SOL    HW138031   1.058   4.987   8.862  0.5247  0.8013  0.3810
12033SOL    HW238032   1.073   4.844   8.816  0.5572  0.7639  0.5072
12034SOL     OW38033   3.841   0.386   7.288  0.0981  0.5768 -0.1105
12034SOL    HW138034   3.759   0.347   7.318 -0.2557 -0.7211 -2.5174
12034SOL    HW238035   3.909   0.324   7.315  0.1172  0.8372  0.4533
12035SOL     OW38036   6.018   3.546   5.103 -0.0141 -0.2373 -0.0227
12035SOL    HW138037   6.038   3.531   5.011 -0.3952 -1.9598  0.1402
12035SOL    HW238038   6.103   3.557   5.145  0.1367  1.3926 -0.6641
12036SOL     OW38039   8.316   7.992   8.436  0.6317  0.2860  0.4697
12036SOL    HW138040   8.393   8.012   8.383  0.6320  1.2746  0.8353
12036SOL    HW238041   8.242   8.005   8.376  0.7569 -1.7927 -0.2336
12037SOL     OW38042   1.629   4.290   5.276 -0.0782 -0.6751  0.1245
12037SOL    HW138043   1.623   4.262   5.185  0.0094  0.8713 -0.3817
12037SOL    HW238044   1.675   4.218   5.320  0.5710 -1.1065 -1.2083
12038SOL     OW38045   4.386   7.218   3.238  0.3726 -0.7268 -0.4016
12038SOL    HW138046   4.480   7.216   3.219  0.4522 -1.1878  0.0143
12038SOL    HW238047   4.364   7.128   3.261 -0.6583 -1.1308 -2.7083
12039SOL     OW38048   7.044   8.597   1.989 -0.2017  0.1124 -0.2128
12039SOL    HW138049   7.064   8.576   1.898 -1.8021  1.2544 -0.8746
12039SOL    HW238050   7.002   8.518   2.023 -2.9319  0.8566 -1.6135
12040SOL     OW38051   0.165   2.139   1.732  0.5447 -0.0516 -0.4035
12040SOL    HW138052   0.099   2.099   1.675  1.4231 -0.2269 -1.3031
12040SOL    HW238053   0.121   2.146   1.817 -0.4454 -0.6846 -0.8474
12041SOL     OW38054   2.557   5.714   1.979 -0.2366  0.1860 -0.5662
12041SOL    HW138055   2.589   5.627   1.953  2.5067  0.4576  1.3918
12041SOL    HW238056   2.600   5.774   1.919  0.2264  0.3300 -0.1046
12042SOL     OW38057   5.297   6.995   0.598 -0.5036 -0.7308  0.0764
12042SOL    HW138058   5.330   7.039   0.520  2.1730  0.9405  1.9425
12042SOL    HW238059   5.371   6.942   0.628 -1.2206 -0.8214  1.7872
12043SOL     OW38060   1.385   6.770   8.368 -0.1713 -0.3156  0.0731
12043SOL    HW138061   1.301   6.734   8.397 -1.0923  0.6321 -1.2544
12043SOL    HW238062   1.376   6.779   8.273  0.4788  2.0535  0.1549
12044SOL     OW38063   5.559   3.957   1.088 -0.1594  0.0733 -0.6952
12044SOL    HW138064   5.557   4.052   1.086 -1.3749  0.0830 -0.0479
12044SOL    HW238065   5.523   3.930   1.004 -0.3006  0.1903 -0.6726
12045SOL     OW38066   1.879   5.983   8.339 -0.2212 -0.2017 -0.2105
12045SOL    HW138067   1.972   5.962   8.329 -0.6119 -1.9330 -0.5696
12045SOL    HW238068   1.875   6.037   8.417  1.1159  0.1500 -0.3521
12046SOL     OW38069   5.276   6.377   1.077  0.7566 -0.0981 -0.8325
12046SOL    HW138070   5.280   6.416   0.989  0.2909 -1.5023 -1.4941
12046SOL    HW238071   5.188   6.399   1.109  1.1730  1.0377 -0.3829
12047SOL     OW38072   2.684   0.594   0.567  0.1701 -0.2928  0.4898
12047SOL    HW138073   2.731   0.533   0.510  0.8074  0.7998 -0.1830
12047SOL    HW238074   2.641   0.538   0.631 -0.2510 -1.5296 -0.8300
12048SOL     OW38075   3.482   6.714   6.466  0.2774 -0.3217 -0.1616
12048SOL    HW138076   3.450   6.626   6.445 -0.9716  0.4416 -1.6465
12048SOL    HW238077   3.576   6.710   6.449  0.0172 -1.0219 -1.5249
12049SOL     OW38078   1.663   2.000   8.538 -0.3266 -0.2292  0.8930
12049SOL    HW138079   1.590   2.060   8.525  2.0759  3.3674  2.3554
12049SOL    HW238080   1.640   1.952   8.618 -1.8630 -0.5800  0.2727
12050SOL     OW38081   4.096   5.332   3.074  0.5173 -0.6759 -0.5077
12050SOL    HW138082   4.026   5.356   3.013  1.2658  0.6232 -0.9163
12050SOL    HW238083   4.147   5.412   3.083  0.2311 -0.7315  2.1481
12051SOL     OW38084   2.462   5.433   2.987 -0.0087 -0.1381  0.3897
12051SOL    HW138085   2.468   5.461   2.895 -1.2877 -0.1013  0.2990
12051SOL    HW238086   2.501   5.346   2.987  1.4923  0.5010  0.1414
12052SOL     OW38087   3.281   3.141   4.516  0.1564  0.2107  0.0556
12052SOL    HW138088   3.347   3.135   4.447 -0.5616 -0.9392 -0.5815
12052SOL    HW238089   3.321   3.101   4.593  0.3971  0.0212 -0.1693
12053SOL     OW38090   6.470   8.502   0.889 -0.0197 -0.2612 -0.0153
12053SOL    HW138091   6.438   8.501   0.799 -1.4450  1.3871  0.4060
12053SOL    HW238092   6.429   8.579   0.928  1.8498  0.0049  1.6007
12054SOL     OW38093   7.693   8.639   8.231  0.1719 -0.1085 -0.3600
12054SOL    HW138094   7.755   8.702   8.195  0.2816 -0.3067 -0.5173
12054SOL    HW238095   7.746   8.582   8.286  0.1805 -0.4615 -0.7328
12055SOL     OW38096   1.696   5.106   5.567 -0.9247  0.1314 -0.3975
12055SOL    HW138097   1.693   5.010   5.565  0.6667  0.0244  0.4902
12055SOL    HW238098   1.643   5.131   5.643  0.1347 -0.1770  0.4675
12056SOL     OW38099   3.145   2.852   4.259 -0.0894  0.2381 -0.0942
12056SOL    HW138100   3.135   2.758   4.241 -0.8741  0.3476 -0.2690
12056SOL    HW238101   3.238   2.869   4.247  0.2519 -0.7469  1.0407
12057SOL     OW38102   4.109   1.616   0.792 -0.3598 -0.2508 -0.1979
12057SOL    HW138103   4.117   1.532   0.747 -2.5110 -0.8529  0.4314
12057SOL    HW238104   4.084   1.678   0.723 -0.6080 -0.5295 -0.3608
12058SOL     OW38105   4.496   7.250   0.480 -0.5063  0.0409 -0.2028
12058SOL    HW138106   4.499   7.236   0.385  1.8856  2.0022 -0.5269
12058SOL    HW238107   4.434   7.321   0.492 -1.0902 -0.4532 -0.2209
12059SOL     OW38108   4.369   1.573   5.488  1.1113  0.3250  0.1318
12059SOL    HW138109   4.380   1.613   5.574  3.6065 -0.1620  0.1060
12059SOL    HW238110   4.393   1.481   5.500 -1.1226 -0.4293 -0.5722
12060SOL     OW38111   1.284   8.527   0.195 -0.0905 -0.4325  0.3777
12060SOL    HW138112   1.229   8.549   0.120  0.1469 -0.9995  0.0261
12060SOL    HW238113   1.250   8.580   0.267 -1.9908 -1.7544  0.5218
12061SOL     OW38114   5.817   6.316   0.867  0.0413 -0.0879  0.3005
12061SOL    HW138115   5.891   6.259   0.887  1.1684  1.1256 -0.2532
12061SOL    HW238116   5.847   6.403   0.891 -2.1277  0.1726  2.3881
12062SOL     OW38117   2.102   8.033   5.036  0.2483 -0.3342  0.1618
12062SOL    HW138118   2.080   7.946   5.071 -2.4460 -0.7225 -2.1182
12062SOL    HW238119   2.020   8.082   5.042  0.8279  0.9247 -1.6355
12063SOL     OW38120   2.107   2.178   1.121  0.0000 -0.1314  0.3066
12063SOL    HW138121   2.059   2.241   1.066  2.0926  0.8934 -0.4661
12063SOL    HW238122   2.145   2.116   1.058  0.2841 -0.4920  0.8308
12064SOL     OW38123   0.076   8.297   5.801 -0.2497 -0.3708  0.0572
12064SOL    HW138124   0.049   8.251   5.880  0.2800 -0.3239  0.2721
12064SOL    HW238125   0.063   8.234   5.731  2.0784 -1.5298  0.5444
12065SOL     OW38126   4.197   6.955   7.427  0.1935  0.1852 -0.4055
12065SOL    HW138127   4.191   7.010   7.505 -0.1229  0.7138 -0.7885
12065SOL    HW238128   4.240   6.875   7.456 -0.5304  0.1017  0.4528
12066SOL     OW38129   0.376   7.726   5.584  0.2218  0.8255  0.3688
12066SOL    HW138130   0.404   7.765   5.667 -0.9167  1.2665  0.5623
12066SOL    HW238131   0.457   7.721   5.532  0.5528  2.7897  0.6087
12067SOL     OW38132   0.856   8.627   6.426 -0.6082 -0.1668 -0.0864
12067SOL    HW138133   0.936   8.634   6.374 -0.6580 -0.8098 -0.2606
12067SOL    HW238134   0.887   8.602   6.514 -0.4261  2.1196  0.5516
12068SOL     OW38135   4.573   0.728   0.327 -0.3085 -0.3203 -0.4910
12068SOL    HW138136   4.620   0.703   0.248 -0.4891  2.1176 -1.4495
12068SOL    HW238137   4.486   0.754   0.297 -0.2414  1.0694  0.4033
12069SOL     OW38138   1.897   2.333   1.291  0.3914 -0.4050  0.3307
12069SOL    HW138139   1.820   2.279   1.307  0.2630 -0.1279  0.6879
12069SOL    HW238140   1.944   2.290   1.220 -0.0596 -0.6117  0.1582
12070SOL     OW38141   4.250   0.886   5.085 -0.1081 -0.1916 -0.2202
12070SOL    HW138142   4.229   0.845   5.001  1.3720  0.3889 -0.9081
12070SOL    HW238143   4.234   0.979   5.071  3.3929  0.4036 -1.0346
12071SOL     OW38144   3.093   1.427   8.273 -0.3430 -1.0966 -0.2246
12071SOL    HW138145   3.141   1.347   8.292 -1.9376 -1.8235  0.9438
12071SOL    HW238146   3.095   1.478   8.354 -1.1776 -0.9593 -0.2746
12072SOL     OW38147   4.827   2.149   1.306  0.0492  0.2823 -0.0507
12072SOL    HW138148   4.797   2.155   1.215 -1.5719 -3.5971  0.0502
12072SOL    HW238149   4.912   2.106   1.300 -0.0249  0.0889  0.2845
12073SOL     OW38150   2.465   0.871   3.096  0.3771 -0.1127 -0.5879
12073SOL    HW138151   2.504   0.887   3.010  0.1846  1.1440 -0.4612
12073SOL    HW238152   2.521   0.804   3.136 -0.0769 -1.4044 -2.0448
12074SOL     OW38153   5.100   3.187   3.238  0.0085  0.0781 -0.0187
12074SOL    HW138154   5.035   3.129   3.199  0.1907 -0.5995  0.6640
12074SOL    HW238155   5.173   3.187   3.177 -0.7881  1.1995 -1.0169
12075SOL     OW38156   3.441   7.331   2.313 -0.3921 -0.6103 -0.3837
12075SOL    HW138157   3.387   7.379   2.376  0.9210  1.4359 -0.7230
12075SOL    HW238158   3.531   7.346   2.342  0.2094 -0.1424 -2.3203
12076SOL     OW38159   3.555   6.288   3.775  0.3117 -0.1832 -0.2077
12076SOL    HW138160   3.633   6.290   3.831  1.0969  1.3084 -1.2800
12076SOL    HW238161   3.483   6.311   3.833  0.4963 -2.3690  0.9862
12077SOL     OW38162   4.922   3.732   4.744  0.0296 -0.4307  0.4735
12077SOL    HW138163   5.011   3.703   4.767 -0.2289 -1.3657  0.3574
12077SOL    HW238164   4.874   3.650   4.731 -0.8806  0.0658  0.6564
12078SOL     OW38165   8.715   1.993   4.463 -0.0146  0.1851  0.6181
12078SOL    HW138166   8.799   1.948   4.470 -1.2738 -2.6051 -0.9522
12078SOL    HW238167   8.660   1.954   4.531 -0.9127 -0.1187 -0.2656
12079SOL     OW38168   0.161   8.034   0.231 -0.3281 -0.3735 -0.1373
12079SOL    HW138169   0.189   8.029   0.323 -0.9993  0.0824  0.1006
12079SOL    HW238170   0.215   7.969   0.186  1.1498  0.5336  0.2772
12080SOL     OW38171   3.154   2.778   5.178 -0.5060  0.0077  0.0244
12080SOL    HW138172   3.158   2.823   5.094 -0.8028 -0.4606 -0.2499
12080SOL    HW238173   3.077   2.721   5.170 -0.9400  0.4576  0.8688
12081SOL     OW38174   1.992   5.415   7.359  0.3468  0.1463 -0.8282
12081SOL    HW138175   2.016   5.322   7.366 -1.3439 -0.2439  0.6139
12081SOL    HW238176   1.905   5.420   7.399  0.9533  2.5794  0.4108
12082SOL     OW38177   4.944   0.976   7.222 -0.4933  0.4776 -0.0578
12082SOL    HW138178   4.904   0.916   7.159  1.2538 -0.3613 -0.4330
12082SOL    HW238179   5.035   0.946   7.228  0.2374  2.6535  0.3095
12083SOL     OW38180   8.461   3.840   7.274 -0.8801 -0.4951 -0.4969
12083SOL    HW138181   8.410   3.797   7.343 -1.0934 -0.0744 -0.3844
12083SOL    HW238182   8.532   3.780   7.255 -0.7120 -0.5342  0.2254
12084SOL     OW38183   8.199   8.604   8.795  0.2055  0.7004 -0.0588
12084SOL    HW138184   8.204   8.512   8.821 -1.0326  0.9802  1.3301
12084SOL    HW238185   8.272   8.646   8.839  0.4770  0.4854 -0.2959
12085SOL     OW38186   4.698   7.289   8.124 -0.3839  0.1967  0.2534
12085SOL    HW138187   4.687   7.265   8.216  0.0748  0.3905  0.3662
12085SOL    HW238188   4.609   7.300   8.091 -0.5474  0.9759  0.9071
12086SOL     OW38189   8.863   6.568   4.895  0.2677 -0.4807  0.0285
12086SOL    HW138190   8.851   6.606   4.808  2.4536  1.0036  0.3016
12086SOL    HW238191   8.906   6.637   4.946  1.1856 -2.1168  1.5957
12087SOL     OW38192   4.228   1.714   2.324 -0.3571  0.1308 -0.2106
12087SOL    HW138193   4.143   1.753   2.342 -0.6196 -0.6569  0.3081
12087SOL    HW238194   4.208   1.623   2.300  0.3563 -0.1535  0.2437
12088SOL     OW38195   6.472   8.156   0.321  0.0174  0.3145 -0.2884
12088SOL    HW138196   6.549   8.209   0.342 -0.4332  1.6772 -1.8645
12088SOL    HW238197   6.415   8.167   0.398  1.5114 -1.0461  1.0736
12089SOL     OW38198   1.457   3.064   6.989  0.2305 -0.2792  0.2742
12089SOL    HW138199   1.400   3.093   7.061  2.2929  1.3139  1.4109
12089SOL    HW238200   1.542   3.048   7.032  0.6362 -2.8549 -1.2753
12090SOL     OW38201   5.536   3.439   1.964  0.0637 -0.4377 -0.6130
12090SOL    HW138202   5.615   3.404   1.922  1.1618  1.3822 -0.1736
12090SOL    HW238203   5.530   3.391   2.047 -0.7686 -2.3422 -1.6808
12091SOL     OW38204   7.427   5.478   0.519 -0.1967  0.1579 -0.0924
12091SOL    HW138205   7.339   5.483   0.482 -0.3754 -1.3576  0.0788
12091SOL    HW238206   7.477   5.543   0.469 -1.3774  0.9781 -0.2483
12092SOL     OW38207   2.803   0.203   6.601 -0.0523 -0.2539 -0.5252
12092SOL    HW138208   2.766   0.218   6.514 -1.1977 -0.1959 -0.0420
12092SOL    HW238209   2.728   0.207   6.660  0.8572  0.7929  0.6086
12093SOL     OW38210   7.951   1.158   4.745  0.1015  0.3997  0.2422
12093SOL    HW138211   7.892   1.109   4.802  1.2253 -0.5765  0.6357
12093SOL    HW238212   7.939   1.118   4.658  1.1109 -0.7294  0.5879
12094SOL     OW38213   8.521   0.767   4.875  0.6487  0.0579  0.8230
12094SOL    HW138214   8.444   0.768   4.818  0.8391 -2.1048  0.4233
12094SOL    HW238215   8.591   0.805   4.823 -0.2422  2.8491  1.4812
12095SOL     OW38216   1.106   8.321   1.881  0.1273  0.5742 -0.4693
12095SOL    HW138217   1.107   8.287   1.970  4.8072  0.1965 -0.4368
12095SOL    HW238218   1.128   8.414   1.891 -0.8902  0.9061 -1.1920
12096SOL     OW38219   6.097   5.338   6.556  0.2798  0.0098 -0.7357
12096SOL    HW138220   6.097   5.333   6.460  0.8250  1.7610 -0.8672
12096SOL    HW238221   6.055   5.422   6.576  0.0772 -0.3782  0.5659
12097SOL     OW38222   7.560   5.424   0.164 -0.1306  0.5775 -0.3372
12097SOL    HW138223   7.525   5.509   0.193  0.0591  1.2656 -1.9738
12097SOL    HW238224   7.647   5.419   0.203  0.5406  1.9618 -1.5312
12098SOL     OW38225   4.856   5.089   3.239  0.0176  0.7077  0.3446
12098SOL    HW138226   4.801   5.075   3.316 -0.1605  0.3628  0.1556
12098SOL    HW238227   4.918   5.157   3.266 -0.7031  1.3396  0.4573
12099SOL     OW38228   6.022   1.063   6.240 -0.4140 -0.5654  0.6325
12099SOL    HW138229   6.084   1.121   6.284  0.2459 -0.2489 -0.6610
12099SOL    HW238230   5.939   1.077   6.284 -0.5244  2.1522 -0.3009
12100SOL     OW38231   0.190   5.064   1.581 -0.7176  0.1503  0.0558
12100SOL    HW138232   0.252   5.008   1.535 -0.2449  0.0930  0.7459
12100SOL    HW238233   0.109   5.013   1.583 -0.4926 -0.2097  0.0623
12101SOL     OW38234   4.375   6.030   4.239 -0.2980  0.0900  0.0157
12101SOL    HW138235   4.441   6.008   4.173 -0.7083 -0.6760 -0.1573
12101SOL    HW238236   4.314   6.088   4.194 -0.4570 -0.2571 -0.2201
12102SOL     OW38237   7.021   8.259   7.949 -0.3323  0.0615  0.1515
12102SOL    HW138238   7.080   8.332   7.928 -1.2030  1.6746  2.7973
12102SOL    HW238239   6.934   8.298   7.947 -0.9714 -1.3217  0.1045
12103SOL     OW38240   0.159   1.592   4.803 -0.7771  0.5164  0.8469
12103SOL    HW138241   0.083   1.569   4.857 -1.8146  0.0830 -0.7087
12103SOL    HW238242   0.233   1.551   4.847 -1.6308 -0.1098  1.7498
12104SOL     OW38243   7.511   1.529   6.185  0.3491 -0.0135  0.1127
12104SOL    HW138244   7.456   1.452   6.198 -0.6421  0.7706  0.6774
12104SOL    HW238245   7.600   1.497   6.194 -0.0660 -1.0125  0.7733
12105SOL     OW38246   2.484   5.013   6.929  0.2564  0.2522 -0.4641
12105SOL    HW138247   2.467   4.935   6.876 -0.6624  0.4212 -0.4301
12105SOL    HW238248   2.495   5.084   6.866  0.9832  0.1243 -0.4901
12106SOL     OW38249   8.673   7.525   2.837 -0.4870  0.0330  0.2087
12106SOL    HW138250   8.671   7.438   2.798 -0.5712 -0.2444  0.8165
12106SOL    HW238251   8.582   7.551   2.842 -0.4433  0.2673 -0.2157
12107SOL     OW38252   1.158   0.299   5.672  0.3619  0.3383  0.2443
12107SOL    HW138253   1.102   0.355   5.618 -0.2414 -0.5303 -0.0630
12107SOL    HW238254   1.133   0.319   5.762  0.8023  1.2102  0.1856
12108SOL     OW38255   1.409   3.965   4.325 -0.8149 -0.2437  0.4259
12108SOL    HW138256   1.407   4.027   4.252  1.4297 -1.7921 -1.0651
12108SOL    HW238257   1.333   3.909   4.312  1.3289 -2.7228 -2.9486
12109SOL     OW38258   4.479   2.885   1.088 -0.9904  0.2478 -0.1486
12109SOL    HW138259   4.496   2.796   1.059  0.5648  1.0964 -2.0170
12109SOL    HW238260   4.474   2.879   1.184  0.1962 -1.6517 -0.1735
12110SOL     OW38261   7.923   5.678   8.128  0.0335  0.0519 -0.4470
12110SOL    HW138262   7.858   5.694   8.060 -0.3283  0.3820 -0.0288
12110SOL    HW238263   7.992   5.742   8.110 -0.3817  0.6069 -0.1010
12111SOL     OW38264   7.159   1.301   5.774  0.3064 -0.1167 -0.3127
12111SOL    HW138265   7.150   1.280   5.682 -1.2642 -0.8071 -0.0223
12111SOL    HW238266   7.076   1.275   5.814  1.2614 -0.6568  1.4455
12112SOL     OW38267   1.045   4.756   3.960 -0.2031  0.2486 -0.2840
12112SOL    HW138268   0.984   4.813   3.912 -2.0364 -0.5482  0.9571
12112SOL    HW238269   1.001   4.670   3.961  1.6513 -0.7642 -0.5671
12113SOL     OW38270   0.331   5.851   1.751  0.1132 -0.4150 -0.1866
12113SOL    HW138271   0.246   5.816   1.726  0.1873  0.5581 -2.0073
12113SOL    HW238272   0.312   5.927   1.805 -0.3738  1.4753 -2.8015
12114SOL     OW38273   3.417   3.153   8.550 -0.1698 -0.1138  0.2180
12114SOL    HW138274   3.481   3.085   8.570 -0.1258 -0.2294 -0.3190
12114SOL    HW238275   3.433   3.221   8.616  0.0171 -0.4647  0.5361
12115SOL     OW38276   1.651   0.180   4.884 -0.3220  0.3658 -0.1648
12115SOL    HW138277   1.626   0.203   4.795 -1.3545 -0.7390 -0.1853
12115SOL    HW238278   1.672   0.263   4.926 -1.1211  1.0250 -1.0487
12116SOL     OW38279   0.817   1.872   1.459 -0.6868 -0.3779 -0.1012
12116SOL    HW138280   0.792   1.805   1.397  0.4986  1.2415 -2.4667
12116SOL    HW238281   0.905   1.848   1.487  0.1727  0.6438 -1.7650
12117SOL     OW38282   3.287   4.407   3.047  0.1547  0.1868  0.4311
12117SOL    HW138283   3.223   4.348   3.006  1.3218 -0.7237 -0.1390
12117SOL    HW238284   3.367   4.395   2.996  1.3232 -0.0786  2.2535
12118SOL     OW38285   7.329   0.814   6.977  0.1633  0.1133 -0.6120
12118SOL    HW138286   7.414   0.774   6.962  0.0887 -0.1948 -0.2355
12118SOL    HW238287   7.274   0.783   6.905  0.3439  0.2436 -0.8064
12119SOL     OW38288   1.964   5.795   0.555 -0.0575  0.6851  0.2514
12119SOL    HW138289   2.042   5.851   0.564  0.2311  0.0793  1.8436
12119SOL    HW238290   1.965   5.741   0.634 -2.3626  0.9857  0.5401
12120SOL     OW38291   2.165   8.172   2.454 -0.0937  0.5377 -0.1201
12120SOL    HW138292   2.227   8.102   2.434  1.9106  2.1173  0.2015
12120SOL    HW238293   2.081   8.128   2.465  1.1459 -1.8301  0.4229
12121SOL     OW38294   3.872   0.669   8.180  0.4578  0.4700 -0.0650
12121SOL    HW138295   3.907   0.736   8.121 -0.8259  0.9795 -0.2870
12121SOL    HW238296   3.916   0.589   8.154  1.0844  0.9931 -0.6475
12122SOL     OW38297   3.313   3.456   6.742 -0.6747  0.0721 -0.5145
12122SOL    HW138298   3.246   3.390   6.761  0.0488 -0.8478 -1.0898
12122SOL    HW238299   3.272   3.515   6.680 -0.1850 -1.9535 -2.9417
12123SOL     OW38300   7.841   2.458   7.229  0.3679 -0.1538  0.4516
12123SOL    HW138301   7.855   2.449   7.323 -2.6326  0.0561  1.0163
12123SOL    HW238302   7.929   2.468   7.192  1.5828  0.5568  3.2916
12124SOL     OW38303   7.386   8.692   4.549 -0.5309  0.8549  0.2355
12124SOL    HW138304   7.421   8.694   4.639  0.5448  0.3311 -0.1576
12124SOL    HW238305   7.357   8.602   4.537 -0.1353  0.7732 -0.1368
12125SOL     OW38306   6.984   8.820   3.696 -0.2348  0.0742 -0.1825
12125SOL    HW138307   6.990   8.820   3.791  0.2985  0.1067 -0.2098
12125SOL    HW238308   6.891   8.836   3.677 -0.1631  1.2383  0.3274
12126SOL     OW38309   6.823   2.318   7.286  0.1566  0.0754 -0.0741
12126SOL    HW138310   6.903   2.265   7.282 -0.7499 -1.2666 -1.5002
12126SOL    HW238311   6.753   2.254   7.298 -0.8791  1.0509 -0.7701
12127SOL     OW38312   8.815   0.051   3.490 -0.3580  0.4944  0.0487
12127SOL    HW138313   8.812   0.064   3.395 -1.3728  0.8492  0.1174
12127SOL    HW238314   8.867   0.124   3.523 -0.9785  1.0241 -0.1318
12128SOL     OW38315   3.083   7.354   4.622 -0.2844  0.0930 -0.3149
12128SOL    HW138316   3.109   7.388   4.708 -1.2969 -1.3520  0.5943
12128SOL    HW238317   3.034   7.426   4.582  3.3565  2.2629 -1.3636
12129SOL     OW38318   8.140   2.645   8.455 -0.6880 -0.2690  0.4254
12129SOL    HW138319   8.126   2.739   8.458  0.2962 -0.1119  3.3146
12129SOL    HW238320   8.234   2.633   8.465 -0.6504 -1.5735 -1.0767
12130SOL     OW38321   2.810   5.424   2.913 -0.6385  0.0731 -0.0490
12130SOL    HW138322   2.833   5.461   2.998 -0.9817 -0.9498  0.5117
12130SOL    HW238323   2.890   5.382   2.882 -0.6643 -0.0433  0.0406
12131SOL     OW38324   1.918   0.848   8.854 -0.3596 -0.2974 -0.2222
12131SOL    HW138325   1.884   0.887   8.773  0.2798  0.7421 -0.0143
12131SOL    HW238326   1.840   0.825   8.904 -0.7605 -0.0557 -0.7191
12132SOL     OW38327   0.479   7.347   3.104 -0.0624 -0.4225  0.2654
12132SOL    HW138328   0.539   7.282   3.139  1.8921  1.4062  0.4941
12132SOL    HW238329   0.497   7.348   3.010 -0.2222 -0.3339  0.2359
12133SOL     OW38330   1.562   4.699   8.398 -0.1756  0.3162  0.0981
12133SOL    HW138331   1.656   4.690   8.411 -0.2161  0.2363  0.3283
12133SOL    HW238332   1.546   4.659   8.312  0.1282  1.0986 -0.3369
12134SOL     OW38333   4.168   6.863   4.220 -0.4297 -0.0237  0.5809
12134SOL    HW138334   4.252   6.828   4.249 -0.1175  0.2558  0.0315
12134SOL    HW238335   4.191   6.941   4.170 -1.0180  0.0604  0.4413
12135SOL     OW38336   1.197   3.475   0.469  0.0957 -0.0148  0.5246
12135SOL    HW138337   1.223   3.559   0.505 -0.9239  0.9153 -0.7979
12135SOL    HW238338   1.269   3.450   0.411  0.8623 -0.5908  1.6735
12136SOL     OW38339   5.954   4.206   6.577 -0.6409  0.0819  0.0742
12136SOL    HW138340   5.952   4.299   6.601 -0.3607 -0.1523  1.0477
12136SOL    HW238341   5.959   4.206   6.482  1.6632  1.0968  0.1355
12137SOL     OW38342   8.119   5.786   5.321 -0.0996 -0.0461  0.1636
12137SOL    HW138343   8.100   5.701   5.281  0.5487 -1.7703  3.1951
12137SOL    HW238344   8.115   5.848   5.249  0.0509 -2.7331 -2.3323
12138SOL     OW38345   3.525   4.969   4.964 -0.0569  0.4690 -0.2691
12138SOL    HW138346   3.474   4.971   4.883 -0.1060  1.8249 -0.2353
12138SOL    HW238347   3.536   4.876   4.984 -0.9527  0.1337 -1.2555
12139SOL     OW38348   2.680   7.476   0.067 -0.0897 -0.2965 -0.3698
12139SOL    HW138349   2.739   7.513   0.002  0.1787 -0.2748 -0.1130
12139SOL    HW238350   2.632   7.552   0.102  0.9661 -0.0828  0.6714
12140SOL     OW38351   1.962   7.078   1.686  0.1929 -0.1567  0.2830
12140SOL    HW138352   2.028   7.095   1.619  0.4710 -0.5891  0.4425
12140SOL    HW238353   1.905   7.155   1.684 -1.4492 -1.3039 -2.3554
12141SOL     OW38354   2.455   1.407   7.419 -0.1705  0.3445 -0.3980
12141SOL    HW138355   2.397   1.387   7.346 -2.4001 -0.1868  1.4150
12141SOL    HW238356   2.483   1.322   7.452  1.3310  0.5885 -0.9443
12142SOL     OW38357   6.902   6.074   0.234  0.5469  0.4960  0.4143
12142SOL    HW138358   6.946   5.997   0.269 -2.2855 -1.1244  0.7494
12142SOL    HW238359   6.937   6.084   0.145  0.3284 -1.8124  0.0047
12143SOL     OW38360   4.857   2.773   2.590 -0.1471 -0.1687  0.2522
12143SOL    HW138361   4.796   2.704   2.614 -0.2908  0.1849  0.9362
12143SOL    HW238362   4.925   2.730   2.538 -1.0535 -0.5376 -0.6409
12144SOL     OW38363   8.832   1.535   2.734 -0.8279 -0.3801  0.2640
12144SOL    HW138364   8.865   1.467   2.677  0.8189  0.0435  0.6617
12144SOL    HW238365   8.844   1.616   2.685  2.1958  0.1976  1.7308
12145SOL     OW38366   5.278   4.485   7.283  0.7174 -0.3058  0.1381
12145SOL    HW138367   5.356   4.537   7.303 -0.1390  1.7151 -1.3255
12145SOL    HW238368   5.207   4.550   7.279 -1.1824 -2.1353  1.9408
12146SOL     OW38369   6.403   3.933   7.192 -0.2578  0.3371 -0.0050
12146SOL    HW138370   6.340   3.929   7.264 -0.9090  0.2504 -0.5650
12146SOL    HW238371   6.358   3.892   7.118  0.0615  1.1861 -0.6994
12147SOL     OW38372   4.442   1.974   0.168  0.2210  0.0702 -0.1638
12147SOL    HW138373   4.393   2.016   0.238  0.2512  1.0342 -0.6985
12147SOL    HW238374   4.396   1.892   0.151 -0.2182  0.1843  0.4674
12148SOL     OW38375   7.152   5.927   1.301  0.4633  0.3184  0.0555
12148SOL    HW138376   7.102   6.006   1.283  1.3436  0.6278 -1.2088
12148SOL    HW238377   7.223   5.957   1.359 -0.0346  0.1484  0.7638
12149SOL     OW38378   6.183   0.048   0.442  0.4304  0.0465 -1.2915
12149SOL    HW138379   6.099   0.005   0.459  0.3819  0.4037 -0.5656
12149SOL    HW238380   6.212   0.012   0.358  0.4263 -1.4535 -0.6900
12150SOL     OW38381   7.366   7.065   5.172 -0.0743  0.2709  0.1474
12150SOL    HW138382   7.350   7.064   5.078  3.4526 -2.0140 -0.6241
12150SOL    HW238383   7.394   7.154   5.191 -0.3209  0.6211 -1.0724
12151SOL     OW38384   1.963   2.438   3.084  0.6398 -0.3324  0.0120
12151SOL    HW138385   1.920   2.523   3.080 -0.6564 -0.9288  0.5476
12151SOL    HW238386   2.018   2.434   3.006  0.9066  1.0752  0.1112
12152SOL     OW38387   3.976   0.111   5.826  0.0387  0.0845  0.0821
12152SOL    HW138388   3.965   0.155   5.911 -0.8700  1.1509 -0.5572
12152SOL    HW238389   3.929   0.167   5.764  1.7139 -0.0017 -1.3506
12153SOL     OW38390   1.501   2.667   4.145  0.4614  0.0935 -0.1921
12153SOL    HW138391   1.451   2.586   4.155 -0.1619  0.3108 -1.4000
12153SOL    HW238392   1.434   2.736   4.139  0.8891  0.4204 -1.5516
12154SOL     OW38393   1.215   3.898   2.847  0.1775  0.5147  0.5964
12154SOL    HW138394   1.217   3.988   2.879 -0.9910  0.7101  0.1703
12154SOL    HW238395   1.125   3.869   2.863  0.3936 -0.3967  0.2275
12155SOL     OW38396   4.668   1.814   2.184  0.0877  0.3911  0.2015
12155SOL    HW138397   4.578   1.827   2.212 -0.6288  0.9849 -2.1310
12155SOL    HW238398   4.676   1.865   2.104  2.8805  1.3688  0.9555
12156SOL     OW38399   5.768   4.323   3.032 -0.0333  0.8341 -0.0014
12156SOL    HW138400   5.765   4.298   3.124  0.2568  0.7890 -0.0036
12156SOL    HW238401   5.732   4.412   3.029  2.5436  1.9702  0.5475
12157SOL     OW38402   4.338   6.464   6.721  0.5035 -0.6798  0.8622
12157SOL    HW138403   4.288   6.404   6.777  1.5269 -1.6931  0.7390
12157SOL    HW238404   4.384   6.406   6.660 -0.6077  0.3717 -1.0996
12158SOL     OW38405   5.423   5.476   6.583  0.3301 -0.7062 -0.4967
12158SOL    HW138406   5.513   5.464   6.553 -0.1272 -1.1031 -1.7980
12158SOL    HW238407   5.422   5.562   6.625  0.8571  0.2792 -2.3796
12159SOL     OW38408   6.063   0.955   8.114 -0.0307  0.5358 -0.1277
12159SOL    HW138409   5.992   1.003   8.071 -0.8484 -0.4387  0.1105
12159SOL    HW238410   6.078   1.003   8.196 -0.5733  0.6036 -0.0669
12160SOL     OW38411   2.978   7.679   1.742  0.0780 -0.8576  0.2298
12160SOL    HW138412   2.940   7.597   1.774 -1.0530  0.2445  1.8563
12160SOL    HW238413   2.954   7.744   1.807  2.8734  0.3833  0.1878
12161SOL     OW38414   7.728   8.824   2.866 -0.1716  0.7070 -0.3229
12161SOL    HW138415   7.730   8.910   2.908 -0.4010  0.9558 -0.8124
12161SOL    HW238416   7.749   8.763   2.936 -0.6534  1.1062  0.1844
12162SOL     OW38417   5.040   4.134   6.960 -0.1420 -0.2644 -0.9343
12162SOL    HW138418   5.042   4.080   7.039 -0.3284 -0.3882 -1.0122
12162SOL    HW238419   5.024   4.222   6.992  1.1890 -0.0766 -0.7215
12163SOL     OW38420   1.633   5.902   1.111 -0.3730  0.3436 -0.4246
12163SOL    HW138421   1.549   5.856   1.110 -1.3767  2.0645  0.0697
12163SOL    HW238422   1.610   5.994   1.122  1.6446  0.7234  1.4324
12164SOL     OW38423   1.592   4.070   4.022  0.2785  0.2185 -0.0240
12164SOL    HW138424   1.560   3.996   3.970 -0.4625  0.5593 -0.0728
12164SOL    HW238425   1.630   4.129   3.957 -0.8105  0.7272 -0.2236
12165SOL     OW38426   2.722   0.904   2.625  0.5143 -0.0244 -0.0690
12165SOL    HW138427   2.812   0.870   2.625  0.7078  0.3979  1.2612
12165SOL    HW238428   2.676   0.851   2.560  1.4859 -0.9276 -0.0489
12166SOL     OW38429   6.933   7.344   1.282  0.1464 -0.2418 -0.2021
12166SOL    HW138430   6.947   7.438   1.273  0.2251 -0.2853 -0.5354
12166SOL    HW238431   6.845   7.329   1.249  0.9667 -0.6114 -2.4082
12167SOL     OW38432   8.154   1.939   0.473 -0.2500  0.5471 -0.0635
12167SOL    HW138433   8.184   1.996   0.402  0.4222  1.1593  0.6915
12167SOL    HW238434   8.186   1.982   0.552  1.5076 -1.6053  0.4709
12168SOL     OW38435   1.256   5.674   8.811  0.1171 -0.6148 -0.1444
12168SOL    HW138436   1.307   5.746   8.847  0.8897 -0.4194 -1.5488
12168SOL    HW238437   1.315   5.598   8.815  0.6575 -0.3485 -1.9476
12169SOL     OW38438   0.677   3.434   6.612  0.1561 -0.0403 -0.0848
12169SOL    HW138439   0.737   3.360   6.624  2.8241  2.0019 -0.0351
12169SOL    HW238440   0.643   3.451   6.700  1.6085  0.4092  0.4222
12170SOL     OW38441   6.958   7.119   6.078  0.2222  0.1820  0.0766
12170SOL    HW138442   6.962   7.215   6.080 -0.1140  0.1958  0.0904
12170SOL    HW238443   6.865   7.099   6.073  0.0071 -0.1863  3.3123
12171SOL     OW38444   5.958   0.340   6.831 -0.1190  0.2309  0.2300
12171SOL    HW138445   5.916   0.387   6.903  0.6485  1.7568 -0.2773
12171SOL    HW238446   5.894   0.344   6.760  0.3676  1.4807 -0.1534
12172SOL     OW38447   4.237   4.445   6.994  0.0553  0.3930 -0.1971
12172SOL    HW138448   4.147   4.450   6.962 -0.2313  0.6609  0.6092
12172SOL    HW238449   4.242   4.359   7.035 -0.0092  0.5935  0.2399
12173SOL     OW38450   3.761   8.110   2.049 -0.4180  0.0750  0.0323
12173SOL    HW138451   3.685   8.086   2.103  0.4634 -0.8037  0.9210
12173SOL    HW238452   3.746   8.066   1.966 -1.7766  1.4115 -0.4847
12174SOL     OW38453   6.071   3.118   5.962  0.3064  0.4709  0.0413
12174SOL    HW138454   6.056   3.112   5.868  2.1220 -0.9560 -0.2102
12174SOL    HW238455   6.125   3.196   5.973 -2.0738  2.2153  0.2924
12175SOL     OW38456   1.607   5.096   0.715 -0.1951 -0.4450 -0.0484
12175SOL    HW138457   1.677   5.135   0.663 -0.3251 -0.5154 -0.2736
12175SOL    HW238458   1.561   5.039   0.655 -2.1615  1.6672 -0.6868
12176SOL     OW38459   8.260   1.328   0.045  0.0883  0.3004  0.5382
12176SOL    HW138460   8.328   1.348  -0.020  0.7322  1.2878  1.4963
12176SOL    HW238461   8.235   1.238   0.025  0.6121  0.4179 -0.7804
12177SOL     OW38462   2.276   0.496   4.983  0.7933  0.1814  0.0048
12177SOL    HW138463   2.333   0.548   4.926  0.9401  1.8512  1.6163
12177SOL    HW238464   2.330   0.475   5.059  0.3336 -1.3080 -0.0380
12178SOL     OW38465   6.799   7.483   8.739  0.6246  0.0653  0.5412
12178SOL    HW138466   6.876   7.427   8.732 -0.0544 -0.8997  0.5070
12178SOL    HW238467   6.741   7.452   8.669  0.5317  1.3035  0.0518
12179SOL     OW38468   7.689   4.371   1.437  0.3844  0.0663 -0.8394
12179SOL    HW138469   7.770   4.390   1.390  0.7789  0.8075  0.1081
12179SOL    HW238470   7.639   4.316   1.377  0.3184  1.9833 -2.6551
12180SOL     OW38471   3.424   0.113   5.793 -0.2033  0.7069  0.1336
12180SOL    HW138472   3.496   0.091   5.734 -0.7464  0.8421 -0.5909
12180SOL    HW238473   3.452   0.194   5.836  0.3879  0.3666  0.4019
12181SOL     OW38474   3.409   7.917   0.083 -0.0203 -0.6616 -0.0013
12181SOL    HW138475   3.322   7.913   0.044 -0.8542  1.4456  1.4132
12181SOL    HW238476   3.406   7.853   0.155  0.2993 -1.9677 -1.1180
12182SOL     OW38477   6.291   1.397   6.128  0.0953 -0.6361 -0.3958
12182SOL    HW138478   6.216   1.399   6.068 -1.3514  0.5210  1.3782
12182SOL    HW238479   6.334   1.481   6.116 -1.8465  0.8360  2.0825
12183SOL     OW38480   0.713   5.087   4.908  0.1462  0.1354  0.3167
12183SOL    HW138481   0.632   5.040   4.925 -0.4154  1.1501  0.5443
12183SOL    HW238482   0.699   5.130   4.823  0.7323 -0.2873  0.0028
12184SOL     OW38483   4.856   2.413   3.696  0.2196  0.2821  0.9513
12184SOL    HW138484   4.810   2.428   3.613  0.2860 -0.4127  0.7823
12184SOL    HW238485   4.920   2.485   3.701 -1.8515  2.1732  1.9238
12185SOL     OW38486   2.356   3.958   4.391 -0.2206 -0.2677 -0.6069
12185SOL    HW138487   2.270   3.931   4.421 -0.5006 -0.2914 -1.3934
12185SOL    HW238488   2.342   4.045   4.353 -0.0466 -0.5492 -1.3483
12186SOL     OW38489   1.102   5.068   3.396 -0.2411  0.4783  0.3560
12186SOL    HW138490   1.129   5.109   3.314 -2.1247 -1.6837 -1.4786
12186SOL    HW238491   1.141   4.981   3.394  3.3517  1.7019  3.9827
12187SOL     OW38492   3.514   4.165   5.519 -0.1739  0.3148  0.1582
12187SOL    HW138493   3.575   4.204   5.582  0.6836 -1.0799  0.2339
12187SOL    HW238494   3.537   4.207   5.435  1.7325 -1.0203 -0.0416
12188SOL     OW38495   1.712   4.122   2.969  0.3368 -0.1280  0.3478
12188SOL    HW138496   1.664   4.195   3.008 -0.9656 -0.5150 -0.4757
12188SOL    HW238497   1.740   4.070   3.044 -2.4437 -1.0589  0.8755
12189SOL     OW38498   1.061   2.793   6.603 -0.0774  0.3234  0.3484
12189SOL    HW138499   1.025   2.845   6.675 -0.7539  0.0457  0.2203
12189SOL    HW238500   1.032   2.704   6.622 -1.4188  0.4339 -0.9624
12190SOL     OW38501   2.570   6.584   5.648 -0.6699 -0.1163 -0.1448
12190SOL    HW138502   2.622   6.641   5.592 -0.8310  0.9553  0.7712
12190SOL    HW238503   2.502   6.550   5.590 -0.9197  1.0828 -0.5928
12191SOL     OW38504   6.049   4.921   6.370  0.4196 -0.2346  0.2613
12191SOL    HW138505   6.103   4.992   6.336  3.0292 -2.8794 -1.5708
12191SOL    HW238506   6.062   4.924   6.464 -0.8867  2.6106  0.4637
12192SOL     OW38507   6.498   7.973   3.425 -0.0039 -0.3510 -0.0571
12192SOL    HW138508   6.500   7.928   3.510  1.9291  0.2562  0.2747
12192SOL    HW238509   6.487   8.066   3.447 -0.4010 -0.2818 -0.5305
12193SOL     OW38510   4.947   7.698   4.701 -0.3013  0.0650  0.4309
12193SOL    HW138511   4.979   7.725   4.787  0.9242  0.3902 -0.0946
12193SOL    HW238512   5.015   7.639   4.668 -0.7432 -0.0393 -0.3255
12194SOL     OW38513   0.996   1.513   6.342  0.1586 -0.2999  0.0738
12194SOL    HW138514   0.906   1.480   6.342 -0.0805  0.2210  2.2571
12194SOL    HW238515   0.987   1.608   6.344  0.8148 -0.1684 -1.6475
12195SOL     OW38516   4.535   3.005   1.723 -0.1208 -0.5010 -0.1849
12195SOL    HW138517   4.530   3.041   1.812  0.5149  1.1163 -0.7697
12195SOL    HW238518   4.472   2.933   1.723  0.3033 -0.9298  1.7484
12196SOL     OW38519   4.039   7.888   8.682  1.3075  0.5190  0.2504
12196SOL    HW138520   4.065   7.970   8.724 -0.1378  0.6705  0.9310
12196SOL    HW238521   3.943   7.892   8.678  1.2216 -0.9660 -0.0533
12197SOL     OW38522   5.151   3.102   6.025 -0.1887 -0.3093 -0.7966
12197SOL    HW138523   5.089   3.030   6.039  0.1230 -0.2642  1.0257
12197SOL    HW238524   5.194   3.081   5.942  0.0739 -2.3647 -0.1770
12198SOL     OW38525   1.564   6.682   0.284  0.3086 -0.3302  0.4928
12198SOL    HW138526   1.496   6.617   0.301  0.3658 -0.8474 -1.0734
12198SOL    HW238527   1.641   6.648   0.329  0.0286 -0.7305  0.6740
12199SOL     OW38528   6.343   4.485   8.596  0.4543  0.2987 -0.5175
12199SOL    HW138529   6.377   4.543   8.663  0.2469 -0.4695  0.2732
12199SOL    HW238530   6.386   4.512   8.515  0.2240  1.6570 -0.2019
12200SOL     OW38531   7.033   7.871   2.403 -0.3245 -0.1693  0.1978
12200SOL    HW138532   6.992   7.818   2.470 -1.8213 -0.4971 -0.9309
12200SOL    HW238533   7.048   7.956   2.445  0.0638 -0.7802  1.3372
12201SOL     OW38534   5.842   6.459   0.507  0.3072  0.3949  0.0871
12201SOL    HW138535   5.812   6.370   0.494  0.4323  0.1845  1.1407
12201SOL    HW238536   5.810   6.507   0.431 -0.9353 -0.2493  0.1829
12202SOL     OW38537   4.141   0.759   5.476 -0.1600  0.1731 -0.4277
12202SOL    HW138538   4.147   0.668   5.504 -0.9361  0.2646  0.0755
12202SOL    HW238539   4.225   0.798   5.500 -0.8623  0.3128  2.0682
12203SOL     OW38540   0.599   7.815   5.239 -0.5536  0.4312  0.0218
12203SOL    HW138541   0.531   7.875   5.269 -1.2517 -0.1848 -0.3207
12203SOL    HW238542   0.625   7.767   5.318 -0.9349  0.2531  0.0381
12204SOL     OW38543   3.498   8.298   7.648  0.1259  0.0107 -0.3348
12204SOL    HW138544   3.559   8.320   7.578  0.1761  1.2502  0.0702
12204SOL    HW238545   3.416   8.340   7.623 -0.1572 -0.4379 -0.1689
12205SOL     OW38546   1.640   6.441   2.943 -0.6210  1.1351  1.0033
12205SOL    HW138547   1.668   6.367   2.998  1.0084  0.7927 -0.1975
12205SOL    HW238548   1.606   6.400   2.863  0.8700  1.6351  0.0628
12206SOL     OW38549   5.332   3.319   0.783 -0.1797 -0.6701  0.1923
12206SOL    HW138550   5.391   3.244   0.781  0.4476 -0.2408  1.5941
12206SOL    HW238551   5.361   3.374   0.710  0.7862 -0.7397  0.5100
12207SOL     OW38552   6.256   7.467   1.804 -0.0288  0.3648  0.7712
12207SOL    HW138553   6.223   7.557   1.810  0.4120  0.8075 -1.9894
12207SOL    HW238554   6.253   7.434   1.894  0.5403  3.3903  2.0319
12208SOL     OW38555   7.124   0.300   5.438  0.0557 -0.3288  0.4622
12208SOL    HW138556   7.165   0.251   5.366 -0.8166  0.0528 -0.3073
12208SOL    HW238557   7.087   0.378   5.397 -0.4377 -0.0831  1.3361
12209SOL     OW38558   7.968   8.745   3.837 -0.1967  0.3030  0.6533
12209SOL    HW138559   7.928   8.804   3.773 -1.0054 -0.3438  0.5356
12209SOL    HW238560   7.904   8.673   3.846  0.1435  0.1256  1.7960
12210SOL     OW38561   6.120   7.163   4.868  0.1746  0.1511  0.3009
12210SOL    HW138562   6.072   7.089   4.905  0.9694  0.1793  1.4262
12210SOL    HW238563   6.094   7.238   4.922  0.0494  0.5304 -0.2753
12211SOL     OW38564   7.335   8.480   7.603  0.0773  0.4764  0.1434
12211SOL    HW138565   7.420   8.449   7.633  0.5704 -0.6574 -2.2367
12211SOL    HW238566   7.285   8.400   7.585 -1.5779  1.1090  1.5743
12212SOL     OW38567   3.984   4.974   6.314  0.9611 -0.1490  0.0445
12212SOL    HW138568   3.962   5.003   6.402 -1.2566  1.2847 -0.8616
12212SOL    HW238569   3.940   4.890   6.304 -2.6760  1.6237 -0.9565
12213SOL     OW38570   5.734   1.196   0.580 -0.0109  0.2055  0.6033
12213SOL    HW138571   5.686   1.188   0.663 -1.1463  0.0424 -0.0499
12213SOL    HW238572   5.761   1.107   0.560 -0.0847  0.1823  0.6041
12214SOL     OW38573   4.619   6.683   1.303 -0.2766  0.5346 -0.5732
12214SOL    HW138574   4.534   6.639   1.301 -0.9787  1.7890  0.1142
12214SOL    HW238575   4.650   6.679   1.213 -0.3546 -1.2485 -0.5474
12215SOL     OW38576   3.589   4.131   3.130  0.0769 -0.3206  0.3102
12215SOL    HW138577   3.575   4.195   3.060  0.8197 -0.2386  0.2201
12215SOL    HW238578   3.681   4.142   3.154 -0.4690  0.5275  2.1830
12216SOL     OW38579   0.935   3.947   3.244 -0.3315 -0.0562  0.1407
12216SOL    HW138580   0.863   3.895   3.207 -2.4658  1.7024  1.5786
12216SOL    HW238581   0.941   4.023   3.186 -0.3571  0.3075  0.6098
12217SOL     OW38582   4.709   7.367   1.670  0.2598  0.0426  0.1058
12217SOL    HW138583   4.803   7.376   1.658  0.5451 -2.4530 -0.0301
12217SOL    HW238584   4.695   7.273   1.683 -1.8832  0.5925  2.9686
12218SOL     OW38585   1.583   1.654   2.144 -0.2091 -0.6593  0.1694
12218SOL    HW138586   1.547   1.568   2.121 -0.1044 -0.7096  0.1936
12218SOL    HW238587   1.623   1.641   2.230  1.3565 -1.0397 -0.5775
12219SOL     OW38588   0.220   5.051   4.887  0.0207 -0.1752 -0.2578
12219SOL    HW138589   0.253   5.030   4.974  0.1731 -2.0962 -0.7256
12219SOL    HW238590   0.287   5.016   4.827 -0.2746  0.7410 -1.1522
12220SOL     OW38591   1.164   2.520   1.227 -0.0136 -0.1226 -0.5290
12220SOL    HW138592   1.160   2.441   1.280  2.3429 -0.0785 -0.1662
12220SOL    HW238593   1.157   2.592   1.290 -0.0920 -0.0461 -0.6238
12221SOL     OW38594   2.925   0.260   7.901 -0.3296 -0.5200  0.0834
12221SOL    HW138595   2.880   0.275   7.818 -0.3802  0.2597  0.2449
12221SOL    HW238596   2.869   0.301   7.966  1.9566  3.1344 -0.0133
12222SOL     OW38597   4.072   6.625   7.405  0.5185  0.2054 -0.2706
12222SOL    HW138598   4.006   6.564   7.371  0.6905 -1.0058  1.4513
12222SOL    HW238599   4.035   6.712   7.388 -1.0248 -0.4256 -0.3246
12223SOL     OW38600   4.222   7.260   0.683  0.4317  0.1307  0.0091
12223SOL    HW138601   4.140   7.291   0.722 -0.2170 -0.6232 -0.7067
12223SOL    HW238602   4.249   7.187   0.739  0.1432 -0.1760 -0.2446
12224SOL     OW38603   2.305   3.836   8.791 -0.0723 -0.3395 -0.6502
12224SOL    HW138604   2.335   3.749   8.762  1.3783  0.9819 -3.5120
12224SOL    HW238605   2.320   3.836   8.885  0.7999 -2.8401 -0.7012
12225SOL     OW38606   0.385   8.777   4.920  0.3047  0.1519 -0.0461
12225SOL    HW138607   0.328   8.748   4.991  1.8959 -0.9511  0.8392
12225SOL    HW238608   0.379   8.872   4.922 -0.1669  0.1094  1.1550
12226SOL     OW38609   2.205   1.760   1.799  0.0530 -0.2985 -0.1056
12226SOL    HW138610   2.299   1.752   1.810 -0.0187 -0.0173  0.7992
12226SOL    HW238611   2.184   1.847   1.833 -0.3717  0.1729 -1.4829
12227SOL     OW38612   5.494   5.192   3.309  0.6605  0.1021 -0.5894
12227SOL    HW138613   5.403   5.165   3.305  0.8415 -0.7123  0.4359
12227SOL    HW238614   5.524   5.191   3.218 -0.2260 -0.0278 -0.8857
12228SOL     OW38615   4.386   7.917   8.813 -0.0865  0.2209 -0.0762
12228SOL    HW138616   4.407   7.887   8.901 -1.6046  1.0996  0.6384
12228SOL    HW238617   4.381   7.838   8.760  1.1768 -0.2873  0.5396
12229SOL     OW38618   6.223   6.326   8.074  0.4518 -0.6934 -0.2755
12229SOL    HW138619   6.185   6.414   8.075 -0.5674 -1.0977 -1.3992
12229SOL    HW238620   6.185   6.282   8.150  0.6495 -0.3053  0.0525
12230SOL     OW38621   6.697   2.442   6.677 -0.2168  0.1399 -0.1876
12230SOL    HW138622   6.653   2.522   6.705  2.3051  1.1564  1.2736
12230SOL    HW238623   6.780   2.473   6.639  0.8213 -1.7486  0.4168
12231SOL     OW38624   2.574   5.240   7.575 -0.1064  0.0157 -0.0683
12231SOL    HW138625   2.552   5.208   7.488  2.2015 -0.7436 -0.4439
12231SOL    HW238626   2.490   5.250   7.620 -1.1955 -1.8482 -1.5926
12232SOL     OW38627   6.424   6.024   1.749  0.5728  0.0222 -0.2135
12232SOL    HW138628   6.354   6.012   1.813 -0.3507  2.1596 -0.7261
12232SOL    HW238629   6.434   5.939   1.707 -2.3699 -0.1792 -0.7011
12233SOL     OW38630   4.063   6.965   2.414  0.0645  0.2508  0.3623
12233SOL    HW138631   4.030   6.898   2.474  1.7483 -1.5258 -0.6005
12233SOL    HW238632   4.157   6.950   2.410  0.3984  2.2465 -0.4477
12234SOL     OW38633   3.022   6.183   6.684  0.0786  0.1105  0.0749
12234SOL    HW138634   2.996   6.270   6.653  0.5230  0.4866  0.7332
12234SOL    HW238635   3.108   6.169   6.645 -0.0180 -0.0647 -0.0777
12235SOL     OW38636   4.899   2.079   7.443 -0.3921 -0.4420 -0.4183
12235SOL    HW138637   4.954   2.152   7.472 -0.6387 -0.1142 -0.7724
12235SOL    HW238638   4.960   2.007   7.428 -0.0392 -0.0346 -0.9561
12236SOL     OW38639   5.164   7.699   7.722 -0.1444 -0.1311  0.1771
12236SOL    HW138640   5.191   7.611   7.697 -1.2736  0.1081 -2.0656
12236SOL    HW238641   5.246   7.743   7.746  0.5757 -1.4112  0.1539
12237SOL     OW38642   4.574   5.886   1.174 -0.4349  0.3873 -0.5617
12237SOL    HW138643   4.491   5.838   1.177 -0.3963  0.2521 -1.3119
12237SOL    HW238644   4.567   5.942   1.096  0.6563 -0.5456 -1.3727
12238SOL     OW38645   4.376   1.668   0.111  0.2939 -0.1766  0.1153
12238SOL    HW138646   4.464   1.682   0.075 -0.0047  3.9264  0.4663
12238SOL    HW238647   4.317   1.689   0.038 -0.3425  1.0799  0.9736
12239SOL     OW38648   5.605   3.123   5.296 -0.2607  0.2349 -0.1478
12239SOL    HW138649   5.597   3.201   5.350  0.4673 -0.8798  1.6575
12239SOL    HW238650   5.690   3.085   5.321  0.3150 -0.1267 -2.3920
12240SOL     OW38651   4.857   1.342   1.980  0.1535 -0.2671 -0.4628
12240SOL    HW138652   4.940   1.324   1.936  0.4389 -1.7505  0.5969
12240SOL    HW238653   4.861   1.434   2.003  1.8882 -0.4942  0.2794
12241SOL     OW38654   6.446   2.333   5.337  0.5288 -0.6509 -0.4775
12241SOL    HW138655   6.489   2.373   5.412  1.6079 -2.7544  0.1216
12241SOL    HW238656   6.366   2.293   5.373 -0.2009  0.3742 -0.9342
12242SOL     OW38657   7.134   1.853   5.607 -0.3033  0.1918 -0.2811
12242SOL    HW138658   7.138   1.933   5.554  1.6751 -0.4290 -1.1835
12242SOL    HW238659   7.166   1.880   5.693  0.3209  0.3915 -0.5687
12243SOL     OW38660   6.532   4.712   7.212  0.0793  0.1054  0.1980
12243SOL    HW138661   6.496   4.797   7.189  0.7356  0.0957 -0.9295
12243SOL    HW238662   6.619   4.731   7.248 -0.1520 -0.0265  0.8372
12244SOL     OW38663   0.180   3.167   8.244 -0.7070  0.3062  0.2840
12244SOL    HW138664   0.207   3.174   8.336 -0.6416  1.0175  0.2205
12244SOL    HW238665   0.086   3.182   8.245 -0.3043  3.7590 -0.0657
12245SOL     OW38666   3.017   7.992   5.792  0.1152 -0.2415  1.0872
12245SOL    HW138667   3.026   7.943   5.874 -1.1768  0.8829  1.9444
12245SOL    HW238668   3.050   8.079   5.812 -0.9764  0.2852  0.6805
12246SOL     OW38669   4.961   7.386   5.048 -0.4455  0.0901 -0.1387
12246SOL    HW138670   4.918   7.342   4.975 -1.3616 -1.0976  1.0650
12246SOL    HW238671   5.017   7.319   5.087  0.0504  0.7055  0.2259
12247SOL     OW38672   5.991   7.732   1.315 -0.2702 -0.5494  0.6011
12247SOL    HW138673   6.005   7.825   1.295 -1.5130 -0.3259  0.6436
12247SOL    HW238674   6.056   7.686   1.263  0.4944  0.3559  0.7298
12248SOL     OW38675   3.300   3.922   3.489  0.3833 -0.6337  0.2606
12248SOL    HW138676   3.339   3.938   3.403  0.9621 -2.0737  0.2199
12248SOL    HW238677   3.372   3.935   3.550  0.0168  0.2097  0.5196
12249SOL     OW38678   4.595   4.180   0.511  0.2752  0.0747 -0.2174
12249SOL    HW138679   4.521   4.119   0.508 -0.8016  1.3488 -0.7535
12249SOL    HW238680   4.611   4.203   0.420  1.1299  0.0568 -0.0786
12250SOL     OW38681   7.243   3.104   1.696  0.2275 -0.3255  0.0656
12250SOL    HW138682   7.312   3.094   1.761  0.5211 -0.0100 -0.1933
12250SOL    HW238683   7.275   3.058   1.619  0.0387 -0.3905  0.0246
12251SOL     OW38684   3.075   0.526   7.519 -0.4878  0.1060  0.1160
12251SOL    HW138685   2.982   0.513   7.537 -0.7654 -0.8076 -1.7448
12251SOL    HW238686   3.079   0.550   7.426  1.1665 -0.5797 -0.0360
12252SOL     OW38687   7.922   6.987   7.477  0.5082 -0.6891 -0.3986
12252SOL    HW138688   7.976   6.984   7.399 -0.0156 -1.2064 -0.7501
12252SOL    HW238689   7.837   7.020   7.447  0.7927  0.7315  0.2555
12253SOL     OW38690   3.272   7.036   0.996 -0.0794  0.6759  0.0918
12253SOL    HW138691   3.289   7.128   1.015 -1.0814  0.5622  1.7110
12253SOL    HW238692   3.179   7.024   1.013  0.4183 -1.1015  2.1464
12254SOL     OW38693   3.264   3.409   4.459 -0.5018 -0.0659 -0.3283
12254SOL    HW138694   3.175   3.408   4.423 -1.0310 -0.4063  0.9418
12254SOL    HW238695   3.273   3.324   4.502 -0.1807  0.6239  1.0109
12255SOL     OW38696   6.811   2.215   5.172  0.3400 -0.4147  0.1064
12255SOL    HW138697   6.753   2.291   5.172 -0.0368 -0.6954 -0.3132
12255SOL    HW238698   6.770   2.154   5.233 -0.3206 -0.9842 -0.8750
12256SOL     OW38699   1.574   5.584   5.961  0.1300  0.6537 -0.5830
12256SOL    HW138700   1.522   5.546   6.032 -0.3334  0.6779 -0.9001
12256SOL    HW238701   1.513   5.586   5.887  0.5526  0.8024 -0.9242
12257SOL     OW38702   7.649   5.284   4.468 -0.4493 -0.2543 -0.2576
12257SOL    HW138703   7.697   5.240   4.538  0.1312 -1.6011 -1.4449
12257SOL    HW238704   7.656   5.225   4.393 -1.6712  0.7967 -1.2559
12258SOL     OW38705   8.858   2.210   5.825  0.1393 -0.7526 -0.3356
12258SOL    HW138706   8.795   2.160   5.774  0.3979 -1.1234 -0.2910
12258SOL    HW238707   8.885   2.151   5.895 -0.9292  0.0748  0.8168
12259SOL     OW38708   2.243   7.939   7.069  0.4201 -0.4173  0.2545
12259SOL    HW138709   2.265   8.032   7.063 -0.7860 -0.1015  0.4205
12259SOL    HW238710   2.180   7.934   7.141  2.0830 -1.6926  1.6905
12260SOL     OW38711   1.209   8.020   6.329  0.3240  0.2021 -0.1567
12260SOL    HW138712   1.196   8.007   6.235  0.4888  1.9578 -0.4636
12260SOL    HW238713   1.286   8.077   6.335 -1.0155  1.9957  0.9066
12261SOL     OW38714   7.721   6.314   2.104  0.4280  0.3983  0.1123
12261SOL    HW138715   7.649   6.271   2.058  0.3657  0.0904  0.5000
12261SOL    HW238716   7.704   6.408   2.092 -0.0588  0.3295  0.2338
12262SOL     OW38717   6.409   2.499   6.192 -0.1040 -0.4283  0.3081
12262SOL    HW138718   6.395   2.570   6.255  0.1054 -1.5616  1.6678
12262SOL    HW238719   6.328   2.448   6.194  0.1795 -0.8875  0.2164
12263SOL     OW38720   7.883   4.612   8.369 -0.2707  0.0391  0.1639
12263SOL    HW138721   7.927   4.665   8.435 -1.0566  1.2657 -0.2758
12263SOL    HW238722   7.849   4.675   8.306  0.9693 -1.1127 -1.7736
12264SOL     OW38723   6.979   4.052   4.712  0.0472  0.0151 -0.1781
12264SOL    HW138724   6.994   3.970   4.759  0.0332 -0.6109 -1.2552
12264SOL    HW238725   7.066   4.082   4.686  0.0058  0.0599 -0.2650
12265SOL     OW38726   5.405   1.232   0.986  0.2072  0.4516 -0.0766
12265SOL    HW138727   5.488   1.186   0.972 -0.9207 -2.2524  1.3091
12265SOL    HW238728   5.403   1.248   1.080 -1.7419 -1.5576  0.2930
12266SOL     OW38729   6.515   6.351   8.434 -0.6467  0.3409  0.0787
12266SOL    HW138730   6.465   6.360   8.353  2.0309 -0.9175 -1.8392
12266SOL    HW238731   6.605   6.372   8.410  0.3537 -0.6608  2.5834
12267SOL     OW38732   1.567   2.441   6.237  0.2275 -0.1772  0.3144
12267SOL    HW138733   1.638   2.490   6.279 -2.6527  2.4548  2.5835
12267SOL    HW238734   1.523   2.396   6.310 -0.8637 -1.2192 -0.9236
12268SOL     OW38735   5.146   5.393   5.673 -0.6554  0.1822  0.2073
12268SOL    HW138736   5.183   5.333   5.737 -2.5371 -1.2974  0.0134
12268SOL    HW238737   5.190   5.476   5.690  1.2309 -0.9615  1.2329
12269SOL     OW38738   0.328   7.813   7.441  0.2989  0.0762  0.0992
12269SOL    HW138739   0.382   7.852   7.509  0.2826 -0.8059  0.6285
12269SOL    HW238740   0.239   7.820   7.474  0.3697 -1.1942  0.6205
12270SOL     OW38741   3.813   4.420   1.284 -0.2936 -0.2096  0.6700
12270SOL    HW138742   3.813   4.364   1.206 -1.2025 -1.2753  1.3991
12270SOL    HW238743   3.722   4.418   1.315 -0.4054  1.8473  0.6284
12271SOL     OW38744   4.791   5.927   4.809  0.1989  0.6844 -0.7638
12271SOL    HW138745   4.846   5.905   4.884 -0.3851 -0.2740 -0.5878
12271SOL    HW238746   4.730   5.992   4.843 -0.6636 -0.4193 -0.1153
12272SOL     OW38747   2.773   7.535   7.707 -0.0198 -0.6508 -0.5327
12272SOL    HW138748   2.868   7.543   7.713  0.0252 -1.7125  0.5255
12272SOL    HW238749   2.757   7.441   7.704 -1.1063 -0.5561  1.0281
12273SOL     OW38750   7.042   2.418   5.841 -0.1898 -0.1780 -0.1344
12273SOL    HW138751   7.020   2.330   5.809 -0.3965  0.0832 -0.7193
12273SOL    HW238752   7.010   2.419   5.931 -1.1804 -0.3319 -0.4795
12274SOL     OW38753   4.894   2.615   4.288  0.0571  0.5479  0.0386
12274SOL    HW138754   4.897   2.659   4.203  1.1168 -1.0092 -0.7844
12274SOL    HW238755   4.838   2.671   4.342  0.1725  2.1096 -1.3621
12275SOL     OW38756   4.910   4.497   7.425 -0.3889  0.0717  0.4423
12275SOL    HW138757   4.826   4.542   7.431 -0.3055  0.2125  0.5700
12275SOL    HW238758   4.968   4.558   7.379 -0.3849 -0.0680  0.2614
12276SOL     OW38759   6.944   3.025   8.679 -0.0773  0.0236  0.1697
12276SOL    HW138760   6.932   2.975   8.760  0.7099  0.2198  0.4191
12276SOL    HW238761   6.856   3.055   8.656 -0.1776  0.9162  1.5856
12277SOL     OW38762   7.415   2.980   7.508  0.8516  0.4448 -0.1815
12277SOL    HW138763   7.363   2.988   7.428  0.2885 -0.7468  0.0442
12277SOL    HW238764   7.471   2.904   7.492  0.5597  0.0443  0.6405
12278SOL     OW38765   2.215   4.648   1.456  0.4180 -0.5993  0.3044
12278SOL    HW138766   2.269   4.580   1.495  2.0453  0.2419 -0.3954
12278SOL    HW238767   2.127   4.631   1.490  0.8576 -2.7628  0.4911
12279SOL     OW38768   4.322   7.766   4.222 -0.2810 -0.5608 -0.2733
12279SOL    HW138769   4.272   7.834   4.268  1.1057  2.5024 -2.8347
12279SOL    HW238770   4.404   7.759   4.271 -0.9116 -1.3096  0.6888
12280SOL     OW38771   5.237   1.835   7.888  0.5408  0.2430  0.5512
12280SOL    HW138772   5.327   1.835   7.919  0.5077  0.9267  0.6521
12280SOL    HW238773   5.202   1.919   7.915 -0.2335 -0.1503  0.8070
12281SOL     OW38774   6.934   6.076   3.388 -0.2050 -0.0565 -0.0071
12281SOL    HW138775   7.028   6.085   3.373  0.0410 -0.1877  1.3246
12281SOL    HW238776   6.918   5.982   3.385 -0.1563 -0.0836  0.4636
12282SOL     OW38777   0.579   3.412   6.144 -0.2445 -0.4037  0.0047
12282SOL    HW138778   0.549   3.389   6.232  0.9048  1.1122  0.8452
12282SOL    HW238779   0.673   3.396   6.145  0.2332  1.9723 -0.0741
12283SOL     OW38780   8.245   7.790   1.662 -0.2374 -0.0684 -0.3067
12283SOL    HW138781   8.191   7.820   1.735  0.9663 -0.2199  0.6977
12283SOL    HW238782   8.228   7.696   1.658 -0.1681 -0.0929 -0.0788
12284SOL     OW38783   5.643   7.380   5.304  0.1995 -0.4227 -0.3419
12284SOL    HW138784   5.738   7.387   5.313  0.1604  0.1465 -0.3375
12284SOL    HW238785   5.630   7.341   5.218  0.4484 -0.9437 -0.1460
12285SOL     OW38786   3.758   0.682   5.829 -0.2400 -0.2133  0.1435
12285SOL    HW138787   3.720   0.727   5.905  0.5777 -0.4285  0.7013
12285SOL    HW238788   3.790   0.598   5.865  0.2632 -0.2640 -0.4092
12286SOL     OW38789   5.845   4.915   1.251  0.2882 -0.0752 -0.5189
12286SOL    HW138790   5.824   4.903   1.344  1.4167  1.4676 -0.0232
12286SOL    HW238791   5.773   4.969   1.217  0.4163  0.2505 -0.2756
12287SOL     OW38792   1.045   8.232   8.234 -0.1621  0.4361 -0.8877
12287SOL    HW138793   1.036   8.308   8.291 -0.6060  0.3924 -0.9020
12287SOL    HW238794   1.100   8.172   8.284 -0.4593  0.4438 -0.5483
12288SOL     OW38795   4.409   4.851   0.236 -0.0325 -0.2206  0.3741
12288SOL    HW138796   4.369   4.882   0.317  1.9315 -1.5374  1.9655
12288SOL    HW238797   4.336   4.817   0.184 -1.3691  0.8913  1.4584
12289SOL     OW38798   2.243   8.118   2.842 -0.2225  0.0773  0.0217
12289SOL    HW138799   2.227   8.103   2.749  0.5019 -1.4684  0.1174
12289SOL    HW238800   2.193   8.050   2.887 -1.9981  1.8550  0.9169
12290SOL     OW38801   5.791   0.083   5.306 -0.3837 -0.2238 -0.2412
12290SOL    HW138802   5.868   0.139   5.313 -0.4105 -0.1668 -0.4139
12290SOL    HW238803   5.738   0.104   5.384  0.1543 -0.8333  0.3022
12291SOL     OW38804   1.048   8.390   2.469  0.6280 -0.2681  0.2316
12291SOL    HW138805   1.051   8.446   2.391 -2.9921 -0.2240 -0.0516
12291SOL    HW238806   1.090   8.309   2.442  0.2737  0.0895 -1.5139
12292SOL     OW38807   7.226   8.451   0.245  0.2058  0.0561 -0.3988
12292SOL    HW138808   7.216   8.546   0.243  0.0593  0.0641  0.3782
12292SOL    HW238809   7.172   8.423   0.319  0.3217 -0.6238 -0.5634
12293SOL     OW38810   8.627   6.788   4.995  0.4935 -0.1133  0.0106
12293SOL    HW138811   8.650   6.701   4.961  0.0253 -0.5428  0.7620
12293SOL    HW238812   8.619   6.842   4.917  0.1852 -0.8975 -0.5211
12294SOL     OW38813   2.059   1.265   7.198  0.3699 -0.3531 -0.3125
12294SOL    HW138814   1.998   1.305   7.136  0.0394 -0.2516  0.0714
12294SOL    HW238815   2.109   1.202   7.146 -0.0355 -0.4063 -0.6436
12295SOL     OW38816   1.907   5.181   3.014 -0.4878  0.0605  0.3857
12295SOL    HW138817   1.929   5.274   3.009 -0.6193  0.0857  0.2819
12295SOL    HW238818   1.812   5.179   3.007 -0.9635  0.2463  4.5005
12296SOL     OW38819   0.533   5.257   4.426  0.2891  0.5526 -0.2154
12296SOL    HW138820   0.513   5.176   4.378  0.3079  0.6489 -0.3866
12296SOL    HW238821   0.456   5.313   4.411  0.0975  0.4191  0.2298
12297SOL     OW38822   3.946   0.216   8.353  0.2017 -0.0411  0.3744
12297SOL    HW138823   3.875   0.188   8.295 -0.7516  1.9868  0.4670
12297SOL    HW238824   3.902   0.233   8.437  0.8928  0.6306  0.6075
12298SOL     OW38825   1.611   3.809   3.510  0.2772 -0.0771 -0.0321
12298SOL    HW138826   1.637   3.720   3.535  0.8109 -0.2765 -1.2176
12298SOL    HW238827   1.518   3.813   3.531 -0.3541 -1.7883 -2.1847
12299SOL     OW38828   7.082   1.132   3.653  0.0257 -0.1224  0.5719
12299SOL    HW138829   7.094   1.188   3.730  0.7044 -2.4571  2.2609
12299SOL    HW238830   7.170   1.098   3.635 -0.0944  0.4661 -1.3835
12300SOL     OW38831   4.406   1.932   6.969  0.6980  0.0982  0.4813
12300SOL    HW138832   4.421   1.894   7.055  1.6120 -2.0369 -0.5407
12300SOL    HW238833   4.327   1.985   6.980 -0.0868 -1.3223  2.2819
12301SOL     OW38834   0.036   5.196   6.932  0.0232 -0.4194  0.1597
12301SOL    HW138835   0.015   5.276   6.884 -1.3698 -0.9310 -0.1420
12301SOL    HW238836   0.031   5.221   7.024 -1.4108 -0.3474  0.0909
12302SOL     OW38837   6.064   3.745   3.058 -0.3201 -0.5568 -0.0016
12302SOL    HW138838   6.155   3.718   3.071 -0.3284  0.3433  2.7002
12302SOL    HW238839   6.069   3.839   3.037 -0.5990 -0.7304 -0.8771
12303SOL     OW38840   0.976   7.719   0.694  0.3483  0.4618 -0.6732
12303SOL    HW138841   0.994   7.717   0.788  0.9282  0.3373 -0.7827
12303SOL    HW238842   0.982   7.811   0.670  2.4876  0.2825 -1.0045
12304SOL     OW38843   8.516   6.837   7.132 -0.2300 -0.3750  0.3607
12304SOL    HW138844   8.521   6.928   7.164 -2.0868  0.6531 -1.9636
12304SOL    HW238845   8.603   6.819   7.098 -0.1164  0.9490 -0.1088
12305SOL     OW38846   3.938   5.636   2.702  0.2593 -1.5077  0.1921
12305SOL    HW138847   3.856   5.686   2.696  1.2508  0.0837 -1.1835
12305SOL    HW238848   3.930   5.586   2.783  0.1373  2.6960  3.1028
12306SOL     OW38849   3.906   3.916   0.280 -0.2096 -0.1404  0.4230
12306SOL    HW138850   3.889   3.893   0.371  1.2765 -2.0426  0.2770
12306SOL    HW238851   3.972   3.853   0.251  0.4310  1.3382 -1.5539
12307SOL     OW38852   7.310   2.399   1.405 -0.3549 -0.1069  0.2437
12307SOL    HW138853   7.241   2.417   1.468 -1.0890 -1.8094 -0.0273
12307SOL    HW238854   7.363   2.479   1.405 -1.0961  0.4440  2.0026
12308SOL     OW38855   2.908   6.277   3.173  0.0830  0.0836 -0.6881
12308SOL    HW138856   2.856   6.229   3.108 -1.1248  0.2220  0.1329
12308SOL    HW238857   2.951   6.209   3.225  0.7589 -0.0325 -1.3736
12309SOL     OW38858   8.013   8.125   0.008  0.4748  0.0318  0.0045
12309SOL    HW138859   8.073   8.141   0.081  1.4298 -0.7767 -0.5727
12309SOL    HW238860   8.070   8.106  -0.066 -0.4930 -0.0927 -0.7302
12310SOL     OW38861   6.591   0.259   3.588 -0.1254  0.3979  0.1515
12310SOL    HW138862   6.537   0.264   3.509  0.5593 -0.5765 -0.3888
12310SOL    HW238863   6.605   0.166   3.602 -0.5474  0.5327  1.6482
12311SOL     OW38864   2.556   2.173   8.854  0.3891  0.3248 -0.0880
12311SOL    HW138865   2.561   2.116   8.930 -0.7166  0.4013  0.0491
12311SOL    HW238866   2.509   2.251   8.885 -0.5404  0.1327 -0.9650
12312SOL     OW38867   2.767   4.848   2.512 -0.2432 -0.0694 -0.1849
12312SOL    HW138868   2.786   4.859   2.605  1.5159  2.2309 -0.7231
12312SOL    HW238869   2.853   4.841   2.471 -0.9970 -1.1856 -1.6613
12313SOL     OW38870   6.887   7.852   7.058  0.5680  0.2137  0.5555
12313SOL    HW138871   6.967   7.804   7.041  0.7781  0.6039  0.4404
12313SOL    HW238872   6.821   7.784   7.074  0.7101 -0.1271 -0.2591
12314SOL     OW38873   6.309   2.078   4.546  0.3188 -0.1255 -0.5185
12314SOL    HW138874   6.260   2.029   4.480  0.6194  0.6909 -1.3826
12314SOL    HW238875   6.250   2.149   4.572  0.8768  0.6442 -1.2924
12315SOL     OW38876   2.916   2.706   6.336  0.6913 -0.4752  0.1435
12315SOL    HW138877   2.947   2.634   6.392  1.1607  0.5066  1.1716
12315SOL    HW238878   2.820   2.702   6.343  0.6184 -2.0793 -1.2097
12316SOL     OW38879   2.688   8.257   1.642 -0.0148  0.1318 -0.0044
12316SOL    HW138880   2.770   8.224   1.604  1.7495  0.1728  3.3674
12316SOL    HW238881   2.705   8.260   1.736 -3.5255  1.3655  0.7402
12317SOL     OW38882   4.849   1.924   1.742 -0.6585 -0.2405 -0.3583
12317SOL    HW138883   4.810   2.009   1.764  1.0039  0.7838 -1.1288
12317SOL    HW238884   4.774   1.865   1.735 -2.2765  1.8164 -2.7486
12318SOL     OW38885   0.798   5.570   2.851  0.2119  0.1580  0.0286
12318SOL    HW138886   0.726   5.622   2.887  0.1152 -0.0725  0.1675
12318SOL    HW238887   0.806   5.496   2.911  1.2229  0.6982  0.5782
12319SOL     OW38888   8.486   1.774   1.148  0.4368  0.2853  1.0135
12319SOL    HW138889   8.530   1.854   1.176 -1.8826  2.0501 -0.1245
12319SOL    HW238890   8.396   1.800   1.129 -0.0012 -2.2547 -0.9921
12320SOL     OW38891   8.457   1.965   3.155  0.0305  0.0305  0.2414
12320SOL    HW138892   8.548   1.945   3.178 -0.3312 -1.1191  0.7603
12320SOL    HW238893   8.410   1.884   3.172 -0.8901  0.2243 -1.2237
12321SOL     OW38894   6.274   2.648   7.247 -0.3273  0.0308 -0.0677
12321SOL    HW138895   6.350   2.599   7.216 -0.0320  0.2134  0.3584
12321SOL    HW238896   6.237   2.688   7.168  2.1358  2.9612  0.0943
12322SOL     OW38897   7.730   0.574   8.846 -0.4370  0.0009  0.4083
12322SOL    HW138898   7.680   0.648   8.812 -1.2823 -0.2563  1.0426
12322SOL    HW238899   7.666   0.523   8.896 -0.1935 -1.9190 -1.1287
12323SOL     OW38900   6.341   7.365   3.751  0.1316  0.0685 -0.0461
12323SOL    HW138901   6.433   7.344   3.739  0.2184 -0.2725  1.1033
12323SOL    HW238902   6.340   7.428   3.823 -0.6507 -1.4855  1.3900
12324SOL     OW38903   3.987   7.285   1.178  0.2933 -0.3512  0.1076
12324SOL    HW138904   3.992   7.380   1.185  1.0658 -0.2296 -1.5764
12324SOL    HW238905   4.029   7.252   1.257 -1.1829  0.6837  1.3588
12325SOL     OW38906   6.031   8.368   0.082 -0.4683 -0.1630 -0.1563
12325SOL    HW138907   6.083   8.378   0.162  2.0758  0.5144 -1.7857
12325SOL    HW238908   6.017   8.457   0.051  3.1178 -0.3715 -3.0750
12326SOL     OW38909   2.711   3.652   2.797  0.2982 -0.1571  0.3582
12326SOL    HW138910   2.668   3.727   2.837 -0.3066 -0.9973  1.3210
12326SOL    HW238911   2.715   3.586   2.867  1.8381 -0.6209 -0.1325
12327SOL     OW38912   8.276   7.092   7.720 -0.0945  0.1092 -0.2596
12327SOL    HW138913   8.337   7.158   7.752 -0.2452  0.4762 -0.7045
12327SOL    HW238914   8.233   7.058   7.799 -0.6005  1.1286 -0.0719
12328SOL     OW38915   6.639   4.878   7.563 -0.3868 -0.0988 -0.1087
12328SOL    HW138916   6.590   4.928   7.497 -0.4904 -2.1301 -1.6979
12328SOL    HW238917   6.586   4.799   7.576 -0.4943  0.3396  2.6770
12329SOL     OW38918   2.738   2.986   4.151 -0.3555  0.2779  0.4927
12329SOL    HW138919   2.831   3.003   4.143 -0.0341 -1.3053  0.5068
12329SOL    HW238920   2.706   2.980   4.061 -0.0201 -1.1456  0.4409
12330SOL     OW38921   1.882   2.747   7.452  0.0014 -0.0418  0.2412
12330SOL    HW138922   1.873   2.679   7.519  0.3021 -0.0971  0.2292
12330SOL    HW238923   1.965   2.789   7.472  0.1923 -0.1953 -0.2166
12331SOL     OW38924   5.458   6.956   2.120 -0.3729 -0.4068 -0.4400
12331SOL    HW138925   5.372   6.983   2.153 -0.4349 -0.2188 -0.7538
12331SOL    HW238926   5.484   7.026   2.060  0.7152  0.3386  0.8424
12332SOL     OW38927   7.667   6.578   7.236  0.2028  0.0923  0.4491
12332SOL    HW138928   7.737   6.591   7.300  0.6429 -0.9669  0.2039
12332SOL    HW238929   7.653   6.665   7.198  2.7940 -0.0032 -0.9266
12333SOL     OW38930   7.514   2.603   2.067  0.3585  0.3594  0.7409
12333SOL    HW138931   7.468   2.544   2.127 -0.5909 -1.9248 -2.0041
12333SOL    HW238932   7.447   2.666   2.038 -0.1341 -0.6451 -0.4027
12334SOL     OW38933   6.916   3.447   7.746  0.8508  0.0410  0.0012
12334SOL    HW138934   6.993   3.424   7.694  0.0650 -0.2997 -1.0568
12334SOL    HW238935   6.845   3.396   7.706 -0.0508  0.8674  0.5264
12335SOL     OW38936   4.872   0.855   8.739  0.1080  1.0229 -0.4464
12335SOL    HW138937   4.876   0.802   8.818 -0.9732 -0.3921 -1.2891
12335SOL    HW238938   4.796   0.912   8.752 -0.2306  0.6044 -0.5618
12336SOL     OW38939   2.542   7.280   7.374  0.0232  0.6739 -0.0724
12336SOL    HW138940   2.472   7.339   7.345 -0.1495  0.7259  0.4398
12336SOL    HW238941   2.555   7.219   7.301 -0.1325  1.0427 -0.4110
12337SOL     OW38942   8.563   4.462   3.108  0.4771  0.0018  0.1134
12337SOL    HW138943   8.615   4.542   3.105  0.9123 -0.2588  0.5509
12337SOL    HW238944   8.578   4.427   3.195 -1.1353  0.3778  0.5738
12338SOL     OW38945   1.223   4.647   2.183  0.0639  0.0825 -0.0177
12338SOL    HW138946   1.255   4.668   2.270  0.1141 -1.3061  0.3206
12338SOL    HW238947   1.127   4.652   2.190  0.0489 -0.5091  0.2568
12339SOL     OW38948   5.232   4.631   6.066  0.3021 -0.0702 -0.1375
12339SOL    HW138949   5.247   4.716   6.025 -1.8569 -0.4223 -1.8157
12339SOL    HW238950   5.236   4.568   5.993  0.4142 -1.2525  0.8454
12340SOL     OW38951   8.096   7.682   8.639  0.4017 -0.7883  0.1306
12340SOL    HW138952   8.185   7.657   8.663  0.9737  0.3864 -0.6528
12340SOL    HW238953   8.088   7.772   8.671 -0.6214 -0.9914  0.4651
12341SOL     OW38954   3.974   6.751   2.578 -0.1499  0.1895 -0.0351
12341SOL    HW138955   3.927   6.767   2.659  0.6999  0.0656  0.4916
12341SOL    HW238956   3.912   6.701   2.524 -0.7948  0.4567  0.4402
12342SOL     OW38957   1.130   2.531   4.470 -0.2798 -0.5534 -0.0895
12342SOL    HW138958   1.174   2.539   4.555 -0.0784  0.1206 -0.2498
12342SOL    HW238959   1.091   2.444   4.471 -0.2301 -0.5742  0.6758
12343SOL     OW38960   7.239   8.800   4.366 -0.0185 -0.0608 -0.0510
12343SOL    HW138961   7.286   8.756   4.436 -0.5520 -0.9507 -0.2401
12343SOL    HW238962   7.175   8.736   4.335  0.2267  0.3068 -1.3780
12344SOL     OW38963   4.291   3.681   4.833 -0.1390 -0.2350  0.2413
12344SOL    HW138964   4.350   3.645   4.899  0.7564 -0.1826 -0.5122
12344SOL    HW238965   4.214   3.625   4.836  1.4905 -2.7405 -1.3835
12345SOL     OW38966   1.186   1.703   1.021  0.2666  0.1555 -0.3476
12345SOL    HW138967   1.165   1.776   0.963 -1.2720  0.4491  0.5382
12345SOL    HW238968   1.227   1.638   0.963  0.8846  1.3623 -1.3037
12346SOL     OW38969   4.753   5.028   2.011 -0.2778  0.3559  0.0996
12346SOL    HW138970   4.697   5.105   1.997  1.8641  1.8774 -0.5595
12346SOL    HW238971   4.787   5.039   2.099  0.2954  0.3440 -0.1183
12347SOL     OW38972   1.276   7.036   5.632  0.1763  0.4989 -0.3687
12347SOL    HW138973   1.266   7.012   5.540  0.6112 -1.0131 -0.0540
12347SOL    HW238974   1.191   7.071   5.658 -0.0880  0.4916 -1.2143
12348SOL     OW38975   4.234   1.929   1.584 -0.4086 -0.5324 -0.7621
12348SOL    HW138976   4.205   1.870   1.515 -1.5471  0.7252 -1.4194
12348SOL    HW238977   4.293   1.990   1.540  0.0244 -0.6137 -0.3010
12349SOL     OW38978   0.075   7.525   3.848 -0.0260  0.4662  0.1575
12349SOL    HW138979   0.070   7.521   3.753  0.3222  2.1092  0.0306
12349SOL    HW238980   0.027   7.605   3.871  0.9339  0.7770  1.2312
12350SOL     OW38981   1.595   0.622   0.740  0.8319 -0.0991 -0.0982
12350SOL    HW138982   1.517   0.607   0.688  0.6727 -0.2741  0.1908
12350SOL    HW238983   1.588   0.713   0.769  1.2909  0.2352 -0.9978
12351SOL     OW38984   7.963   4.250   2.708 -0.2728 -0.2879 -0.3867
12351SOL    HW138985   7.954   4.161   2.673  0.1774 -1.0868  1.4291
12351SOL    HW238986   8.057   4.259   2.728 -0.5699 -0.0714  1.0518
12352SOL     OW38987   4.392   5.864   3.761 -0.2717 -0.6262 -0.5186
12352SOL    HW138988   4.325   5.917   3.803 -0.0085 -0.4754 -0.2894
12352SOL    HW238989   4.392   5.893   3.669 -1.9147 -2.0278 -0.9980
12353SOL     OW38990   7.539   7.896   5.895  0.0177 -0.8053 -0.4977
12353SOL    HW138991   7.469   7.872   5.956  0.2582 -0.0804  0.0796
12353SOL    HW238992   7.619   7.874   5.941  0.2283  0.4865 -0.1962
12354SOL     OW38993   6.691   2.735   6.725  0.0991  0.4909 -0.5346
12354SOL    HW138994   6.613   2.779   6.760  1.1057  2.2544 -0.4272
12354SOL    HW238995   6.744   2.715   6.802  0.3941  0.5782 -0.7142
12355SOL     OW38996   0.635   3.499   8.204 -0.3310 -0.2400 -0.0481
12355SOL    HW138997   0.638   3.416   8.251  1.2893 -0.0391  0.2449
12355SOL    HW238998   0.722   3.537   8.214 -0.7746  1.1132 -0.8881
12356SOL     OW38999   4.637   6.049   1.415 -0.4843  0.5706  0.3080
12356SOL    HW139000   4.718   6.099   1.405 -0.1240  0.5456  2.6356
12356SOL    HW239001   4.646   5.975   1.355  0.4333  1.5031 -0.7324
12357SOL     OW39002   6.777   2.687   4.711 -0.1143 -0.5223 -0.1171
12357SOL    HW139003   6.768   2.697   4.617 -0.7442 -0.3928 -0.0449
12357SOL    HW239004   6.844   2.619   4.722  0.4665 -0.0529 -0.6497
12358SOL     OW39005   3.457   4.503   5.702  0.1064  0.4626  0.7514
12358SOL    HW139006   3.539   4.488   5.749  0.0080  1.6043  1.3416
12358SOL    HW239007   3.474   4.581   5.649 -0.2497  0.0446  0.0154
12359SOL     OW39008   4.934   2.774   6.076 -0.1215  0.0423 -0.3211
12359SOL    HW139009   4.869   2.704   6.073  0.2330 -0.2885 -0.4796
12359SOL    HW239010   4.892   2.848   6.032 -0.8619  0.2480  0.6959
12360SOL     OW39011   8.495   3.870   0.193  0.2492 -0.3953 -0.2349
12360SOL    HW139012   8.509   3.864   0.288 -1.0289 -0.3386 -0.0146
12360SOL    HW239013   8.418   3.815   0.178 -1.6122  2.1730 -0.7040
12361SOL     OW39014   7.197   2.189   8.657  0.4663  0.0976 -0.2788
12361SOL    HW139015   7.280   2.234   8.669  1.1909 -0.6548 -2.0441
12361SOL    HW239016   7.188   2.134   8.735  1.2796  0.6802  0.2418
12362SOL     OW39017   3.861   0.972   0.982  0.2826 -0.2839  0.0131
12362SOL    HW139018   3.879   1.014   0.897 -1.6330  0.5850 -0.0228
12362SOL    HW239019   3.939   0.921   1.000  1.3372  0.6506 -1.5940
12363SOL     OW39020   8.428   8.482   7.127  0.3344  0.7276  0.3168
12363SOL    HW139021   8.488   8.556   7.116 -0.6340  1.3738 -0.7589
12363SOL    HW239022   8.406   8.482   7.220  2.1068  0.3748  0.7789
12364SOL     OW39023   4.114   7.723   1.065 -0.5218  0.5263 -0.1818
12364SOL    HW139024   4.076   7.810   1.053  0.6027  1.1619  0.6258
12364SOL    HW239025   4.149   7.725   1.154  0.7162 -0.2694 -0.6221
12365SOL     OW39026   0.012   8.159   5.571 -0.5804 -0.1119 -0.2575
12365SOL    HW139027  -0.071   8.126   5.538 -0.1116 -2.9548  1.1000
12365SOL    HW239028   0.069   8.082   5.573  0.9481  0.9718  2.2062
12366SOL     OW39029   2.277   0.278   4.831 -0.0231  0.4240  0.1757
12366SOL    HW139030   2.249   0.356   4.879 -0.6989  0.3534 -0.0884
12366SOL    HW239031   2.344   0.310   4.771  2.8958  0.0617  3.0155
12367SOL     OW39032   6.796   6.704   6.169  0.3675  0.0870 -0.2478
12367SOL    HW139033   6.729   6.772   6.171 -0.5525 -0.7051 -1.7529
12367SOL    HW239034   6.806   6.677   6.260 -1.4834  0.1210  0.0072
12368SOL     OW39035   2.924   6.735   6.212 -0.1176 -0.3898 -0.0626
12368SOL    HW139036   2.957   6.666   6.154  1.3401  0.8908 -0.8128
12368SOL    HW239037   2.889   6.688   6.288  1.7057 -1.9123 -0.1140
12369SOL     OW39038   2.113   1.131   7.426  0.2147  0.1860 -0.2339
12369SOL    HW139039   2.118   1.191   7.352  0.2065  1.1068  0.4858
12369SOL    HW239040   2.021   1.106   7.432  0.0766  0.7082 -0.0907
12370SOL     OW39041   3.570   3.460   6.482  0.0723  0.3071 -0.3833
12370SOL    HW139042   3.536   3.382   6.436  2.5645  0.3078 -2.4715
12370SOL    HW239043   3.546   3.446   6.573 -1.4441 -1.8454 -1.0233
12371SOL     OW39044   0.861   2.351   5.103  0.0435  0.3492 -0.2616
12371SOL    HW139045   0.788   2.310   5.148  0.6271  0.4110  0.7801
12371SOL    HW239046   0.920   2.380   5.173  0.0482  2.2250 -0.9676
12372SOL     OW39047   3.791   8.699   1.105 -0.3003  0.2274  0.2986
12372SOL    HW139048   3.732   8.632   1.142  1.3073 -2.0862 -1.0702
12372SOL    HW239049   3.878   8.660   1.113  0.5064  1.3522 -2.2525
12373SOL     OW39050   5.947   8.422   8.196 -0.6115  0.6337  0.2088
12373SOL    HW139051   5.900   8.402   8.277 -1.1644  0.1989 -0.2102
12373SOL    HW239052   5.880   8.418   8.128 -0.0282  0.3405 -0.3564
12374SOL     OW39053   8.021   6.788   0.052  0.0766  0.3518  0.4178
12374SOL    HW139054   8.076   6.831  -0.013  1.1419 -0.1002  1.0010
12374SOL    HW239055   7.966   6.858   0.088 -2.2080  0.2542 -2.5446
12375SOL     OW39056   0.103   6.047   4.918  0.2998 -0.4813  0.0692
12375SOL    HW139057   0.053   6.125   4.897 -0.7175 -1.4347 -1.2263
12375SOL    HW239058   0.045   5.974   4.894  1.2552 -1.6374  1.1176
12376SOL     OW39059   7.419   1.624   2.946  0.1551 -0.0022  0.0907
12376SOL    HW139060   7.378   1.537   2.940  2.3895 -1.0698 -0.9740
12376SOL    HW239061   7.349   1.681   2.977 -1.9850 -1.7581 -1.1767
12377SOL     OW39062   7.796   8.666   7.057  0.2048  0.1833  0.2554
12377SOL    HW139063   7.799   8.752   7.098  1.9919  0.2897 -0.0091
12377SOL    HW239064   7.888   8.639   7.051 -0.2591 -1.3627 -0.4589
12378SOL     OW39065   5.122   7.475   5.986  0.0116  0.1156 -0.1638
12378SOL    HW139066   5.069   7.512   5.915 -0.6511 -1.5592 -0.5896
12378SOL    HW239067   5.183   7.545   6.009  0.2724  0.6955 -2.4026
12379SOL     OW39068   0.199   1.316   1.709  0.2128  0.1527  0.0536
12379SOL    HW139069   0.129   1.253   1.693  0.5885 -0.1951 -0.2305
12379SOL    HW239070   0.155   1.392   1.749 -0.6268  0.7127 -1.8307
12380SOL     OW39071   7.129   8.293   7.633  0.0101  0.4745 -0.0079
12380SOL    HW139072   7.071   8.306   7.709  0.7746  1.0716  0.4845
12380SOL    HW239073   7.070   8.264   7.563 -0.6321 -0.7402  0.9854
12381SOL     OW39074   5.400   8.467   3.083  0.1092 -0.1184 -0.0495
12381SOL    HW139075   5.432   8.491   3.170 -0.8666  1.0707  0.0043
12381SOL    HW239076   5.478   8.461   3.029  0.9302 -2.5643  1.2459
12382SOL     OW39077   3.995   8.577   5.700 -0.6545  0.2223 -0.3239
12382SOL    HW139078   3.999   8.607   5.609 -0.0527  0.3055 -0.2739
12382SOL    HW239079   4.048   8.641   5.748 -0.6699 -0.0303  0.0315
12383SOL     OW39080   4.744   0.025   7.772 -0.2545 -0.0682 -0.2130
12383SOL    HW139081   4.826   0.004   7.726 -0.1990 -1.7026  0.5368
12383SOL    HW239082   4.750   0.118   7.791  0.1644  0.4510 -2.5883
12384SOL     OW39083   5.270   2.278   2.745 -0.1922  1.0009 -0.0351
12384SOL    HW139084   5.314   2.299   2.827  2.1160  1.5642 -1.3243
12384SOL    HW239085   5.273   2.182   2.741 -1.2711  0.8928  0.9617
12385SOL     OW39086   2.130   1.200   4.916 -0.0711 -0.0957 -0.2154
12385SOL    HW139087   2.048   1.227   4.874 -0.8871  0.4701  1.6653
12385SOL    HW239088   2.103   1.145   4.990  1.3761 -2.0945 -1.0626
12386SOL     OW39089   1.191   3.501   4.621  0.2486 -0.1117 -0.3965
12386SOL    HW139090   1.209   3.594   4.606 -3.1521  0.7918  0.2116
12386SOL    HW239091   1.158   3.469   4.537 -2.2475  0.3412  0.3367
12387SOL     OW39092   3.839   6.303   1.713  0.3397  0.5360 -0.1533
12387SOL    HW139093   3.796   6.384   1.738 -1.0344 -0.7640  2.1268
12387SOL    HW239094   3.844   6.252   1.795 -0.4449 -2.3600 -1.7520
12388SOL     OW39095   1.552   0.426   2.516 -0.2581  0.2430  0.1716
12388SOL    HW139096   1.492   0.493   2.483 -0.8018  0.4049  1.4614
12388SOL    HW239097   1.621   0.421   2.448 -1.5703  0.2244 -1.2117
12389SOL     OW39098   0.897   6.889   1.594  0.7485  0.7575 -0.1530
12389SOL    HW139099   0.900   6.794   1.590 -0.0908  0.6572  1.0087
12389SOL    HW239100   0.861   6.916   1.509  1.6271  0.1008 -0.7493
12390SOL     OW39101   7.486   5.420   7.470  0.2685 -0.0201  0.9843
12390SOL    HW139102   7.470   5.433   7.377  0.6370  0.0976  0.9339
12390SOL    HW239103   7.446   5.336   7.491  1.7293 -0.9221  0.3184
12391SOL     OW39104   5.053   5.411   2.603 -0.0613  0.3966  0.1999
12391SOL    HW139105   5.067   5.319   2.581 -2.0775  0.3314 -1.0122
12391SOL    HW239106   5.027   5.409   2.695  1.4714 -0.0365  0.6663
12392SOL     OW39107   7.232   8.083   5.175 -0.4071  0.3213  0.1067
12392SOL    HW139108   7.255   8.085   5.082 -0.3633  2.9015  0.0871
12392SOL    HW239109   7.313   8.059   5.219  0.9568  3.5386 -0.3329
12393SOL     OW39110   7.748   0.051   6.041  0.1678  0.2256 -0.3280
12393SOL    HW139111   7.809   0.011   5.979 -0.0484 -0.2381 -0.2476
12393SOL    HW239112   7.753  -0.004   6.119 -0.1703  0.3321 -0.2297
12394SOL     OW39113   7.481   1.738   1.182  0.1378 -0.4626 -0.4010
12394SOL    HW139114   7.458   1.735   1.089  1.3603 -0.5628 -0.7164
12394SOL    HW239115   7.511   1.649   1.202  1.4415 -0.0191 -0.3400
12395SOL     OW39116   0.490   5.739   1.304  0.0580 -0.1871 -0.3003
12395SOL    HW139117   0.440   5.719   1.225 -2.3686  0.8000  0.8754
12395SOL    HW239118   0.506   5.833   1.299 -1.0168  0.0885  0.7998
12396SOL     OW39119   1.441   4.141   2.918  0.3563  0.2871 -0.0324
12396SOL    HW139120   1.461   4.208   2.854  0.4689 -0.1454 -0.4598
12396SOL    HW239121   1.524   4.093   2.928 -0.1831 -0.9292 -1.1069
12397SOL     OW39122   2.711   7.215   3.567 -0.3747  0.4454  0.1244
12397SOL    HW139123   2.651   7.190   3.637  0.4888 -1.9147  0.1247
12397SOL    HW239124   2.752   7.296   3.598 -1.7101  0.7205  1.2515
12398SOL     OW39125   6.254   2.874   3.064 -0.1525 -0.0242 -0.4786
12398SOL    HW139126   6.210   2.790   3.078  0.5697 -0.3538 -0.1280
12398SOL    HW239127   6.207   2.936   3.121 -0.8293 -0.1299 -0.9055
12399SOL     OW39128   1.055   2.875   5.550  0.2171  0.2209 -0.1988
12399SOL    HW139129   1.078   2.956   5.505 -1.0166  1.1373  0.7440
12399SOL    HW239130   1.139   2.835   5.572  0.8951  2.0263  0.6865
12400SOL     OW39131   6.281   2.809   6.667  0.4739 -0.1906  0.0682
12400SOL    HW139132   6.228   2.861   6.606 -1.8252  0.5713  2.4741
12400SOL    HW239133   6.319   2.874   6.726 -0.4954 -1.0309  1.6854
12401SOL     OW39134   1.894   6.973   1.066 -0.5285 -0.2822 -0.7759
12401SOL    HW139135   1.966   6.944   1.121 -0.8886 -0.6102 -0.4678
12401SOL    HW239136   1.852   7.043   1.116 -0.3653 -0.0292 -0.9954
12402SOL     OW39137   7.169   6.762   7.795  0.2754 -0.3963  0.6803
12402SOL    HW139138   7.120   6.830   7.748  1.3326  0.5907  0.9546
12402SOL    HW239139   7.251   6.755   7.748  0.3063 -1.2760  0.8509
12403SOL     OW39140   3.729   3.738   6.231  0.3096  0.0771 -0.1791
12403SOL    HW139141   3.652   3.757   6.177 -0.2170  0.1649  0.5804
12403SOL    HW239142   3.803   3.746   6.171 -0.3640 -1.4116 -1.2766
12404SOL     OW39143   0.996   8.480   5.080  0.2911  0.0424 -0.6121
12404SOL    HW139144   0.906   8.479   5.112  0.2489 -1.0339 -0.7243
12404SOL    HW239145   1.024   8.571   5.090 -0.3583  0.1290  0.6859
12405SOL     OW39146   8.220   4.975   5.085  0.7452  0.5972 -0.1702
12405SOL    HW139147   8.146   5.000   5.029 -0.2712 -0.0865  0.8404
12405SOL    HW239148   8.297   4.990   5.030 -0.1231  1.4226 -1.2117
12406SOL     OW39149   3.861   0.369   6.961 -0.4336 -0.0312 -0.1427
12406SOL    HW139150   3.836   0.384   6.870 -2.4781  1.1756  0.5543
12406SOL    HW239151   3.783   0.394   7.012 -0.1908 -2.8394  1.8308
12407SOL     OW39152   4.421   0.811   4.712 -0.7980 -0.0168 -0.6172
12407SOL    HW139153   4.395   0.720   4.694 -0.0195 -0.6300  1.1695
12407SOL    HW239154   4.502   0.803   4.762 -0.4183  1.6977 -0.9229
12408SOL     OW39155   4.323   4.710   4.405 -0.3283  0.1496  0.6116
12408SOL    HW139156   4.227   4.712   4.405 -0.3803 -0.4885 -0.9789
12408SOL    HW239157   4.345   4.646   4.338  1.2319  3.5113 -2.4310
12409SOL     OW39158   8.236   2.009   5.308  0.4565 -0.8018 -0.3730
12409SOL    HW139159   8.143   2.001   5.331  0.6354  0.0093  0.6950
12409SOL    HW239160   8.235   2.044   5.219 -0.2916  0.8174  0.2292
12410SOL     OW39161   4.506   1.795   5.406  0.1769 -0.2149 -0.2435
12410SOL    HW139162   4.483   1.704   5.423 -0.5847 -0.1186 -0.7267
12410SOL    HW239163   4.484   1.842   5.487  0.1557 -0.3846 -0.1514
12411SOL     OW39164   6.646   0.321   1.651  0.2818 -0.2885 -0.4235
12411SOL    HW139165   6.607   0.234   1.647  0.9742 -0.6214 -0.0768
12411SOL    HW239166   6.572   0.380   1.665  0.0041 -1.0258  1.5075
12412SOL     OW39167   0.272   2.856   4.471 -0.1723 -0.3417  0.0654
12412SOL    HW139168   0.296   2.835   4.381 -0.3117  0.8729 -0.2726
12412SOL    HW239169   0.233   2.775   4.505  0.1406 -0.8978 -0.8644
12413SOL     OW39170   0.615   8.020   8.130  0.0947  0.3919 -0.1644
12413SOL    HW139171   0.658   8.068   8.059  0.3247  0.0434 -0.2642
12413SOL    HW239172   0.580   8.088   8.187  0.7145  0.6853 -0.1259
12414SOL     OW39173   8.821   3.146   1.127  0.1377 -0.7111 -0.1667
12414SOL    HW139174   8.744   3.200   1.143 -0.3880 -1.3245 -0.5986
12414SOL    HW239175   8.823   3.134   1.032  2.8593  2.3733 -0.6818
12415SOL     OW39176   6.157   3.137   5.002  0.8810  0.2713  0.2338
12415SOL    HW139177   6.139   3.111   4.911 -1.1405  1.8205  0.1117
12415SOL    HW239178   6.088   3.096   5.053  0.9073  0.9102  0.7935
12416SOL     OW39179   8.172   2.736   6.483  0.1145  0.2232  0.0007
12416SOL    HW139180   8.259   2.724   6.446 -0.3933 -0.8442 -0.8976
12416SOL    HW239181   8.116   2.753   6.408 -0.8776 -1.6857  0.2373
12417SOL     OW39182   1.967   3.954   2.879  0.7249 -0.4820 -0.4232
12417SOL    HW139183   2.033   4.015   2.911  0.5295  0.2003 -1.2872
12417SOL    HW239184   1.898   4.010   2.844  0.9305 -1.1919 -2.0360
12418SOL     OW39185   4.195   7.524   2.338  0.0338 -0.3302  0.7524
12418SOL    HW139186   4.221   7.605   2.293 -1.7651  0.3132  0.8015
12418SOL    HW239187   4.252   7.520   2.415  2.9336 -1.2718 -1.2848
12419SOL     OW39188   5.729   3.074   7.687 -0.7698 -0.0850 -0.4110
12419SOL    HW139189   5.666   3.101   7.754  0.1172 -0.5269  0.6494
12419SOL    HW239190   5.694   3.108   7.605 -2.7154 -0.8653  0.0339
12420SOL     OW39191   2.870   5.318   3.814  0.1101  0.2859  0.1318
12420SOL    HW139192   2.809   5.293   3.744  0.7420 -0.3381 -0.2079
12420SOL    HW239193   2.917   5.394   3.780 -1.5163  1.7376  0.9964
12421SOL     OW39194   4.183   3.719   2.180 -0.0190  0.3479  0.2283
12421SOL    HW139195   4.244   3.684   2.115 -0.8109  0.8955 -0.8514
12421SOL    HW239196   4.097   3.707   2.140 -0.5794  0.2341  1.4124
12422SOL     OW39197   5.285   0.564   2.918  0.3593  0.5390 -0.2357
12422SOL    HW139198   5.350   0.494   2.911  0.5204  0.5600  0.9044
12422SOL    HW239199   5.335   0.645   2.903  0.3809  0.4837 -0.4648
12423SOL     OW39200   3.396   5.350   1.554  0.0214 -0.4972  0.0420
12423SOL    HW139201   3.358   5.355   1.641 -0.2166  0.6340 -0.1124
12423SOL    HW239202   3.483   5.313   1.568  0.8219  1.6214  1.0652
12424SOL     OW39203   1.697   7.782   7.232  0.5521 -0.5446 -0.3245
12424SOL    HW139204   1.638   7.767   7.306  0.7551  1.3013  0.2834
12424SOL    HW239205   1.640   7.784   7.155  0.2129 -1.5179 -0.1158
12425SOL     OW39206   2.982   5.244   1.399  0.4215  0.2578 -0.0504
12425SOL    HW139207   2.910   5.181   1.393 -1.6048  2.3780  0.6840
12425SOL    HW239208   3.041   5.206   1.464 -1.9842  0.1814  2.2488
12426SOL     OW39209   4.980   8.267   7.497 -0.0229 -0.6566 -0.1962
12426SOL    HW139210   4.929   8.344   7.521 -1.9237 -1.8348 -0.2392
12426SOL    HW239211   5.020   8.289   7.413  0.1942  0.5913  0.2205
12427SOL     OW39212   6.261   3.298   7.696  0.6493  0.0113  0.0096
12427SOL    HW139213   6.179   3.316   7.650  0.2013  2.2769  1.4994
12427SOL    HW239214   6.319   3.370   7.670  1.5084 -0.5036  0.4478
12428SOL     OW39215   0.892   5.202   3.473 -0.2900  0.7665  0.3970
12428SOL    HW139216   0.872   5.167   3.560  0.5054 -0.4259  0.1238
12428SOL    HW239217   0.960   5.144   3.439  1.1563  2.6485 -0.0779
12429SOL     OW39218   0.106   0.681   3.347 -0.5940  0.2599 -0.1427
12429SOL    HW139219   0.097   0.775   3.361  2.3587  0.7358 -0.7753
12429SOL    HW239220   0.087   0.642   3.432 -1.3168  1.4375  0.2650
12430SOL     OW39221   3.317   7.513   0.036  0.5849  0.0089  0.2550
12430SOL    HW139222   3.411   7.510   0.051  0.6719 -0.8081 -0.3822
12430SOL    HW239223   3.283   7.567   0.107  1.4377 -0.4134  1.0043
12431SOL     OW39224   8.601   5.903   8.817  0.1550 -0.5891 -0.0580
12431SOL    HW139225   8.690   5.939   8.824  0.5913 -1.6044 -0.1895
12431SOL    HW239226   8.602   5.853   8.735 -0.3833 -1.0315  0.1996
12432SOL     OW39227   5.244   8.771   0.732  0.2905  0.0372 -0.0747
12432SOL    HW139228   5.222   8.749   0.822  2.3029  2.7399  1.2104
12432SOL    HW239229   5.324   8.824   0.738 -0.9080  2.5751 -3.1716
12433SOL     OW39230   4.452   0.364   5.230 -0.1849 -0.6337 -0.4315
12433SOL    HW139231   4.365   0.387   5.198 -0.4253 -1.0687 -0.1129
12433SOL    HW239232   4.490   0.446   5.260  0.4853 -0.0071 -2.8239
12434SOL     OW39233   2.888   2.914   3.502 -0.1811 -0.2344 -0.0339
12434SOL    HW139234   2.918   2.983   3.562  0.0427 -0.6254  0.3133
12434SOL    HW239235   2.926   2.937   3.417 -1.2462  0.8204 -0.2377
12435SOL     OW39236   4.791   2.713   8.155 -0.2743 -0.1241  0.0378
12435SOL    HW139237   4.855   2.744   8.091  1.2976 -1.5381  0.8559
12435SOL    HW239238   4.835   2.641   8.199 -1.1716  0.9753  2.9317
12436SOL     OW39239   1.088   3.853   7.462  0.0842 -0.2035  0.0916
12436SOL    HW139240   1.152   3.908   7.507 -0.8417  1.3317 -0.4041
12436SOL    HW239241   1.137   3.811   7.392  0.6340  0.7345 -0.1031
12437SOL     OW39242   5.426   8.618   8.054  0.7037  0.1907 -0.3872
12437SOL    HW139243   5.456   8.599   8.143  2.5506  0.6936 -0.8444
12437SOL    HW239244   5.422   8.713   8.050 -0.1312  0.1518 -0.6285
12438SOL     OW39245   3.694   5.134   3.018 -0.5151 -0.2618  0.0301
12438SOL    HW139246   3.734   5.068   3.074  0.1778  0.5779  0.5624
12438SOL    HW239247   3.732   5.217   3.048  2.7669  0.0137 -3.8549
12439SOL     OW39248   1.757   2.383   5.982 -0.5848  0.5200 -0.2240
12439SOL    HW139249   1.672   2.426   5.980 -0.4827  0.8425  1.2138
12439SOL    HW239250   1.811   2.440   6.036  0.1595 -0.3520 -0.0252
12440SOL     OW39251   2.400   5.766   6.629  0.4248 -0.5511  0.1649
12440SOL    HW139252   2.402   5.753   6.724 -2.0059 -0.5475  0.2890
12440SOL    HW239253   2.487   5.739   6.599  1.6124  0.3874  2.4740
12441SOL     OW39254   4.526   1.240   5.159 -0.4300  0.3243 -0.2778
12441SOL    HW139255   4.603   1.235   5.216 -0.1176 -1.4390 -0.7855
12441SOL    HW239256   4.496   1.331   5.167  2.2219  1.3467 -0.7348
12442SOL     OW39257   1.346   3.068   4.037  0.1488 -0.1158  0.4639
12442SOL    HW139258   1.271   3.128   4.033  0.4637  0.2760  0.3698
12442SOL    HW239259   1.323   3.006   4.106  0.0310  0.4094  0.9025
12443SOL     OW39260   0.866   8.589   4.243 -0.4974 -0.7724 -0.1635
12443SOL    HW139261   0.926   8.528   4.286 -0.1511 -0.7658 -0.6248
12443SOL    HW239262   0.779   8.560   4.270 -0.3177 -1.2267 -0.0531
12444SOL     OW39263   3.562   4.070   8.729  0.3230 -0.3186  0.3201
12444SOL    HW139264   3.590   4.057   8.639 -1.0224  0.4388 -0.2277
12444SOL    HW239265   3.470   4.045   8.730  0.0182  0.7480  1.2058
12445SOL     OW39266   7.663   2.227   5.086 -0.4338  0.5893 -0.2387
12445SOL    HW139267   7.709   2.310   5.074  1.0433 -0.3190 -1.2052
12445SOL    HW239268   7.609   2.219   5.008  0.9980 -0.2851 -1.1837
12446SOL     OW39269   8.578   4.490   8.554 -0.4404  0.7528  0.3151
12446SOL    HW139270   8.617   4.415   8.599  0.6330 -0.2941 -2.1965
12446SOL    HW239271   8.645   4.558   8.556  0.4918 -0.0571 -1.5136
12447SOL     OW39272   6.811   7.553   4.471 -1.2733  0.7584  0.1899
12447SOL    HW139273   6.817   7.520   4.382 -0.1224 -2.5270  1.3462
12447SOL    HW239274   6.891   7.603   4.484 -0.1675 -0.9148  0.1068
12448SOL     OW39275   7.492   2.239   2.223  0.2762  0.9166  0.0588
12448SOL    HW139276   7.565   2.236   2.161  0.8062  0.2741  0.7022
12448SOL    HW239277   7.530   2.271   2.305  1.0425 -3.8478  1.8965
12449SOL     OW39278   7.062   2.611   0.031 -0.2739  0.4209  0.4088
12449SOL    HW139279   7.100   2.550   0.094 -1.6643 -0.7314  0.1737
12449SOL    HW239280   7.133   2.672   0.011  0.6573 -0.1202  1.9001
12450SOL     OW39281   6.567   2.519   4.981  0.4758 -0.1365  0.7531
12450SOL    HW139282   6.519   2.440   4.958 -0.8860  1.4208 -2.3271
12450SOL    HW239283   6.499   2.585   4.997  1.5378  1.0810  0.4626
12451SOL     OW39284   6.672   2.342   1.660  0.0728 -0.1757  0.4574
12451SOL    HW139285   6.593   2.293   1.635  0.4683 -0.6070  0.0255
12451SOL    HW239286   6.725   2.278   1.708  0.5185 -0.1178  0.0406
12452SOL     OW39287   0.749   8.608   0.441 -0.3424 -0.0146  0.0303
12452SOL    HW139288   0.844   8.603   0.436 -0.2475  1.2870  0.0215
12452SOL    HW239289   0.721   8.629   0.351 -0.4616  1.3988  0.3642
12453SOL     OW39290   1.192   4.340   6.562  0.2917  0.0215 -0.2782
12453SOL    HW139291   1.217   4.250   6.542 -1.2114 -0.2498 -1.1306
12453SOL    HW239292   1.166   4.377   6.477 -1.1671  0.5570  0.3622
12454SOL     OW39293   7.426   8.249   0.197  0.8195 -0.7499 -0.3994
12454SOL    HW139294   7.344   8.294   0.177  1.0322 -0.0670  0.2360
12454SOL    HW239295   7.425   8.237   0.292  2.1400  0.6814 -0.1567
12455SOL     OW39296   1.977   8.318   8.394 -0.0650 -0.3880  0.2354
12455SOL    HW139297   1.950   8.410   8.398  0.6459 -0.0787 -1.3021
12455SOL    HW239298   1.934   8.277   8.469 -1.1175  1.0031  0.4345
12456SOL     OW39299   0.307   8.012   7.242 -0.1181  0.4898  0.5216
12456SOL    HW139300   0.302   7.965   7.325  1.2450  0.1157  0.4180
12456SOL    HW239301   0.230   8.069   7.242 -0.0914  0.5729  2.0893
12457SOL     OW39302   5.065   0.177   2.478  0.6299  0.3149 -0.2030
12457SOL    HW139303   5.121   0.167   2.401  0.0598 -1.9882 -0.3941
12457SOL    HW239304   5.037   0.088   2.499 -1.8024  1.2212  0.7586
12458SOL     OW39305   2.523   6.629   7.349  0.1259 -0.1142 -0.0325
12458SOL    HW139306   2.472   6.554   7.320  0.0196  0.2848 -0.9033
12458SOL    HW239307   2.557   6.603   7.435 -1.6108 -0.3643  0.6285
12459SOL     OW39308   7.636   7.789   4.930 -0.2116  0.6624  0.2662
12459SOL    HW139309   7.724   7.764   4.901 -0.3487  0.4297  0.0411
12459SOL    HW239310   7.578   7.729   4.883 -0.3674 -0.9205  2.3034
12460SOL     OW39311   2.367   5.566   2.128  0.0413 -0.1308  0.0253
12460SOL    HW139312   2.424   5.618   2.071  0.6730  0.3847  1.0941
12460SOL    HW239313   2.284   5.613   2.129 -0.3699 -0.7857 -1.3978
12461SOL     OW39314   8.405   6.833   7.383  0.2300 -0.5655 -0.0582
12461SOL    HW139315   8.470   6.819   7.451 -0.5994 -1.6622  0.5397
12461SOL    HW239316   8.448   6.805   7.302  1.3846  1.1872 -0.1045
12462SOL     OW39317   4.912   3.454   5.746  0.1654  0.1337 -0.6720
12462SOL    HW139318   4.940   3.546   5.745  0.0576  0.2198  1.1987
12462SOL    HW239319   4.988   3.406   5.778 -0.9063  0.0615  1.9673
12463SOL     OW39320   4.751   6.131   8.416 -0.0887  0.0344  0.0458
12463SOL    HW139321   4.770   6.191   8.488 -0.6318 -0.9445  1.0437
12463SOL    HW239322   4.755   6.044   8.455  1.1219 -0.6399 -1.4607
12464SOL     OW39323   5.336   8.413   7.159  0.0497 -0.0410 -0.0368
12464SOL    HW139324   5.407   8.471   7.131 -0.6825  1.1421  0.4813
12464SOL    HW239325   5.304   8.374   7.078 -1.0199  2.1558 -0.7584
12465SOL     OW39326   2.895   8.796   3.807 -0.2126 -0.3016  0.1056
12465SOL    HW139327   2.813   8.809   3.759 -0.3243 -0.8160  0.1537
12465SOL    HW239328   2.914   8.882   3.846 -1.6678 -0.6101  1.5875
12466SOL     OW39329   3.153   2.332   1.020 -0.1875 -0.3408 -0.3300
12466SOL    HW139330   3.244   2.329   0.990  0.1262  2.1440  0.1086
12466SOL    HW239331   3.159   2.367   1.109 -1.6089  1.1486 -0.7724
12467SOL     OW39332   5.299   1.598   1.004 -0.3467 -0.3088 -0.6324
12467SOL    HW139333   5.392   1.576   0.999 -0.5828 -1.1362 -2.2632
12467SOL    HW239334   5.289   1.674   0.947 -0.0414  2.4517  2.7322
12468SOL     OW39335   5.014   8.006   7.544 -0.5264  0.0624  0.5151
12468SOL    HW139336   5.003   7.989   7.637  0.4534  0.6924  0.7560
12468SOL    HW239337   5.012   8.101   7.536 -0.0713  0.0323 -0.0280
12469SOL     OW39338   6.173   7.858   2.161  0.2519 -0.4326  0.3802
12469SOL    HW139339   6.158   7.771   2.125 -1.7231  0.8455 -2.3131
12469SOL    HW239340   6.264   7.878   2.139 -0.4500 -0.2977 -2.9272
12470SOL     OW39341   5.242   4.635   3.537 -0.0088 -0.0829 -0.1903
12470SOL    HW139342   5.253   4.686   3.457 -0.4645 -0.8749 -0.7779
12470SOL    HW239343   5.269   4.546   3.513  2.0319  0.1025  1.1691
12471SOL     OW39344   6.915   7.889   4.550  0.0787  0.0270 -0.5822
12471SOL    HW139345   6.891   7.973   4.509 -0.8904  0.0195 -0.0732
12471SOL    HW239346   6.874   7.893   4.636  3.3603  0.7116  1.0898
12472SOL     OW39347   2.721   5.116   7.795 -0.0686 -0.5268  0.2894
12472SOL    HW139348   2.757   5.195   7.836  0.5207  0.6752 -2.3096
12472SOL    HW239349   2.645   5.147   7.746 -0.4300 -1.7632  0.0300
12473SOL     OW39350   5.882   7.380   1.656 -0.3447 -0.0457 -0.0124
12473SOL    HW139351   5.967   7.336   1.650  0.2003  1.0415 -0.5613
12473SOL    HW239352   5.865   7.411   1.567 -0.9294  0.4469  0.2652
12474SOL     OW39353   6.205   6.351   5.965  0.7528 -0.3007 -0.0712
12474SOL    HW139354   6.142   6.283   5.942  1.0510 -0.3749 -0.6931
12474SOL    HW239355   6.165   6.432   5.933  0.5081 -0.2087  0.4549
12475SOL     OW39356   1.298   3.304   3.693 -0.0962  0.2400  0.0303
12475SOL    HW139357   1.251   3.295   3.776  0.6346 -1.2967  0.3248
12475SOL    HW239358   1.254   3.375   3.648 -1.4953  0.0923  1.0877
12476SOL     OW39359   6.135   7.859   3.532  0.6611 -0.7277  0.2763
12476SOL    HW139360   6.203   7.891   3.473 -1.2458  1.4069 -0.9156
12476SOL    HW239361   6.085   7.796   3.480 -0.2785  0.2452 -0.0414
12477SOL     OW39362   4.550   2.343   7.016 -0.6937  0.7725  0.1396
12477SOL    HW139363   4.575   2.428   7.052 -1.7867  1.9447 -1.7357
12477SOL    HW239364   4.632   2.293   7.013  0.8563  3.2020 -2.4230
12478SOL     OW39365   5.570   6.221   2.846  0.9707  0.0186  0.0287
12478SOL    HW139366   5.543   6.213   2.754  1.1328  2.0571 -0.2581
12478SOL    HW239367   5.568   6.316   2.863 -0.5936 -0.3950  2.6212
12479SOL     OW39368   4.335   6.700   1.578 -0.2124 -0.1091  0.3022
12479SOL    HW139369   4.333   6.608   1.604  1.5021 -0.2518  0.0566
12479SOL    HW239370   4.282   6.704   1.499 -1.9081 -0.4924  1.3833
12480SOL     OW39371   7.831   5.103   0.051  0.8279  0.1522 -0.2274
12480SOL    HW139372   7.753   5.083   0.103  0.6084 -0.6630 -0.8361
12480SOL    HW239373   7.818   5.053  -0.030  1.0945  1.4966 -1.1275
12481SOL     OW39374   3.072   1.963   3.734 -0.1792 -0.3677  0.2677
12481SOL    HW139375   3.087   1.879   3.691 -1.2611 -0.4463  0.0382
12481SOL    HW239376   2.999   2.002   3.687  2.1871  2.1325 -1.6490
12482SOL     OW39377   0.747   0.849   1.829 -0.6265  0.5766  0.5760
12482SOL    HW139378   0.736   0.840   1.734 -0.7802  1.1741  0.5273
12482SOL    HW239379   0.720   0.765   1.865 -0.0904  0.1762  0.0577
12483SOL     OW39380   1.569   4.595   6.913 -0.7502 -0.1695 -0.0544
12483SOL    HW139381   1.610   4.522   6.867  0.1219  0.5407 -0.4290
12483SOL    HW239382   1.595   4.673   6.864  1.7513  0.8469  2.5856
12484SOL     OW39383   8.694   8.189   3.591 -0.2605 -0.0783 -0.3866
12484SOL    HW139384   8.672   8.167   3.501 -2.2205  0.4963 -0.0964
12484SOL    HW239385   8.790   8.194   3.592 -0.0970 -1.8037 -1.9995
12485SOL     OW39386   7.165   4.166   6.864 -0.4946  0.0841 -0.3329
12485SOL    HW139387   7.147   4.113   6.943  0.8255  0.7352  0.4276
12485SOL    HW239388   7.082   4.165   6.816 -1.2377 -0.5990  0.9051
12486SOL     OW39389   6.180   7.379   7.930 -0.0500 -0.6138 -0.3529
12486SOL    HW139390   6.247   7.335   7.877 -0.6639 -0.5188 -1.2257
12486SOL    HW239391   6.148   7.450   7.875 -1.2780 -1.0110 -0.1778
12487SOL     OW39392   1.075   8.054   4.084 -0.6056 -0.0132 -0.5568
12487SOL    HW139393   1.069   8.057   4.179 -0.2917  0.9520 -0.5476
12487SOL    HW239394   0.989   8.024   4.055 -1.0409  0.6342  0.0049
12488SOL     OW39395   5.169   0.384   5.675  0.2695  0.4735  0.4684
12488SOL    HW139396   5.121   0.458   5.637 -0.1750  0.7298  1.4834
12488SOL    HW239397   5.225   0.353   5.604 -2.4592 -0.7993 -1.3146
12489SOL     OW39398   2.081   1.724   8.600 -0.1206  0.8584  0.2994
12489SOL    HW139399   2.018   1.704   8.670  0.1798  0.7361  0.5367
12489SOL    HW239400   2.071   1.818   8.586  0.3675  1.0358  1.0545
12490SOL     OW39401   8.654   8.705   3.457  0.6035  0.0691 -0.8162
12490SOL    HW139402   8.704   8.787   3.458 -0.5457  0.8216  1.3263
12490SOL    HW239403   8.720   8.637   3.469  1.4251  0.7764 -1.2004
12491SOL     OW39404   3.891   4.097   7.464  0.3194 -0.2324  0.1109
12491SOL    HW139405   3.826   4.109   7.395  1.0594  1.0038 -0.4068
12491SOL    HW239406   3.888   4.180   7.513  1.3294 -0.2555  0.2165
12492SOL     OW39407   2.965   6.922   3.354  0.2904  0.0011 -0.3312
12492SOL    HW139408   2.899   6.883   3.411 -1.2122  2.7346 -0.0174
12492SOL    HW239409   3.020   6.974   3.412  1.6135 -0.7577 -0.8481
12493SOL     OW39410   5.221   2.423   5.092 -0.3047 -0.1984 -0.3032
12493SOL    HW139411   5.126   2.422   5.108 -0.3818 -1.1868 -0.7777
12493SOL    HW239412   5.240   2.515   5.070 -0.7491  0.4975  1.9960
12494SOL     OW39413   7.534   6.577   0.852 -0.3576  0.2144  0.3936
12494SOL    HW139414   7.621   6.611   0.870 -0.8500  1.4338  0.5808
12494SOL    HW239415   7.549   6.491   0.813  0.9440  0.6292 -0.0748
12495SOL     OW39416   6.985   6.135   8.831  0.6455 -0.4144  0.7117
12495SOL    HW139417   6.914   6.197   8.816 -1.6206 -1.9584  3.9586
12495SOL    HW239418   7.052   6.186   8.877  0.4077  0.3657  0.2163
12496SOL     OW39419   4.136   1.621   4.479 -0.4518  0.3584  0.0914
12496SOL    HW139420   4.211   1.595   4.532  0.3088 -1.5472 -1.7666
12496SOL    HW239421   4.061   1.583   4.524  0.2553 -1.8826 -0.4988
12497SOL     OW39422   5.581   4.548   4.429  0.2837  0.2005  0.0437
12497SOL    HW139423   5.626   4.631   4.446  1.0391  0.2350 -1.8845
12497SOL    HW239424   5.531   4.564   4.349 -2.2840 -0.2161  1.4618
12498SOL     OW39425   1.767   0.226   6.954 -0.2037 -0.2659 -0.2677
12498SOL    HW139426   1.862   0.221   6.945 -0.0946 -0.3464  0.8078
12498SOL    HW239427   1.735   0.231   6.864  0.8781  0.9622 -0.6108
12499SOL     OW39428   3.124   6.766   8.197  0.2097 -0.0840  0.0666
12499SOL    HW139429   3.148   6.738   8.108  1.6382  0.9552  0.0907
12499SOL    HW239430   3.207   6.781   8.241 -0.4655 -1.0014  1.7488
12500SOL     OW39431   7.635   0.164   3.213 -0.3851 -0.3245  0.3086
12500SOL    HW139432   7.719   0.151   3.170 -0.1994  0.1600  0.5197
12500SOL    HW239433   7.575   0.106   3.166 -0.0068 -0.4186 -0.0638
12501SOL     OW39434   0.171   0.037   6.823  0.6945 -0.0217  0.8559
12501SOL    HW139435   0.180  -0.054   6.794 -3.7648 -1.3827  2.8475
12501SOL    HW239436   0.204   0.037   6.913  1.4622  0.6211  0.5896
12502SOL     OW39437   5.550   1.936   5.868 -0.1954 -0.1865 -0.1413
12502SOL    HW139438   5.507   2.022   5.871  0.1636  0.0045 -0.3305
12502SOL    HW239439   5.488   1.876   5.909  0.6379  0.6179  2.5225
12503SOL     OW39440   1.297   1.528   0.229  0.0015 -0.1241 -0.3354
12503SOL    HW139441   1.218   1.492   0.189  0.1098  0.8012 -1.4447
12503SOL    HW239442   1.340   1.576   0.158  0.6966  0.7807  0.6650
12504SOL     OW39443   7.774   4.452   7.302  0.4940  0.2555 -0.3369
12504SOL    HW139444   7.804   4.361   7.313  1.2335  0.5600  0.2857
12504SOL    HW239445   7.680   4.448   7.318  0.8139 -0.0959  1.7993
12505SOL     OW39446   5.007   1.167   6.912  0.8239  0.3942 -0.5548
12505SOL    HW139447   5.074   1.113   6.953  0.2257  0.1118  0.0698
12505SOL    HW239448   5.053   1.248   6.888  1.3553  0.2612 -0.0075
12506SOL     OW39449   5.189   7.095   2.168  0.0921 -0.0044 -0.1229
12506SOL    HW139450   5.207   7.149   2.091  1.8406  0.3995  0.5294
12506SOL    HW239451   5.169   7.157   2.238 -0.1971 -0.3173  0.0813
12507SOL     OW39452   5.059   2.994   7.494 -0.1001 -0.1417  0.5333
12507SOL    HW139453   5.080   2.956   7.408 -1.5520 -0.3941  0.2591
12507SOL    HW239454   5.047   2.919   7.551 -1.7876 -0.1181  0.2775
12508SOL     OW39455   8.484   7.797   2.114 -0.6569  0.2048 -0.1929
12508SOL    HW139456   8.398   7.788   2.074 -1.3377  0.9441  1.0614
12508SOL    HW239457   8.478   7.750   2.197 -0.2235  1.2040  0.4318
12509SOL     OW39458   2.112   3.704   1.523 -0.4966  0.1257 -0.0531
12509SOL    HW139459   2.135   3.795   1.504  0.0447 -0.0090 -0.0492
12509SOL    HW239460   2.157   3.685   1.605 -0.6636 -0.1258 -0.0192
12510SOL     OW39461   1.980   3.899   7.886 -0.3881  0.5033  1.0180
12510SOL    HW139462   1.999   3.993   7.892  0.7338  0.3691 -0.0389
12510SOL    HW239463   1.887   3.895   7.863  0.1114  1.4664 -1.4104
12511SOL     OW39464   4.201   7.336   4.046  0.0678 -0.2516  0.0660
12511SOL    HW139465   4.122   7.349   3.993  0.3115  1.5193  0.0849
12511SOL    HW239466   4.178   7.370   4.133  0.4968 -0.7759  0.3955
12512SOL     OW39467   6.979   2.548   4.317  0.0424 -0.0175 -0.0593
12512SOL    HW139468   7.016   2.461   4.335  1.3833  0.1247 -1.8812
12512SOL    HW239469   7.034   2.609   4.366  2.4339  0.1922 -2.7373
12513SOL     OW39470   4.829   8.375   3.550  0.0902 -0.2036  0.2302
12513SOL    HW139471   4.737   8.397   3.564  0.1698 -0.4398  1.1706
12513SOL    HW239472   4.864   8.357   3.638  0.5711 -1.9225 -0.2781
12514SOL     OW39473   7.142   7.523   2.074  0.0958  0.0547  0.2379
12514SOL    HW139474   7.084   7.599   2.062 -0.4646 -0.2369  0.9754
12514SOL    HW239475   7.191   7.544   2.154  1.2529  0.4308 -0.5353
12515SOL     OW39476   4.436   4.024   2.822  0.0167  0.1834  0.3809
12515SOL    HW139477   4.431   4.059   2.911 -2.1282  1.3826 -0.1396
12515SOL    HW239478   4.521   3.980   2.818  1.1080  1.9407  2.3525
12516SOL     OW39479   4.526   4.639   6.239  0.1524  0.0395 -0.2637
12516SOL    HW139480   4.471   4.566   6.213  2.8644 -2.2527 -0.0314
12516SOL    HW239481   4.498   4.712   6.184 -0.1545 -2.1987 -3.2923
12517SOL     OW39482   3.485   2.930   0.032  0.4166 -0.0994 -0.4903
12517SOL    HW139483   3.509   2.866   0.099 -0.7728 -1.8625 -1.6909
12517SOL    HW239484   3.522   3.013   0.064  0.5471 -1.0239  1.9467
12518SOL     OW39485   8.760   0.400   6.581  0.0994 -0.3619  0.5538
12518SOL    HW139486   8.710   0.376   6.503  0.7297 -0.1993  0.0856
12518SOL    HW239487   8.700   0.386   6.654 -0.4524 -0.6600  0.0504
12519SOL     OW39488   8.230   4.864   2.782 -0.4037  0.0284 -0.3875
12519SOL    HW139489   8.312   4.900   2.815 -1.3155  1.4999  0.3832
12519SOL    HW239490   8.190   4.823   2.859 -1.3032  1.1011 -0.2660
12520SOL     OW39491   2.452   0.963   1.175 -0.2566  0.0220  0.1777
12520SOL    HW139492   2.423   1.047   1.140 -1.8903 -0.8322 -0.6321
12520SOL    HW239493   2.390   0.899   1.140  1.3644 -1.6513  0.1476
12521SOL     OW39494   7.895   3.894   1.082  0.5053  0.4816  0.0947
12521SOL    HW139495   7.919   3.837   1.009  1.1557 -0.7255  1.2137
12521SOL    HW239496   7.811   3.861   1.113  0.6658  0.4120  0.4622
12522SOL     OW39497   2.800   2.657   0.298  0.2781 -0.3900  0.1912
12522SOL    HW139498   2.784   2.737   0.248 -0.3570  0.9174  2.3821
12522SOL    HW239499   2.742   2.663   0.373 -0.2034 -3.2158  0.1600
12523SOL     OW39500   7.748   2.546   0.873  0.1857 -0.1327 -0.0429
12523SOL    HW139501   7.710   2.596   0.945 -0.9036 -0.4935 -0.3596
12523SOL    HW239502   7.707   2.460   0.878  0.4667 -0.3190 -0.7923
12524SOL     OW39503   2.039   4.193   8.650 -0.7675 -0.6041  0.8672
12524SOL    HW139504   2.084   4.206   8.733 -0.0599 -0.5587  0.4801
12524SOL    HW239505   1.951   4.165   8.675 -0.2599 -1.5753  1.6166
12525SOL     OW39506   2.696   3.542   2.053  0.2593  0.1927 -0.5930
12525SOL    HW139507   2.744   3.580   2.127 -0.5268 -0.7942  0.4687
12525SOL    HW239508   2.663   3.459   2.087 -2.7147  1.0683 -1.0189
12526SOL     OW39509   3.719   8.822   5.507  0.1247  0.3695 -0.6668
12526SOL    HW139510   3.784   8.801   5.440  1.4888  1.7801  0.1603
12526SOL    HW239511   3.676   8.901   5.474  0.3630  0.7057 -0.1693
12527SOL     OW39512   3.923   3.412   3.676 -0.3115  0.3439 -0.1611
12527SOL    HW139513   4.014   3.397   3.703 -0.5962 -0.6688  0.2649
12527SOL    HW239514   3.895   3.329   3.639 -1.1903  0.5391  0.0506
12528SOL     OW39515   4.193   3.420   4.959 -0.0226  0.0546 -0.4693
12528SOL    HW139516   4.172   3.327   4.954 -1.8016  0.3897  0.3994
12528SOL    HW239517   4.273   3.423   5.011  1.2112 -1.0911 -2.1469
12529SOL     OW39518   7.623   8.703   1.175  0.0946  0.1401  0.0710
12529SOL    HW139519   7.604   8.611   1.157 -1.2255  0.2515  0.7947
12529SOL    HW239520   7.596   8.717   1.265  1.8940  0.8366  0.5584
12530SOL     OW39521   0.809   6.725   7.856  0.6216  0.0533  0.2084
12530SOL    HW139522   0.793   6.656   7.920 -0.6688 -1.1213 -1.2994
12530SOL    HW239523   0.733   6.783   7.863  0.9864  0.5183  0.4371
12531SOL     OW39524   8.313   5.408   7.281  0.0577 -0.6349 -0.4223
12531SOL    HW139525   8.388   5.417   7.340 -0.3865  1.3321 -0.1023
12531SOL    HW239526   8.238   5.396   7.339 -0.1440 -0.5518 -0.6626
12532SOL     OW39527   7.909   3.602   0.239  0.4671  0.0099 -0.1651
12532SOL    HW139528   7.942   3.522   0.199  1.7585  0.6224 -0.3990
12532SOL    HW239529   7.916   3.587   0.333 -1.4564 -0.9883 -0.1423
12533SOL     OW39530   8.362   1.409   3.249 -0.0313  0.1727  0.4904
12533SOL    HW139531   8.432   1.439   3.191  1.4059 -0.6407  1.7423
12533SOL    HW239532   8.359   1.314   3.236 -1.5164  0.2781 -0.1741
12534SOL     OW39533   3.764   5.075   7.971  0.3356 -0.2583  0.5067
12534SOL    HW139534   3.799   4.998   7.925  0.6041  0.4801 -0.5471
12534SOL    HW239535   3.834   5.100   8.031  0.7768 -0.0730 -0.0724
12535SOL     OW39536   7.730   2.033   5.485  0.4521 -0.1930 -0.1530
12535SOL    HW139537   7.738   2.125   5.509  0.8545 -0.5017  0.9355
12535SOL    HW239538   7.636   2.015   5.489  0.4075  0.0680 -0.0070
12536SOL     OW39539   4.290   4.315   0.078  0.3552 -0.1430 -0.1769
12536SOL    HW139540   4.278   4.246   0.144  2.0487 -0.8540 -0.5703
12536SOL    HW239541   4.310   4.268  -0.003 -0.5866  0.7608 -0.9654
12537SOL     OW39542   3.371   4.939   4.585  0.1949  0.2875  0.1692
12537SOL    HW139543   3.415   4.865   4.543 -1.8594 -0.9264 -0.0031
12537SOL    HW239544   3.303   4.898   4.639 -2.0235  2.0560 -1.1092
12538SOL     OW39545   6.476   0.129   3.346  0.7202  0.0660  0.0278
12538SOL    HW139546   6.476   0.183   3.267  1.8409 -1.5483 -1.1438
12538SOL    HW239547   6.395   0.078   3.340  1.7514 -1.5276 -1.2144
12539SOL     OW39548   4.097   3.013   3.389  0.3432 -0.5505 -0.3947
12539SOL    HW139549   4.183   2.975   3.407  0.5718 -0.6322 -1.5496
12539SOL    HW239550   4.034   2.949   3.422  0.5956  0.9252  3.4984
12540SOL     OW39551   0.430   8.237   6.812 -0.0682  0.1723 -0.1124
12540SOL    HW139552   0.410   8.173   6.880  1.5878  0.2546  0.5028
12540SOL    HW239553   0.395   8.320   6.845  0.2369  0.1051  0.3932
12541SOL     OW39554   2.553   1.137   8.582  0.1548  0.0079  0.6281
12541SOL    HW139555   2.606   1.216   8.569  0.8866 -0.8744 -2.7746
12541SOL    HW239556   2.488   1.162   8.649  1.3482  2.9284  0.8366
12542SOL     OW39557   0.686   2.454   5.803 -0.0380 -0.5711 -0.5372
12542SOL    HW139558   0.710   2.391   5.872 -0.3005 -0.4760 -0.3569
12542SOL    HW239559   0.742   2.530   5.819 -1.8576  0.5232  1.1952
12543SOL     OW39560   8.640   0.178   8.348  0.2912  0.3334 -0.1899
12543SOL    HW139561   8.601   0.263   8.329 -1.1948 -0.3918 -0.5706
12543SOL    HW239562   8.639   0.172   8.443 -1.5384 -0.0779 -0.2030
12544SOL     OW39563   3.134   4.991   1.465  0.0519  0.6293 -0.3004
12544SOL    HW139564   3.190   5.039   1.404  0.9083 -1.5166 -1.3323
12544SOL    HW239565   3.195   4.955   1.529 -0.4785  0.4177  0.0835
12545SOL     OW39566   3.241   6.386   3.552  0.3105  0.5019 -0.0360
12545SOL    HW139567   3.153   6.379   3.590  0.2261  2.2902  0.1719
12545SOL    HW239568   3.296   6.418   3.623  1.2807 -1.1421 -0.0081
12546SOL     OW39569   7.974   3.163   5.804 -0.3790 -0.0620 -0.0340
12546SOL    HW139570   7.955   3.071   5.787  0.7056 -0.0269 -1.6941
12546SOL    HW239571   8.007   3.196   5.720  0.6443  1.4612  0.9179
12547SOL     OW39572   6.572   8.094   7.255  0.6744  1.1206 -0.5886
12547SOL    HW139573   6.559   8.064   7.166  0.7911 -0.4169 -0.1141
12547SOL    HW239574   6.658   8.060   7.280  0.0040  0.2228  0.6087
12548SOL     OW39575   7.935   7.887   8.786  0.2361 -0.3849  0.5763
12548SOL    HW139576   7.957   7.973   8.822 -1.1426  0.5710 -0.7074
12548SOL    HW239577   7.917   7.833   8.863  0.3378  0.7161  1.4009
12549SOL     OW39578   8.060   6.591   8.140  0.0619 -0.5945  0.0538
12549SOL    HW139579   8.152   6.586   8.168  0.4540 -1.3714 -1.2929
12549SOL    HW239580   8.064   6.588   8.044 -1.2854  1.0286 -0.0982
12550SOL     OW39581   5.170   3.434   0.174 -0.2969 -0.4555 -0.3397
12550SOL    HW139582   5.207   3.409   0.089 -1.2323 -1.2194 -0.5436
12550SOL    HW239583   5.082   3.467   0.153  0.6892  2.7496 -0.0416
12551SOL     OW39584   4.264   7.123   0.438  0.1024 -0.1397 -0.4049
12551SOL    HW139585   4.358   7.107   0.451 -0.0741 -0.0503  1.1731
12551SOL    HW239586   4.233   7.151   0.524 -1.2899  0.2821 -1.0259
12552SOL     OW39587   2.489   3.842   8.153 -0.0062  0.4356  0.5155
12552SOL    HW139588   2.584   3.830   8.148 -0.0897 -0.5330  1.1404
12552SOL    HW239589   2.468   3.832   8.246 -0.7811  0.2046  0.3185
12553SOL     OW39590   4.889   8.216   1.633 -0.6137  0.5091  0.2174
12553SOL    HW139591   4.838   8.235   1.713  0.7917 -0.1469  1.3099
12553SOL    HW239592   4.939   8.138   1.655 -1.0893 -0.3955 -1.7646
12554SOL     OW39593   8.718   3.005   5.086  0.4992  0.3631  0.0448
12554SOL    HW139594   8.801   3.005   5.133  0.5687  2.0713 -0.0286
12554SOL    HW239595   8.731   2.943   5.015  1.5740  0.3059  0.2743
12555SOL     OW39596   7.631   6.675   3.091  0.7728 -0.0415 -0.1610
12555SOL    HW139597   7.576   6.751   3.108  1.0846  0.0349  0.5448
12555SOL    HW239598   7.683   6.700   3.014  0.8691  0.4573  0.0606
12556SOL     OW39599   7.905   4.509   5.260  0.8617 -0.2328 -0.3487
12556SOL    HW139600   7.953   4.435   5.297  1.9972 -0.6437 -2.4868
12556SOL    HW239601   7.821   4.472   5.233  0.5996 -0.2510  0.4799
12557SOL     OW39602   0.888   8.007   3.099 -0.4635 -0.1925  0.4040
12557SOL    HW139603   0.814   8.042   3.049  0.3798  2.1752  0.6966
12557SOL    HW239604   0.956   8.073   3.089  0.3354 -0.4967  3.2449
12558SOL     OW39605   4.229   3.153   4.974 -0.2281  0.1973  0.4570
12558SOL    HW139606   4.227   3.062   4.943  0.1763  0.4122 -0.2296
12558SOL    HW239607   4.315   3.163   5.014 -0.0441  0.4466 -0.0001
12559SOL     OW39608   2.666   4.154   2.005  0.3172 -0.0864  0.1306
12559SOL    HW139609   2.577   4.124   2.025  0.3787 -1.9343 -1.9037
12559SOL    HW239610   2.689   4.212   2.077 -2.3340  0.0333  0.9949
12560SOL     OW39611   5.813   4.143   3.285 -0.1562 -0.0649  0.3165
12560SOL    HW139612   5.782   4.059   3.251  0.2224  0.6374 -1.9151
12560SOL    HW239613   5.907   4.143   3.265 -0.4093  1.4473 -1.0120
12561SOL     OW39614   6.791   4.877   8.604  0.1114 -0.0514  0.9583
12561SOL    HW139615   6.764   4.899   8.693 -1.7911 -0.7482  0.6037
12561SOL    HW239616   6.871   4.825   8.615  0.6675  0.9979  2.1531
12562SOL     OW39617   7.310   8.588   2.121  0.2110  0.2280 -0.0309
12562SOL    HW139618   7.312   8.499   2.157 -2.1725 -0.2103 -0.7685
12562SOL    HW239619   7.216   8.607   2.112  0.6859  1.9437 -2.0164
12563SOL     OW39620   7.970   8.394   4.295 -0.2604 -0.3775  0.0871
12563SOL    HW139621   7.889   8.434   4.328 -0.7387 -0.2410 -1.2061
12563SOL    HW239622   7.983   8.433   4.209  2.9111  1.9715  1.4302
12564SOL     OW39623   7.620   7.679   1.858 -0.2914 -0.0009  0.2494
12564SOL    HW139624   7.660   7.602   1.819  0.1974  1.6236 -2.7253
12564SOL    HW239625   7.688   7.714   1.917  0.3035 -0.6375 -0.0434
12565SOL     OW39626   6.261   1.487   5.472 -0.4607 -0.3567  0.2618
12565SOL    HW139627   6.209   1.550   5.523 -1.4022 -0.3177 -0.7220
12565SOL    HW239628   6.203   1.413   5.459 -1.5407  0.9295 -3.5217
12566SOL     OW39629   4.820   0.555   8.423  0.2503 -0.2873  0.1283
12566SOL    HW139630   4.875   0.621   8.466  1.2933 -1.0645  0.0258
12566SOL    HW239631   4.826   0.575   8.330 -0.3163  0.1183  0.1712
12567SOL     OW39632   2.889   7.939   4.637  0.1564 -0.4640  0.0381
12567SOL    HW139633   2.968   7.900   4.675  1.8115  0.4302 -2.2321
12567SOL    HW239634   2.851   7.870   4.583 -0.1561 -0.6374  0.4738
12568SOL     OW39635   0.857   3.522   5.865 -0.3395  0.2099 -0.1479
12568SOL    HW139636   0.780   3.543   5.812 -1.2579 -0.5064  0.8659
12568SOL    HW239637   0.842   3.568   5.948  0.1853 -0.1799  0.1697
12569SOL     OW39638   6.189   7.713   7.521 -0.0033  0.0018 -0.0264
12569SOL    HW139639   6.203   7.807   7.532  0.0460 -0.0675  0.5632
12569SOL    HW239640   6.100   7.699   7.554  0.4071 -0.3301  0.9720
12570SOL     OW39641   4.660   4.656   7.157  0.2978 -0.5573 -0.0388
12570SOL    HW139642   4.714   4.578   7.147  1.0720  0.1318 -1.5309
12570SOL    HW239643   4.571   4.623   7.167  0.6194 -1.6327 -0.5896
12571SOL     OW39644   6.956   1.646   7.481  0.2805  0.2465 -0.2078
12571SOL    HW139645   6.924   1.698   7.554  1.3886  0.9472 -0.1960
12571SOL    HW239646   6.889   1.578   7.468  0.5442 -0.5696  2.1608
12572SOL     OW39647   2.720   6.126   6.315 -0.6134  0.1177 -0.0033
12572SOL    HW139648   2.714   6.221   6.327 -0.5784  0.1234 -0.0308
12572SOL    HW239649   2.655   6.090   6.375 -0.2463  0.1364  0.4108
12573SOL     OW39650   7.364   5.506   3.617 -0.3273 -0.4373 -0.5431
12573SOL    HW139651   7.415   5.585   3.598 -2.6165  0.7267 -2.3067
12573SOL    HW239652   7.430   5.438   3.628  1.6699  1.2987 -1.0115
12574SOL     OW39653   6.349   8.120   8.452 -0.2356  0.1341  0.0267
12574SOL    HW139654   6.424   8.177   8.443 -0.0748 -0.0537  0.1605
12574SOL    HW239655   6.282   8.158   8.395 -0.4326  0.9477  0.7798
12575SOL     OW39656   8.312   2.314   0.105 -0.3729  0.6245 -0.1891
12575SOL    HW139657   8.334   2.306   0.012 -0.8152 -0.1364 -0.2403
12575SOL    HW239658   8.255   2.239   0.123  0.3324  0.3049  0.8768
12576SOL     OW39659   7.076   2.066   3.814  0.3580 -0.2354  0.1761
12576SOL    HW139660   7.082   2.073   3.719  1.4250 -0.3873  0.2178
12576SOL    HW239661   6.984   2.085   3.834  0.1661 -0.0094 -0.8621
12577SOL     OW39662   2.826   5.510   6.581 -0.3489  0.7027 -0.5200
12577SOL    HW139663   2.877   5.547   6.509 -0.3955  0.1731 -0.8319
12577SOL    HW239664   2.884   5.512   6.656 -0.0204  0.5074 -0.7684
12578SOL     OW39665   7.060   6.483   7.247 -0.2532  0.4431  0.1021
12578SOL    HW139666   7.085   6.405   7.296  0.5829  2.0935  2.5106
12578SOL    HW239667   7.086   6.464   7.157  0.1877 -1.9087  0.6574
12579SOL     OW39668   5.579   5.969   5.175  0.1059  0.4788 -0.1758
12579SOL    HW139669   5.650   5.974   5.111  2.4878 -1.3625  2.1051
12579SOL    HW239670   5.575   6.057   5.213  0.0780  1.0188 -1.3821
12580SOL     OW39671   5.239   7.784   2.261  0.0049  0.3305  0.3149
12580SOL    HW139672   5.213   7.694   2.239  0.5811  0.5669 -1.5221
12580SOL    HW239673   5.289   7.775   2.342 -1.5514 -0.7374  1.2100
12581SOL     OW39674   2.840   1.524   6.319  0.0754 -0.2381  0.2859
12581SOL    HW139675   2.758   1.482   6.344  0.4567  0.0249  2.1171
12581SOL    HW239676   2.813   1.594   6.259 -0.9013 -0.9742 -0.1564
12582SOL     OW39677   7.889   8.136   0.581  0.4127 -0.0705 -0.6347
12582SOL    HW139678   7.911   8.056   0.534 -0.3784 -1.6091  1.4801
12582SOL    HW239679   7.794   8.132   0.593  0.2498  1.5810 -1.1253
12583SOL     OW39680   0.452   6.807   4.330  0.4243  0.0673 -0.2887
12583SOL    HW139681   0.363   6.823   4.361  0.0914  0.1376 -1.2626
12583SOL    HW239682   0.498   6.890   4.344  0.5869 -0.2220  1.0078
12584SOL     OW39683   7.779   7.834   6.039  0.1811  0.0580 -0.1848
12584SOL    HW139684   7.757   7.805   6.128  0.2110  0.0974 -0.1648
12584SOL    HW239685   7.811   7.923   6.049  0.9137 -0.2067 -0.1431
12585SOL     OW39686   1.390   0.917   7.080  0.3777 -0.1880 -0.9182
12585SOL    HW139687   1.320   0.856   7.057 -1.1941  1.0545  0.3560
12585SOL    HW239688   1.389   0.983   7.011 -0.0388  0.0964 -0.6397
12586SOL     OW39689   2.464   2.922   2.505 -0.1090  0.1377  0.1578
12586SOL    HW139690   2.405   2.936   2.431  0.8712 -1.4573 -0.9630
12586SOL    HW239691   2.432   2.841   2.546  0.2864  0.1871  0.5722
12587SOL     OW39692   1.074   3.321   8.438  0.0646 -0.1311  0.4366
12587SOL    HW139693   1.093   3.415   8.438  0.5909 -0.2053 -1.1860
12587SOL    HW239694   1.047   3.302   8.528  1.7744  1.1896  1.2930
12588SOL     OW39695   8.264   4.546   8.560  0.2464 -0.1211  0.1470
12588SOL    HW139696   8.320   4.482   8.604  0.1988  0.2033  0.6868
12588SOL    HW239697   8.307   4.562   8.476  1.9222  1.4134  1.2363
12589SOL     OW39698   3.803   5.093   4.388 -0.0576  0.2038  0.2488
12589SOL    HW139699   3.764   5.045   4.462  0.0610 -0.5301 -0.1548
12589SOL    HW239700   3.798   5.185   4.414 -1.5114  0.0920  0.4742
12590SOL     OW39701   1.796   3.222   7.877 -0.1575 -0.5261 -0.0380
12590SOL    HW139702   1.818   3.303   7.924 -2.8925  0.3418 -0.0965
12590SOL    HW239703   1.832   3.153   7.932  0.5026  0.6496  1.0723
12591SOL     OW39704   4.581   1.512   7.239 -0.0879  0.1723 -0.2822
12591SOL    HW139705   4.601   1.491   7.330 -1.7988  0.6035  0.2202
12591SOL    HW239706   4.538   1.434   7.205  0.7597 -0.0805 -0.8281
12592SOL     OW39707   2.426   0.173   8.801  0.5716  0.3144 -0.0683
12592SOL    HW139708   2.487   0.183   8.727  0.1468 -1.2586 -0.6732
12592SOL    HW239709   2.483   0.159   8.877  0.9971  0.6474 -0.3244
12593SOL     OW39710   5.608   0.607   2.700 -0.0813 -0.2757  0.5876
12593SOL    HW139711   5.629   0.619   2.793 -1.7322  0.1558  0.9356
12593SOL    HW239712   5.540   0.672   2.682 -1.6018 -2.0192 -0.2655
12594SOL     OW39713   8.119   2.981   5.530 -0.3618 -0.0301  0.0217
12594SOL    HW139714   8.186   2.978   5.461 -1.1248  0.4297 -0.7711
12594SOL    HW239715   8.091   3.073   5.532 -1.8716 -0.4469 -0.5865
12595SOL     OW39716   4.974   4.892   6.799  0.7701  0.3039  0.0412
12595SOL    HW139717   4.906   4.877   6.865  0.1896 -0.3809 -0.6909
12595SOL    HW239718   5.042   4.939   6.845 -0.0588  0.7064  0.8869
12596SOL     OW39719   8.114   6.126   4.065  0.5328 -0.8097  0.1824
12596SOL    HW139720   8.210   6.126   4.061  0.5319 -2.0619 -0.5522
12596SOL    HW239721   8.093   6.069   4.139  0.3636 -1.2332 -0.1839
12597SOL     OW39722   3.428   3.708   6.369  1.0488 -0.0660 -0.3062
12597SOL    HW139723   3.467   3.788   6.403 -0.4915 -0.3077  2.3074
12597SOL    HW239724   3.472   3.637   6.416 -0.8135 -0.4439  0.9850
12598SOL     OW39725   3.257   2.884   5.448  0.2069  0.0617 -0.0475
12598SOL    HW139726   3.250   2.807   5.392  2.4972 -0.4971  0.3605
12598SOL    HW239727   3.173   2.886   5.495  1.0325 -3.9894  2.1345
12599SOL     OW39728   8.702   0.888   7.631 -0.0882 -0.2521  0.2664
12599SOL    HW139729   8.687   0.923   7.543 -0.6470 -0.7159  0.1725
12599SOL    HW239730   8.645   0.941   7.688 -1.1791 -1.1965  0.0808
12600SOL     OW39731   3.111   3.584   5.901 -0.6689 -0.0167  0.2103
12600SOL    HW139732   3.165   3.662   5.914 -0.0404 -0.5887  1.1361
12600SOL    HW239733   3.121   3.562   5.809  1.8828 -0.9471  0.6374
12601SOL     OW39734   3.678   5.216   2.303  0.2416 -0.0826  0.0727
12601SOL    HW139735   3.649   5.301   2.335  0.1713  0.0109 -0.2323
12601SOL    HW239736   3.772   5.214   2.321  0.2903  0.1644 -0.1474
12602SOL     OW39737   1.997   4.882   4.406 -0.6634 -0.4622  0.3932
12602SOL    HW139738   2.080   4.865   4.362 -1.4252  0.2140 -1.4166
12602SOL    HW239739   1.931   4.845   4.347 -1.9246  2.7826 -0.4797
12603SOL     OW39740   1.106   1.720   7.344 -0.7555  0.3630  0.6834
12603SOL    HW139741   1.021   1.737   7.383 -0.6222 -1.0556  1.6616
12603SOL    HW239742   1.162   1.791   7.378 -0.9606 -0.0984  2.0625
12604SOL     OW39743   2.841   1.988   2.930  0.5615 -0.2830 -0.2445
12604SOL    HW139744   2.894   2.054   2.887  0.9738 -0.7949 -0.5346
12604SOL    HW239745   2.779   2.038   2.983 -0.5279  0.3859 -2.0583
12605SOL     OW39746   2.160   8.844   3.785  0.0995 -0.1735 -0.6988
12605SOL    HW139747   2.239   8.820   3.735 -0.1632 -0.5905 -0.9234
12605SOL    HW239748   2.094   8.782   3.755 -0.4452  0.4732 -0.8582
12606SOL     OW39749   3.937   7.552   1.240  0.2665 -0.1676 -0.2475
12606SOL    HW139750   3.857   7.578   1.285  0.7498  0.2404  0.3892
12606SOL    HW239751   3.942   7.608   1.163 -0.1059 -0.2605 -0.3381
12607SOL     OW39752   5.713   3.419   0.325 -0.0132  0.5878  0.1785
12607SOL    HW139753   5.647   3.357   0.294 -0.4048  0.3667  1.4004
12607SOL    HW239754   5.773   3.366   0.377  0.8327  0.8850 -0.4744
12608SOL     OW39755   3.054   4.327   6.990  0.5949  0.2680 -0.2803
12608SOL    HW139756   3.012   4.334   6.904 -0.3322  0.2787  0.1626
12608SOL    HW239757   2.995   4.272   7.041  0.9541  0.5606  0.4702
12609SOL     OW39758   6.557   4.063   2.284 -0.9940  0.4451 -0.1396
12609SOL    HW139759   6.544   4.043   2.377 -0.6305  2.1925  0.3308
12609SOL    HW239760   6.598   3.985   2.248 -0.7956 -0.1288  1.2560
12610SOL     OW39761   5.229   0.943   0.015 -0.6826  0.8801 -0.5058
12610SOL    HW139762   5.208   1.009   0.081  1.7283  2.2034 -0.9386
12610SOL    HW239763   5.266   0.994  -0.058  1.0264 -0.9099 -0.9638
12611SOL     OW39764   2.971   0.827   3.115 -0.2613  0.0894 -0.0981
12611SOL    HW139765   2.887   0.872   3.127 -0.3376  0.2326 -1.1144
12611SOL    HW239766   3.000   0.853   3.028 -0.0715 -1.4731 -0.5310
12612SOL     OW39767   1.851   1.657   7.736 -0.1070  0.4306  0.7337
12612SOL    HW139768   1.864   1.644   7.830  1.1299  0.4559  0.5825
12612SOL    HW239769   1.877   1.574   7.696 -1.0989  0.2511  0.4409
12613SOL     OW39770   3.806   5.050   1.384  0.0177 -0.0651 -0.3616
12613SOL    HW139771   3.884   5.070   1.332  1.6975 -0.7219  1.7634
12613SOL    HW239772   3.785   4.959   1.362 -0.2444  0.1562 -1.0412
12614SOL     OW39773   6.253   8.851   3.986  0.1973  0.0837  0.0263
12614SOL    HW139774   6.293   8.935   3.961  1.2029  0.1477  1.6769
12614SOL    HW239775   6.298   8.786   3.933  0.6064  0.4371 -0.0675
12615SOL     OW39776   6.709   0.057   6.161 -0.3447  0.3236 -0.0039
12615SOL    HW139777   6.690  -0.037   6.155 -0.6923  0.4152 -0.3618
12615SOL    HW239778   6.676   0.093   6.079  0.2096  0.6889 -0.0674
12616SOL     OW39779   6.167   0.208   7.810 -0.4882  0.5391  0.0666
12616SOL    HW139780   6.244   0.156   7.835 -1.0064 -0.4406 -0.3402
12616SOL    HW239781   6.120   0.153   7.748 -0.3804  2.0152 -1.3943
12617SOL     OW39782   6.780   4.197   0.919  0.5335  0.1181  0.6042
12617SOL    HW139783   6.831   4.254   0.862  0.1656  1.5167  1.6007
12617SOL    HW239784   6.689   4.214   0.894  0.4738 -1.7310 -0.5934
12618SOL     OW39785   5.334   8.376   2.121 -0.1228  0.2429 -0.5683
12618SOL    HW139786   5.257   8.326   2.148  0.1499  0.9003  1.6837
12618SOL    HW239787   5.403   8.310   2.109 -0.1475 -0.0949  0.9217
12619SOL     OW39788   5.374   2.464   7.248 -0.7011 -0.0677  0.1642
12619SOL    HW139789   5.415   2.456   7.334 -1.0253  0.2993  0.3549
12619SOL    HW239790   5.406   2.547   7.213  0.4500 -0.8205 -0.6256
12620SOL     OW39791   4.576   7.293   6.884 -0.0936  0.6984 -0.3441
12620SOL    HW139792   4.570   7.388   6.895 -0.6636  0.5076  1.1085
12620SOL    HW239793   4.583   7.259   6.973 -0.3133 -0.6510 -0.8282
12621SOL     OW39794   7.797   2.323   8.207 -0.4878  0.1448 -0.0742
12621SOL    HW139795   7.735   2.391   8.181  0.0326  1.1545  1.2328
12621SOL    HW239796   7.874   2.372   8.236  0.2915 -1.0470 -0.0838
12622SOL     OW39797   8.343   2.513   1.858 -0.0218  0.5083 -0.4028
12622SOL    HW139798   8.437   2.519   1.839  0.1924 -0.9737  0.0511
12622SOL    HW239799   8.301   2.524   1.773  0.5900  0.6648 -0.6924
12623SOL     OW39800   1.809   2.887   4.606  0.2768  0.2234  0.2808
12623SOL    HW139801   1.795   2.803   4.649 -0.1860 -0.5092 -1.2536
12623SOL    HW239802   1.743   2.945   4.645 -0.9270 -0.7385 -0.2788
12624SOL     OW39803   6.610   2.182   0.031 -0.6027  0.4407 -0.0937
12624SOL    HW139804   6.657   2.138  -0.040 -1.0975 -0.1588 -0.0634
12624SOL    HW239805   6.606   2.116   0.101 -1.8051  0.3461 -0.2357
12625SOL     OW39806   0.109   1.195   2.860 -0.1977 -0.1188  0.0958
12625SOL    HW139807   0.062   1.221   2.781 -2.6471 -1.7875  0.8998
12625SOL    HW239808   0.104   1.099   2.861  0.3510 -0.1681  1.9311
12626SOL     OW39809   6.344   0.973   7.314  0.1039  0.0463 -0.7839
12626SOL    HW139810   6.263   1.006   7.353  1.0014  1.0079  0.3593
12626SOL    HW239811   6.326   0.881   7.296 -1.0959  0.1282 -0.1126
12627SOL     OW39812   2.750   2.180   8.679 -0.2462  0.5436 -0.1224
12627SOL    HW139813   2.768   2.273   8.661 -0.7230  0.6130 -0.2506
12627SOL    HW239814   2.683   2.181   8.747  1.3069  0.2786  1.4903
12628SOL     OW39815   3.535   8.715   7.219  0.2746  1.2082  0.0897
12628SOL    HW139816   3.555   8.701   7.127 -2.3989 -2.2328 -0.1913
12628SOL    HW239817   3.459   8.773   7.219  0.6903  1.7605  0.1978
12629SOL     OW39818   2.657   6.699   4.341 -0.0513 -0.2052  0.3420
12629SOL    HW139819   2.719   6.768   4.367  2.0975 -1.4183 -1.2422
12629SOL    HW239820   2.627   6.727   4.254  1.8036 -1.7473 -0.8848
12630SOL     OW39821   6.787   3.490   6.515 -0.0983  0.0993 -0.5157
12630SOL    HW139822   6.755   3.521   6.599  1.5458 -1.3819  0.7202
12630SOL    HW239823   6.775   3.565   6.456 -1.3985  1.1279  0.9787
12631SOL     OW39824   3.572   0.100   1.721 -0.0434  0.1206 -0.6905
12631SOL    HW139825   3.505   0.136   1.663 -0.1636  1.5627  0.2985
12631SOL    HW239826   3.583   0.009   1.692 -0.6038  0.5916 -2.4934
12632SOL     OW39827   1.190   7.441   8.703 -0.1757 -0.0413  0.1921
12632SOL    HW139828   1.230   7.469   8.786 -0.1155  0.1114  0.1127
12632SOL    HW239829   1.264   7.431   8.643  0.0177 -2.1625  0.6983
12633SOL     OW39830   8.381   5.049   2.514  0.0685  0.3687  0.1846
12633SOL    HW139831   8.433   4.971   2.534 -0.7045 -0.7065 -1.7177
12633SOL    HW239832   8.415   5.116   2.573  0.4087 -1.5250  2.2779
12634SOL     OW39833   4.479   6.666   3.070  0.1953  0.6626  0.1910
12634SOL    HW139834   4.573   6.657   3.084  0.1046  0.8292  0.8985
12634SOL    HW239835   4.471   6.740   3.011  0.5609  0.0599 -0.6455
12635SOL     OW39836   5.446   3.082   6.096  0.5133  0.3598  0.0420
12635SOL    HW139837   5.482   2.994   6.086  0.6477  0.3875  0.2880
12635SOL    HW239838   5.352   3.071   6.087  0.4126 -0.0058  1.4616
12636SOL     OW39839   1.566   4.301   1.148  0.4420  0.4870 -0.4332
12636SOL    HW139840   1.485   4.351   1.154  0.2932  0.3030 -0.8504
12636SOL    HW239841   1.614   4.322   1.228  0.1777  0.9388 -0.3918
12637SOL     OW39842   4.845   5.360   1.851 -0.5414  0.4152  0.0883
12637SOL    HW139843   4.751   5.346   1.864 -0.6478  0.7774 -0.2686
12637SOL    HW239844   4.853   5.390   1.761  0.0629 -0.8409 -0.2993
12638SOL     OW39845   7.500   5.820   2.045 -0.5748 -0.3648  0.2345
12638SOL    HW139846   7.555   5.790   1.973 -0.1952 -2.4467  1.3131
12638SOL    HW239847   7.428   5.756   2.049 -2.3356  1.4878 -0.2299
12639SOL     OW39848   2.991   3.942   7.704 -0.1960 -0.1673 -0.3664
12639SOL    HW139849   3.033   4.012   7.753 -2.0941 -0.1724  1.3667
12639SOL    HW239850   3.016   3.861   7.750 -1.9730 -0.1718  0.6718
12640SOL     OW39851   5.355   2.727   3.350 -0.3684 -0.3179 -0.1973
12640SOL    HW139852   5.266   2.737   3.383 -0.6962  0.3868 -1.2497
12640SOL    HW239853   5.357   2.780   3.270  0.5713 -1.4804 -0.9774
12641SOL     OW39854   7.919   0.585   5.137  0.5716 -0.3415  0.2761
12641SOL    HW139855   7.837   0.631   5.153  1.1158  0.8217 -0.1618
12641SOL    HW239856   7.930   0.588   5.042  1.3100 -0.1577  0.3628
12642SOL     OW39857   1.543   6.871   0.639  0.1995 -0.3104  0.1089
12642SOL    HW139858   1.547   6.911   0.552 -0.0290 -1.3004 -0.3604
12642SOL    HW239859   1.614   6.914   0.688  1.1223 -0.6052 -0.9244
12643SOL     OW39860   2.864   1.347   6.043  0.2350  0.1017  0.4992
12643SOL    HW139861   2.950   1.356   6.083 -0.4812 -1.4185  2.5977
12643SOL    HW239862   2.845   1.253   6.049 -0.4084 -0.0440 -2.5306
12644SOL     OW39863   0.669   3.775   7.461  0.2349  0.2457 -0.3399
12644SOL    HW139864   0.680   3.795   7.368 -1.4512 -0.5064 -0.7340
12644SOL    HW239865   0.575   3.763   7.472  0.5016 -0.6735  1.2682
12645SOL     OW39866   2.477   4.725   1.512  0.2821 -0.4970 -0.0135
12645SOL    HW139867   2.391   4.718   1.471 -0.9839 -0.0272  2.3883
12645SOL    HW239868   2.472   4.670   1.590  1.7274  0.4882  0.8287
12646SOL     OW39869   4.831   3.388   1.534 -0.4028 -0.1117  0.3559
12646SOL    HW139870   4.838   3.293   1.526  0.1746 -0.3280  2.6408
12646SOL    HW239871   4.922   3.417   1.544 -0.6737  0.4575  1.3210
12647SOL     OW39872   0.715   2.516   1.869 -0.1468 -0.0932 -0.3359
12647SOL    HW139873   0.704   2.493   1.961  2.5858 -0.4567 -0.0332
12647SOL    HW239874   0.735   2.434   1.825 -0.2946  0.2481 -1.0691
12648SOL     OW39875   0.045   5.418   3.187 -0.8691  0.1846  0.9499
12648SOL    HW139876   0.058   5.473   3.265 -2.4243 -0.8162  1.9692
12648SOL    HW239877   0.032   5.330   3.221 -0.7815 -0.4329 -0.5204
12649SOL     OW39878   5.865   5.381   6.841 -0.0018 -0.0915  0.2347
12649SOL    HW139879   5.862   5.353   6.749  0.8456  0.7937 -0.0770
12649SOL    HW239880   5.821   5.466   6.842 -0.4579 -0.3250  0.7491
12650SOL     OW39881   5.005   2.020   4.228  0.0569 -0.2477 -0.0125
12650SOL    HW139882   4.944   2.063   4.289 -0.0342 -2.0216  1.2253
12650SOL    HW239883   4.950   1.995   4.153 -0.4568 -0.5768  0.4619
12651SOL     OW39884   8.665   0.318   0.359  0.7177 -0.2401 -0.2103
12651SOL    HW139885   8.664   0.379   0.432  1.2054  0.5741 -0.8642
12651SOL    HW239886   8.652   0.373   0.281 -0.9983 -1.2107 -0.6646
12652SOL     OW39887   3.656   6.178   6.246  0.2353  0.6015  0.1511
12652SOL    HW139888   3.662   6.272   6.227  0.0765  0.2134 -2.0827
12652SOL    HW239889   3.569   6.153   6.215  0.5178 -0.4073  0.1503
12653SOL     OW39890   7.928   7.756   8.263 -0.2109  0.9197  0.4075
12653SOL    HW139891   7.918   7.848   8.239 -0.0890  0.7132 -0.4890
12653SOL    HW239892   7.870   7.709   8.203  1.0127  0.2857 -0.3276
12654SOL     OW39893   1.877   0.505   1.117 -0.0366 -0.4148  0.1817
12654SOL    HW139894   1.963   0.509   1.074 -0.2366 -0.2463 -0.2012
12654SOL    HW239895   1.854   0.412   1.113  0.5721 -0.6290  1.1725
12655SOL     OW39896   1.847   8.752   4.186 -0.4839  0.5983 -0.5592
12655SOL    HW139897   1.926   8.801   4.209 -1.3447  1.8530 -0.1397
12655SOL    HW239898   1.777   8.796   4.235 -1.2543 -1.3352  0.1833
12656SOL     OW39899   8.553   7.320   5.258 -0.2195  0.3609  0.1963
12656SOL    HW139900   8.512   7.233   5.259  2.9649 -1.2891  1.4375
12656SOL    HW239901   8.487   7.378   5.295 -1.4978 -2.0895  2.0631
12657SOL     OW39902   6.526   2.039   2.354 -0.7340  0.0915 -0.3014
12657SOL    HW139903   6.574   1.987   2.418 -0.3307 -0.4473 -1.0292
12657SOL    HW239904   6.457   2.082   2.405 -1.1908 -1.2867  0.2970
12658SOL     OW39905   3.181   3.832   0.493  0.1731  0.1460  0.0379
12658SOL    HW139906   3.135   3.748   0.496 -0.6280  0.5569 -0.3239
12658SOL    HW239907   3.246   3.826   0.563 -2.2770  0.5752  2.5617
12659SOL     OW39908   0.068   4.459   2.506 -0.3475 -0.1629  0.3744
12659SOL    HW139909   0.063   4.448   2.600 -0.9223 -0.9561  0.2617
12659SOL    HW239910   0.155   4.426   2.482 -0.6198 -1.0037  0.5035
12660SOL     OW39911   2.542   3.642   4.476 -0.2553  0.5957  0.3358
12660SOL    HW139912   2.582   3.573   4.529  0.1714  0.3891 -0.2392
12660SOL    HW239913   2.530   3.715   4.536  0.5768  0.5036  0.6251
12661SOL     OW39914   4.476   0.366   0.453  0.5038 -0.1451  0.0059
12661SOL    HW139915   4.411   0.411   0.399 -0.1877 -0.2100  0.7620
12661SOL    HW239916   4.536   0.435   0.482  0.1632  0.0845  0.1628
12662SOL     OW39917   2.868   1.162   7.998 -0.1984 -0.6860 -0.8078
12662SOL    HW139918   2.940   1.176   7.936  1.2761  0.4486  1.0483
12662SOL    HW239919   2.885   1.075   8.035  0.2423 -0.4190 -0.3704
12663SOL     OW39920   2.786   4.577   0.656  0.1190 -0.2345 -0.7827
12663SOL    HW139921   2.781   4.665   0.619 -0.2505 -0.2442 -0.7591
12663SOL    HW239922   2.873   4.573   0.696 -0.5664  0.8021  0.9271
12664SOL     OW39923   6.101   5.361   4.094  0.0237  0.9950 -0.1189
12664SOL    HW139924   6.013   5.399   4.092 -0.7822 -0.7907 -1.5063
12664SOL    HW239925   6.159   5.434   4.070 -1.3377  1.6422 -1.6449
12665SOL     OW39926   6.225   2.696   6.987 -0.1891  0.8424 -0.8175
12665SOL    HW139927   6.216   2.745   6.904  1.6292 -0.5581 -1.9080
12665SOL    HW239928   6.270   2.616   6.962  1.3292  0.8336  1.7274
12666SOL     OW39929   3.915   1.922   0.502 -0.5325 -0.8017 -0.3124
12666SOL    HW139930   3.825   1.890   0.499 -1.2426  1.1331 -0.6583
12666SOL    HW239931   3.910   2.013   0.475  1.1835  0.1514  2.2216
12667SOL     OW39932   8.616   7.105   4.592  0.0104  0.4750 -0.4170
12667SOL    HW139933   8.648   7.194   4.581  1.6462  0.2621  1.9992
12667SOL    HW239934   8.690   7.049   4.570 -0.5982 -0.2609 -0.6667
12668SOL     OW39935   0.180   3.871   3.885  0.3644  0.1401  0.1286
12668SOL    HW139936   0.253   3.908   3.836  0.1265  0.3554 -0.0661
12668SOL    HW239937   0.215   3.790   3.923  0.4359 -0.2438 -0.7346
12669SOL     OW39938   8.630   1.155   3.909  0.1779  0.0337  0.3234
12669SOL    HW139939   8.595   1.173   3.822 -2.9738 -2.0142  0.9990
12669SOL    HW239940   8.612   1.235   3.959  1.3396  0.9467 -0.6781
12670SOL     OW39941   1.382   1.319   5.737 -0.3700  0.6347 -0.5596
12670SOL    HW139942   1.443   1.272   5.792  0.6206  1.4348 -0.9492
12670SOL    HW239943   1.331   1.373   5.797 -2.0103 -1.3870 -0.0225
12671SOL     OW39944   3.259   7.826   2.035 -0.0914  0.2389  0.2018
12671SOL    HW139945   3.269   7.807   2.128 -2.2719  1.0746  0.6866
12671SOL    HW239946   3.197   7.759   2.004  0.3515  0.1782 -0.5697
12672SOL     OW39947   4.745   1.473   0.834  0.6073 -0.1657  0.1315
12672SOL    HW139948   4.667   1.422   0.814 -0.7296  1.4749  0.8823
12672SOL    HW239949   4.721   1.563   0.813  2.0578  0.4732  1.0200
12673SOL     OW39950   7.288   0.259   2.735  0.3716  0.1250 -0.0242
12673SOL    HW139951   7.262   0.189   2.796  0.1066  0.1842 -0.0664
12673SOL    HW239952   7.294   0.215   2.651 -1.8724  0.5402 -0.4600
12674SOL     OW39953   3.547   1.770   7.527 -0.2539 -0.2571  0.4035
12674SOL    HW139954   3.498   1.708   7.580 -2.1996 -0.7014 -1.7638
12674SOL    HW239955   3.532   1.855   7.569  0.6394 -0.8865  2.1246
12675SOL     OW39956   7.409   5.482   7.739 -0.1056  0.8431 -0.0592
12675SOL    HW139957   7.330   5.535   7.738 -0.0467  0.9617  0.8818
12675SOL    HW239958   7.453   5.503   7.656 -1.0855  0.7144 -0.6242
12676SOL     OW39959   5.516   0.728   2.394  0.2736  0.3714  0.3281
12676SOL    HW139960   5.427   0.735   2.357  0.7153  2.0013 -0.5223
12676SOL    HW239961   5.502   0.712   2.487 -0.8795 -2.3052 -0.1999
12677SOL     OW39962   2.226   1.959   0.616  0.4337 -0.2258 -0.1501
12677SOL    HW139963   2.131   1.973   0.614  0.1489 -1.8767  0.3039
12677SOL    HW239964   2.250   1.974   0.708  0.3164 -1.4463  0.0914
12678SOL     OW39965   6.321   7.006   7.088 -0.6970 -0.1817 -0.0919
12678SOL    HW139966   6.308   7.009   6.993 -1.3748 -0.2660 -0.0024
12678SOL    HW239967   6.335   7.097   7.113  1.0166 -0.3045 -0.4738
12679SOL     OW39968   2.414   2.537   1.729  0.2866 -0.2533  0.3474
12679SOL    HW139969   2.360   2.466   1.693 -0.3723  0.4827 -0.1531
12679SOL    HW239970   2.501   2.499   1.738  0.2404 -0.7695 -1.1084
12680SOL     OW39971   0.677   0.015   7.157  0.2396  0.1156  0.1944
12680SOL    HW139972   0.696   0.108   7.144 -0.7877  0.1880 -0.8940
12680SOL    HW239973   0.634  -0.013   7.076 -2.3708 -0.5363  1.6843
12681SOL     OW39974   7.099   5.286   3.794  0.6307 -0.3970  0.6610
12681SOL    HW139975   7.060   5.236   3.865 -1.2106  0.7897  0.5549
12681SOL    HW239976   7.058   5.252   3.715  1.7571 -0.8669  0.2457
12682SOL     OW39977   0.467   1.007   4.265 -0.5775  0.1500 -0.2288
12682SOL    HW139978   0.473   1.090   4.312 -0.2184 -0.4211  0.7737
12682SOL    HW239979   0.400   0.958   4.313 -0.2923 -0.4008 -0.3925
12683SOL     OW39980   4.832   7.871   6.112 -0.6800  0.3887 -0.1431
12683SOL    HW139981   4.864   7.944   6.166  1.2340  0.3021 -1.0506
12683SOL    HW239982   4.875   7.794   6.150  0.4354  0.2865 -1.5109
12684SOL     OW39983   7.677   0.293   6.398 -0.1417 -0.3936 -0.4766
12684SOL    HW139984   7.584   0.304   6.378  0.1760 -0.4655 -2.1446
12684SOL    HW239985   7.722   0.326   6.320  1.2183 -0.8415  0.0918
12685SOL     OW39986   7.930   0.196   5.701 -0.2724 -0.0105 -0.1657
12685SOL    HW139987   7.945   0.144   5.781 -0.0454 -1.7080 -1.2516
12685SOL    HW239988   7.851   0.159   5.662  0.6861 -0.5367 -1.7054
12686SOL     OW39989   8.861   4.962   1.276 -0.3900  0.2908 -0.2236
12686SOL    HW139990   8.874   4.933   1.367 -1.9111  1.1499  0.3067
12686SOL    HW239991   8.774   4.929   1.254  0.4753 -1.0457 -1.8692
12687SOL     OW39992   5.484   1.726   6.424 -0.3064 -0.3519  0.2041
12687SOL    HW139993   5.391   1.703   6.422 -0.2906 -0.5669  1.2531
12687SOL    HW239994   5.522   1.681   6.348 -1.5703  2.2472 -2.1653
12688SOL     OW39995   5.414   6.586   0.004 -0.0940 -0.5038  0.3807
12688SOL    HW139996   5.441   6.646   0.073 -1.6760  0.3819  0.2790
12688SOL    HW239997   5.372   6.513   0.051 -1.1590  0.0923  0.3914
12689SOL     OW39998   6.028   4.069   7.690 -0.9137  0.7114 -0.3848
12689SOL    HW139999   5.990   4.048   7.776 -0.0744  0.2251 -0.1238
12689SOL    HW240000   5.963   4.038   7.627 -0.8200 -0.4080  0.0484
12690SOL     OW40001   3.778   1.582   4.280  0.2509  0.4594  0.3876
12690SOL    HW140002   3.787   1.628   4.364 -0.8284  1.1322  0.1533
12690SOL    HW240003   3.758   1.491   4.305  2.7645 -0.0394  0.8576
12691SOL     OW40004   8.765   0.985   5.286  0.6884  0.0859 -0.4243
12691SOL    HW140005   8.711   1.040   5.343  0.6497 -0.9696  0.6006
12691SOL    HW240006   8.711   0.908   5.269  1.5593 -0.6252 -0.0311
12692SOL     OW40007   7.540   2.334   6.212 -0.5154  0.1035  0.6261
12692SOL    HW140008   7.558   2.319   6.119 -0.4074  0.9783  0.4972
12692SOL    HW240009   7.523   2.247   6.247  0.1779 -0.3238 -0.0565
12693SOL     OW40010   3.810   5.103   5.408  0.0821 -0.0313  0.2095
12693SOL    HW140011   3.902   5.110   5.383  0.2990 -0.2429  0.8975
12693SOL    HW240012   3.812   5.106   5.504 -0.6558  0.2466  0.2182
12694SOL     OW40013   8.448   1.463   8.032 -0.3591 -0.0932  0.0399
12694SOL    HW140014   8.511   1.462   7.960  0.4290  1.4083  0.6492
12694SOL    HW240015   8.502   1.468   8.111 -1.2281  0.1716  0.6343
12695SOL     OW40016   4.529   6.728   6.381  0.0080 -0.1380  0.1725
12695SOL    HW140017   4.469   6.714   6.454 -0.6436 -1.2811 -0.5388
12695SOL    HW240018   4.494   6.673   6.311  1.6034 -0.4365 -0.4323
12696SOL     OW40019   8.646   8.588   2.163  0.5315 -0.1304 -0.2427
12696SOL    HW140020   8.555   8.576   2.134  0.1389 -0.8047  1.1846
12696SOL    HW240021   8.680   8.499   2.171  0.4439 -0.0265  1.7962
12697SOL     OW40022   1.776   6.205   0.810  0.1366  0.2747 -0.4834
12697SOL    HW140023   1.688   6.169   0.807  1.1533 -3.0153  2.5798
12697SOL    HW240024   1.785   6.240   0.899  2.6004 -1.8925  0.2641
12698SOL     OW40025   7.993   7.253   4.632 -0.0782 -0.0046 -0.1359
12698SOL    HW140026   7.937   7.180   4.608 -0.3137  0.7535 -2.0765
12698SOL    HW240027   7.953   7.290   4.711 -1.8131 -0.0345 -0.9621
12699SOL     OW40028   0.491   7.566   5.853  0.7198 -0.2842  0.3258
12699SOL    HW140029   0.450   7.525   5.777  0.9382 -2.1386  1.1640
12699SOL    HW240030   0.581   7.583   5.825  0.1948  1.2588 -0.5850
12700SOL     OW40031   2.504   2.506   5.046  0.9226 -0.2178  0.2102
12700SOL    HW140032   2.409   2.497   5.037  0.6893  2.6668 -1.5689
12700SOL    HW240033   2.515   2.581   5.105  2.0647  0.0796 -0.3582
12701SOL     OW40034   0.649   4.682   5.061  0.6560 -0.6113  0.3172
12701SOL    HW140035   0.583   4.616   5.044  0.6772 -0.4615 -0.3819
12701SOL    HW240036   0.619   4.759   5.013  0.3346  0.0846  1.5798
12702SOL     OW40037   0.186   0.871   1.906  0.4439  0.8138 -0.1417
12702SOL    HW140038   0.262   0.842   1.957 -0.8401 -1.1941  0.7528
12702SOL    HW240039   0.123   0.902   1.972 -0.5696 -0.1800 -0.6167
12703SOL     OW40040   7.617   4.553   5.454 -0.0314  0.4027 -0.1860
12703SOL    HW140041   7.699   4.602   5.441  1.0430 -0.9525  1.0915
12703SOL    HW240042   7.559   4.615   5.498  0.4731  1.2206 -0.6310
12704SOL     OW40043   5.779   8.522   0.418 -0.2380 -0.6190 -0.0363
12704SOL    HW140044   5.714   8.489   0.480 -1.6796  1.9713 -0.0348
12704SOL    HW240045   5.780   8.458   0.347 -1.5615 -1.5611  0.7471
12705SOL     OW40046   4.038   2.333   1.657  0.7246  0.0368  0.1279
12705SOL    HW140047   4.067   2.255   1.704  1.6805  0.4301  0.2091
12705SOL    HW240048   4.117   2.365   1.612  1.0413  2.3938  2.1238
12706SOL     OW40049   4.006   7.376   6.586 -0.5469  0.3925 -0.4051
12706SOL    HW140050   3.922   7.364   6.629 -0.4845 -0.2363 -0.4371
12706SOL    HW240051   4.068   7.392   6.657 -0.2609 -1.6513 -0.1088
12707SOL     OW40052   7.558   7.831   5.210 -0.7147  0.0357 -0.5637
12707SOL    HW140053   7.538   7.921   5.232  0.2163 -0.0215  0.6245
12707SOL    HW240054   7.620   7.837   5.138 -1.6313  0.2953 -1.3517
12708SOL     OW40055   2.071   0.380   5.373  0.2626 -0.5941  0.6047
12708SOL    HW140056   1.984   0.407   5.343  0.5604 -1.6832 -1.3927
12708SOL    HW240057   2.064   0.378   5.469 -2.2322 -1.6481  0.4692
12709SOL     OW40058   6.177   2.926   7.145 -0.6996 -0.4414  0.2000
12709SOL    HW140059   6.215   2.845   7.110  0.1910  0.0528  0.0044
12709SOL    HW240060   6.110   2.950   7.081 -0.2793 -0.4876 -0.2673
12710SOL     OW40061   7.383   0.242   5.772  0.9018  0.2907  0.0582
12710SOL    HW140062   7.396   0.174   5.838  0.1048  0.2318  0.1668
12710SOL    HW240063   7.295   0.226   5.739  0.9272  0.9206 -0.3276
12711SOL     OW40064   6.381   0.868   4.209 -0.5902 -0.5010  0.0257
12711SOL    HW140065   6.321   0.861   4.135 -2.2792 -0.2738  1.3042
12711SOL    HW240066   6.413   0.779   4.223 -0.4060 -0.5786 -0.8328
12712SOL     OW40067   1.420   7.939   0.471 -0.7762  0.7031  0.2208
12712SOL    HW140068   1.450   7.969   0.557 -1.2405 -1.9975  1.4481
12712SOL    HW240069   1.329   7.912   0.486 -1.2935  1.4119 -1.4776
12713SOL     OW40070   3.077   1.746   3.554 -0.0762  0.2980 -0.5261
12713SOL    HW140071   3.134   1.800   3.500  1.1081  1.4495  1.7171
12713SOL    HW240072   3.135   1.679   3.591 -0.5505  0.3551  0.3455
12714SOL     OW40073   6.606   2.613   2.978  0.4708  0.2622 -0.0913
12714SOL    HW140074   6.524   2.568   2.958  0.1354  1.0342 -0.4752
12714SOL    HW240075   6.658   2.547   3.024 -0.8855  0.1743  1.4102
12715SOL     OW40076   7.149   4.005   7.172  0.1381  0.1527  0.6175
12715SOL    HW140077   7.087   3.938   7.145 -0.8388  0.7020  1.4261
12715SOL    HW240078   7.157   3.994   7.267  0.9780  0.3502  0.5810
12716SOL     OW40079   7.291   3.631   0.070 -0.1448 -0.7364  0.1581
12716SOL    HW140080   7.310   3.563   0.005  1.2668 -1.2400  1.0680
12716SOL    HW240081   7.195   3.634   0.073 -0.2406 -1.4450 -1.1578
12717SOL     OW40082   4.841   1.309   7.926 -0.1539 -0.1162  0.5785
12717SOL    HW140083   4.822   1.401   7.906 -1.5906 -0.2687  1.0972
12717SOL    HW240084   4.839   1.305   8.022 -2.7299 -1.1426  0.5521
12718SOL     OW40085   8.258   1.733   1.636 -0.1089  0.1839 -0.0985
12718SOL    HW140086   8.215   1.649   1.653  0.0618  0.0606 -0.2679
12718SOL    HW240087   8.273   1.771   1.723  2.0840 -1.1047  0.1532
12719SOL     OW40088   3.580   0.198   5.109  0.2251  0.0455  0.7453
12719SOL    HW140089   3.674   0.216   5.103  0.0661  0.9358  0.7874
12719SOL    HW240090   3.568   0.117   5.059  0.9038  0.3505  0.0661
12720SOL     OW40091   4.169   2.856   0.072  0.1871  0.2960 -0.0110
12720SOL    HW140092   4.223   2.922   0.117  1.1976  0.2051 -1.0370
12720SOL    HW240093   4.087   2.855   0.121  0.1085  2.3845 -0.0176
12721SOL     OW40094   2.909   5.954   2.501 -0.7823 -0.0933  0.1084
12721SOL    HW140095   2.836   5.927   2.558 -0.1353 -1.3233  0.3892
12721SOL    HW240096   2.870   5.962   2.414 -0.8832 -2.9526 -0.2072
12722SOL     OW40097   7.019   7.229   0.139 -0.4288 -0.2498  0.2789
12722SOL    HW140098   6.944   7.206   0.194  0.6780 -2.3097  1.0535
12722SOL    HW240099   7.092   7.238   0.200 -0.1707  2.7397 -0.3508
12723SOL     OW40100   6.464   6.117   8.141  0.3637  0.1101  0.2794
12723SOL    HW140101   6.407   6.187   8.173 -0.8780 -1.9288  2.9290
12723SOL    HW240102   6.532   6.162   8.092 -1.9740  2.8978 -0.7092
12724SOL     OW40103   4.817   5.761   0.120  0.1739 -0.2377  0.3120
12724SOL    HW140104   4.739   5.710   0.096 -0.3160  0.5243  0.2473
12724SOL    HW240105   4.884   5.695   0.139 -0.7859 -0.9440  1.4117
12725SOL     OW40106   0.628   2.235   5.652 -0.3659  0.0046 -0.0962
12725SOL    HW140107   0.654   2.321   5.685 -2.2299  0.7826 -0.5048
12725SOL    HW240108   0.602   2.185   5.730  0.0846  0.0404  0.0784
12726SOL     OW40109   3.407   8.094   7.110  0.4550 -0.3274  0.3334
12726SOL    HW140110   3.348   8.154   7.065  0.4142  0.0889  0.9252
12726SOL    HW240111   3.399   8.117   7.203  1.5655 -0.2436  0.4259
12727SOL     OW40112   8.657   1.040   3.294  0.6214 -0.9239  0.3558
12727SOL    HW140113   8.652   0.996   3.209  1.8025 -1.6167  0.6269
12727SOL    HW240114   8.684   0.972   3.355  1.9566  0.0469  0.8917
12728SOL     OW40115   0.626   4.372   3.289  0.1030 -0.0367  0.5052
12728SOL    HW140116   0.643   4.463   3.313  3.4355 -0.4382  0.1394
12728SOL    HW240117   0.615   4.326   3.372 -0.4045  0.4941  0.7344
12729SOL     OW40118   6.534   8.675   3.601  0.4832 -0.2413  0.3700
12729SOL    HW140119   6.440   8.681   3.619  0.4012 -0.8688  0.1953
12729SOL    HW240120   6.569   8.624   3.675  1.1174  2.0363  1.7513
12730SOL     OW40121   0.585   3.676   0.979  0.8055  0.2928 -0.3082
12730SOL    HW140122   0.526   3.683   1.054  0.8377  2.2504 -0.4161
12730SOL    HW240123   0.672   3.693   1.014  0.8175  1.2669 -0.7529
12731SOL     OW40124   1.026   2.335   7.824 -0.1840  0.2919  0.0773
12731SOL    HW140125   0.997   2.343   7.733  0.3522  0.6524 -0.0645
12731SOL    HW240126   0.964   2.273   7.863  0.7252 -1.3688 -1.0197
12732SOL     OW40127   7.456   0.506   4.634  0.0732  0.2550  0.3875
12732SOL    HW140128   7.504   0.424   4.647  3.0386  1.9583  1.0119
12732SOL    HW240129   7.480   0.533   4.545 -1.4853  0.1271 -0.0954
12733SOL     OW40130   6.549   3.319   4.544 -0.0475 -0.5960  0.3889
12733SOL    HW140131   6.589   3.318   4.457 -0.3998 -2.7621  0.1972
12733SOL    HW240132   6.490   3.394   4.543 -0.7619 -1.1326 -1.5910
12734SOL     OW40133   4.334   3.360   6.578 -0.0991  0.2366  0.0291
12734SOL    HW140134   4.394   3.323   6.514  1.8722 -0.2151  1.9915
12734SOL    HW240135   4.256   3.306   6.573  0.5215 -0.5815 -1.0829
12735SOL     OW40136   7.066   5.752   2.654 -0.0088 -0.1431 -0.3382
12735SOL    HW140137   7.110   5.749   2.569  0.0516  0.4337 -0.3296
12735SOL    HW240138   6.973   5.743   2.634  0.1414 -2.2390 -0.2979
12736SOL     OW40139   4.060   8.542   3.336 -0.7185  0.3521 -0.3639
12736SOL    HW140140   3.975   8.499   3.342 -1.1070  0.9825 -1.1387
12736SOL    HW240141   4.090   8.524   3.247 -0.5252  0.9988 -0.4382
12737SOL     OW40142   5.673   5.145   6.821 -0.3351  0.2147  0.2103
12737SOL    HW140143   5.606   5.123   6.886 -0.2271 -0.2982  0.1568
12737SOL    HW240144   5.671   5.240   6.816  0.4442  0.3507  1.8106
12738SOL     OW40145   2.365   0.889   3.549 -0.2345 -0.0905  0.1400
12738SOL    HW140146   2.457   0.863   3.548 -0.5125 -1.1562  0.4978
12738SOL    HW240147   2.323   0.824   3.606 -1.2720  0.1343 -0.3462
12739SOL     OW40148   5.075   0.981   6.227 -0.4540 -0.0286 -0.4417
12739SOL    HW140149   5.027   0.933   6.295  0.5912 -2.3456 -1.2345
12739SOL    HW240150   5.022   1.059   6.211 -1.0979  0.2825  2.5130
12740SOL     OW40151   3.321   2.332   7.167  1.1387  0.2215  0.0212
12740SOL    HW140152   3.309   2.398   7.235  0.3014 -0.5652  0.6578
12740SOL    HW240153   3.321   2.248   7.214 -1.7436 -0.5213 -1.1142
12741SOL     OW40154   3.925   5.953   4.969 -0.3774  0.4877 -0.4301
12741SOL    HW140155   3.865   5.912   4.907  1.0407 -0.4736 -1.2540
12741SOL    HW240156   3.926   5.895   5.045 -0.4289  0.4499 -0.4589
12742SOL     OW40157   3.630   3.602   4.853 -0.1556  0.9275  0.0273
12742SOL    HW140158   3.716   3.565   4.874 -0.6384 -0.2240  0.0812
12742SOL    HW240159   3.643   3.648   4.770 -0.2853 -2.6488 -2.1990
12743SOL     OW40160   5.279   6.796   8.464  0.1981  0.1001  0.0890
12743SOL    HW140161   5.272   6.888   8.440  0.4132  0.0867 -0.0260
12743SOL    HW240162   5.193   6.759   8.443  0.7144 -0.1598 -1.7195
12744SOL     OW40163   4.120   3.705   8.613  0.1703 -0.0474 -0.6887
12744SOL    HW140164   4.029   3.677   8.604  0.2052 -0.8385  0.9779
12744SOL    HW240165   4.116   3.782   8.670  0.3756  1.3931 -2.5364
12745SOL     OW40166   5.979   0.056   8.550  0.2295 -0.1914  0.5331
12745SOL    HW140167   6.074   0.066   8.544  0.1931  1.1119  1.7224
12745SOL    HW240168   5.962   0.043   8.644 -0.8485  0.7198  0.4830
12746SOL     OW40169   6.649   4.284   3.676 -0.5321  0.6027 -0.3347
12746SOL    HW140170   6.571   4.333   3.700 -1.3801 -1.0086  0.3821
12746SOL    HW240171   6.717   4.315   3.736 -1.5210 -0.3424  1.3504
12747SOL     OW40172   0.252   3.992   5.399 -0.6183  0.2009 -0.1827
12747SOL    HW140173   0.298   3.935   5.460 -0.7818 -0.2430 -0.4635
12747SOL    HW240174   0.183   3.936   5.362 -0.9385  0.6524 -0.2804
12748SOL     OW40175   0.713   0.692   8.607 -0.5992  0.0961 -0.1027
12748SOL    HW140176   0.689   0.785   8.614 -2.2889 -0.3831  1.2183
12748SOL    HW240177   0.630   0.647   8.591  0.1980 -1.2029 -0.7161
12749SOL     OW40178   5.803   8.469   3.108 -0.0642  0.3807 -0.3296
12749SOL    HW140179   5.829   8.545   3.056  0.1267  1.8396  1.7838
12749SOL    HW240180   5.718   8.444   3.072  0.6324  0.4794 -2.1742
12750SOL     OW40181   2.703   1.262   3.026  0.0108  0.3707  0.4191
12750SOL    HW140182   2.661   1.341   2.993 -0.5689  0.5907  1.6165
12750SOL    HW240183   2.792   1.289   3.047 -0.4200  0.9332  1.5902
12751SOL     OW40184   7.560   3.454   0.233  0.2918 -0.5264 -0.0331
12751SOL    HW140185   7.583   3.540   0.198  0.2602 -0.7916 -0.7173
12751SOL    HW240186   7.589   3.392   0.166 -1.2193 -0.9516 -0.3151
12752SOL     OW40187   7.577   1.598   4.162 -0.7289  0.8987  0.0107
12752SOL    HW140188   7.586   1.634   4.250 -0.6918 -1.6699  1.1524
12752SOL    HW240189   7.635   1.521   4.162 -0.3630  1.1120 -2.4302
12753SOL     OW40190   1.033   0.505   0.477  0.4859 -0.2101 -0.5200
12753SOL    HW140191   1.114   0.546   0.444  0.2362 -0.5783 -1.6342
12753SOL    HW240192   1.002   0.566   0.545  1.2023  0.4088 -0.7254
12754SOL     OW40193   7.249   8.329   6.115  0.0268 -1.1365  0.6474
12754SOL    HW140194   7.271   8.379   6.193  1.5412 -0.5676 -0.1080
12754SOL    HW240195   7.186   8.385   6.068  1.6224  0.0878 -0.1364
12755SOL     OW40196   7.632   6.235   6.585 -0.2448  0.1998 -0.8846
12755SOL    HW140197   7.656   6.158   6.637  0.6673  1.7223  1.0626
12755SOL    HW240198   7.541   6.253   6.610  0.5965  1.7329  1.3965
12756SOL     OW40199   1.115   3.108   4.420 -0.1747 -0.0735 -0.0609
12756SOL    HW140200   1.097   3.081   4.330 -0.8577 -1.5997  0.4993
12756SOL    HW240201   1.041   3.075   4.471  1.9519 -2.6674  1.6615
12757SOL     OW40202   4.094   4.150   6.957  0.0281 -0.1914 -0.1023
12757SOL    HW140203   4.038   4.077   6.983 -0.0386  0.2906  1.1480
12757SOL    HW240204   4.137   4.178   7.037  0.1880  1.0285 -0.5863
12758SOL     OW40205   6.066   0.771   4.283 -0.1041 -0.0020  0.1656
12758SOL    HW140206   5.980   0.790   4.320 -1.8325 -2.1662 -2.3526
12758SOL    HW240207   6.119   0.744   4.358 -1.6742  1.0877  1.7638
12759SOL     OW40208   5.694   5.423   4.236 -0.7598 -0.5383 -0.6096
12759SOL    HW140209   5.715   5.396   4.326  0.0437 -1.1676 -0.9823
12759SOL    HW240210   5.598   5.425   4.235 -0.7753  0.6873  0.6126
12760SOL     OW40211   2.020   5.153   6.686  0.2317 -0.3426 -0.4066
12760SOL    HW140212   2.029   5.167   6.592  2.0862  1.1020 -0.0801
12760SOL    HW240213   1.960   5.222   6.715 -0.0009 -0.5200 -0.4646
12761SOL     OW40214   2.744   2.821   5.121  0.5649  0.0073  0.6247
12761SOL    HW140215   2.666   2.785   5.163 -0.2984  1.3362  0.2193
12761SOL    HW240216   2.710   2.876   5.050  1.9219 -0.6994 -0.6304
12762SOL     OW40217   7.349   8.065   2.637 -0.3100 -0.2731 -0.0697
12762SOL    HW140218   7.316   7.981   2.606  0.3803 -0.2169 -1.0023
12762SOL    HW240219   7.405   8.096   2.566 -0.8058  1.1269  0.1102
12763SOL     OW40220   1.282   5.484   3.343  0.4282  0.4849  0.0347
12763SOL    HW140221   1.208   5.443   3.299 -2.2384  2.6332  2.1822
12763SOL    HW240222   1.299   5.429   3.419  1.1632 -0.0695 -0.5174
12764SOL     OW40223   0.735   2.741   2.798  0.0090  0.0936  0.4521
12764SOL    HW140224   0.813   2.704   2.839  0.7346 -0.6188 -1.4299
12764SOL    HW240225   0.754   2.834   2.790  0.8164 -0.1134 -0.2342
12765SOL     OW40226   7.530   8.131   7.510 -0.0818 -0.0065 -0.1710
12765SOL    HW140227   7.535   8.202   7.574  1.3241 -0.7168  0.5544
12765SOL    HW240228   7.576   8.165   7.433  1.2039 -0.3477  0.4220
12766SOL     OW40229   7.533   5.761   1.478 -0.0652 -0.0367 -0.0865
12766SOL    HW140230   7.482   5.742   1.557 -0.1841  1.3532  0.1879
12766SOL    HW240231   7.620   5.784   1.511 -0.2799  1.1236 -0.3068
12767SOL     OW40232   8.254   3.191   1.389  0.0918  0.1612  0.4851
12767SOL    HW140233   8.252   3.285   1.406 -2.4462  0.1457  0.6878
12767SOL    HW240234   8.252   3.151   1.476  0.6497 -0.0979  0.3847
12768SOL     OW40235   8.401   0.942   3.956 -0.5177 -0.3906  0.0455
12768SOL    HW140236   8.307   0.929   3.969 -0.7340 -1.8154 -2.2711
12768SOL    HW240237   8.438   0.945   4.044 -2.8050  0.9925  1.0369
12769SOL     OW40238   2.520   6.970   5.592  0.4707  0.0423  0.3413
12769SOL    HW140239   2.586   6.915   5.551 -0.2006 -0.5368  0.0143
12769SOL    HW240240   2.478   6.913   5.657  0.5027  0.4978  0.7723
12770SOL     OW40241   2.051   3.614   0.276 -0.2823 -0.1940 -0.3041
12770SOL    HW140242   2.081   3.524   0.288 -1.0722 -0.7417 -2.0350
12770SOL    HW240243   1.959   3.612   0.303  0.7098  1.2275  3.9657
12771SOL     OW40244   4.585   7.727   0.604  0.5460  0.2578 -0.0633
12771SOL    HW140245   4.561   7.646   0.649 -0.7386 -1.7946 -4.0054
12771SOL    HW240246   4.503   7.777   0.599 -0.2605 -1.1242 -2.8279
12772SOL     OW40247   6.306   6.191   0.135  0.6420  0.0545 -0.0148
12772SOL    HW140248   6.281   6.104   0.165 -0.2749  0.1857 -0.3573
12772SOL    HW240249   6.386   6.177   0.083  0.3102 -0.6272 -0.3500
12773SOL     OW40250   2.654   0.384   8.153 -0.2186  1.0500  0.2884
12773SOL    HW140251   2.652   0.465   8.204 -1.1353  2.0639 -1.2561
12773SOL    HW240252   2.644   0.413   8.062  1.4015 -0.6639 -0.5057
12774SOL     OW40253   5.411   4.604   4.955  0.0462  0.0974  0.5361
12774SOL    HW140254   5.453   4.581   4.873 -3.4081 -0.5195 -1.2504
12774SOL    HW240255   5.447   4.543   5.019  1.5405 -0.5751 -0.8796
12775SOL     OW40256   5.533   8.343   8.608  0.3432  0.2670  0.2444
12775SOL    HW140257   5.439   8.332   8.594  0.7235  0.4573 -3.3268
12775SOL    HW240258   5.543   8.436   8.629 -0.1070  1.1273 -2.8405
12776SOL     OW40259   3.839   3.846   1.467 -0.5411  0.3721  0.3730
12776SOL    HW140260   3.743   3.855   1.462 -1.2588 -2.4641  4.1361
12776SOL    HW240261   3.855   3.754   1.444  1.3009  0.7077  0.1614
12777SOL     OW40262   3.986   3.111   4.449 -0.0567 -0.4714 -0.1794
12777SOL    HW140263   3.963   3.203   4.459 -0.4355 -0.6659  0.8521
12777SOL    HW240264   3.924   3.065   4.506  0.0613 -1.3731 -0.7602
12778SOL     OW40265   4.226   5.597   7.252 -0.1936  0.8022 -0.0975
12778SOL    HW140266   4.230   5.521   7.310 -2.0830  1.8907  1.6094
12778SOL    HW240267   4.272   5.570   7.173  1.0434 -1.3490  1.2623
12779SOL     OW40268   8.288   0.130   2.750  0.2271 -0.1529  0.5160
12779SOL    HW140269   8.295   0.138   2.845 -0.2427  2.7819  0.3951
12779SOL    HW240270   8.344   0.199   2.715 -0.8449 -0.1274 -1.3070
12780SOL     OW40271   0.424   2.538   1.043 -0.3850  0.5472 -0.4619
12780SOL    HW140272   0.366   2.614   1.042 -1.1265 -0.0134 -0.3008
12780SOL    HW240273   0.453   2.532   1.134 -0.6995  0.3598 -0.3724
12781SOL     OW40274   0.377   2.089   1.506 -0.7042  0.0343 -0.1202
12781SOL    HW140275   0.316   2.110   1.577 -1.6457  0.9412 -1.1602
12781SOL    HW240276   0.433   2.167   1.498 -0.0882 -0.3765  0.1341
12782SOL     OW40277   3.983   1.552   0.293 -0.1049  0.3451  0.1784
12782SOL    HW140278   3.998   1.460   0.270  2.9158  0.5131  1.0487
12782SOL    HW240279   4.002   1.600   0.213  0.5036  0.3212  0.3024
12783SOL     OW40280   1.624   4.869   3.681  0.1327  0.1655  0.2623
12783SOL    HW140281   1.563   4.823   3.623  0.5609  1.4096 -1.2678
12783SOL    HW240282   1.577   4.877   3.764 -1.5111  0.4262 -0.6364
12784SOL     OW40283   1.487   8.076   4.489  0.6639  0.0288 -0.0886
12784SOL    HW140284   1.554   8.136   4.521  0.7909 -0.1885  0.0534
12784SOL    HW240285   1.415   8.087   4.551  1.2055 -0.9632  0.7339
12785SOL     OW40286   2.510   2.743   7.279  0.5507  0.0020 -0.2727
12785SOL    HW140287   2.478   2.831   7.300 -1.2304 -0.8878  0.9862
12785SOL    HW240288   2.525   2.702   7.364  0.2556 -1.2857 -0.8147
12786SOL     OW40289   7.203   0.539   4.684  0.0219  0.0361 -0.3957
12786SOL    HW140290   7.152   0.459   4.668  0.4417 -0.0799 -1.1632
12786SOL    HW240291   7.293   0.514   4.667  0.2207  0.5426 -0.1180
12787SOL     OW40292   7.271   7.635   0.742 -0.0879  0.3921 -0.0206
12787SOL    HW140293   7.179   7.645   0.719 -0.4271  0.1585  1.1400
12787SOL    HW240294   7.272   7.565   0.807  0.8859  0.4945  0.0928
12788SOL     OW40295   5.357   8.265   0.973  0.8476  0.0667  0.2433
12788SOL    HW140296   5.323   8.290   1.059 -0.5253 -0.2596 -0.1717
12788SOL    HW240297   5.312   8.323   0.911  1.2028 -0.2410 -0.3183
12789SOL     OW40298   7.659   8.222   4.133  0.3329  0.3043  0.5307
12789SOL    HW140299   7.616   8.140   4.157 -0.1272  0.7129  1.1453
12789SOL    HW240300   7.714   8.200   4.058 -0.4725 -0.3699  0.1256
12790SOL     OW40301   4.605   6.475   0.842 -0.1127 -0.3405  0.5207
12790SOL    HW140302   4.680   6.482   0.902 -0.8924 -0.2306  1.5081
12790SOL    HW240303   4.553   6.553   0.861  0.3423  0.4816 -1.3561
12791SOL     OW40304   6.924   6.609   4.333  0.5141  0.1533 -0.4790
12791SOL    HW140305   7.003   6.649   4.297 -0.2280  0.1792 -2.1798
12791SOL    HW240306   6.856   6.627   4.267 -0.6354 -0.8986  0.3732
12792SOL     OW40307   6.691   6.828   8.373  0.3600  0.5435 -0.1385
12792SOL    HW140308   6.648   6.899   8.421 -0.7433  0.0379 -0.3455
12792SOL    HW240309   6.728   6.870   8.295 -1.6193  0.6869 -1.0595
12793SOL     OW40310   1.356   1.843   8.151 -0.5009 -0.0218 -0.4318
12793SOL    HW140311   1.272   1.851   8.104 -0.4641 -0.1574 -0.5241
12793SOL    HW240312   1.420   1.880   8.090 -0.1522 -2.0465 -1.3904
12794SOL     OW40313   3.257   2.556   7.346 -0.1710 -0.1739  0.5346
12794SOL    HW140314   3.272   2.607   7.267 -0.6599  0.0925  0.6073
12794SOL    HW240315   3.321   2.589   7.409 -1.2553  1.1922  0.9580
12795SOL     OW40316   0.024   7.894   6.148 -0.2549  0.1491  0.7199
12795SOL    HW140317   0.113   7.859   6.149 -0.6942 -1.2565 -1.8063
12795SOL    HW240318  -0.003   7.894   6.240  1.6046 -1.3886  1.3263
12796SOL     OW40319   2.248   5.879   8.723 -0.9734 -0.2665 -0.6842
12796SOL    HW140320   2.175   5.940   8.734 -1.3742 -1.0019  1.2323
12796SOL    HW240321   2.206   5.794   8.710 -0.4787 -0.6451  0.1117
12797SOL     OW40322   2.052   7.787   5.168 -0.0810 -0.2125  0.5066
12797SOL    HW140323   1.974   7.755   5.213 -0.5097 -0.7832 -0.6133
12797SOL    HW240324   2.125   7.749   5.217 -0.5543 -1.3958  0.3146
12798SOL     OW40325   8.239   2.891   6.698  0.1316  0.3353  0.1438
12798SOL    HW140326   8.231   2.839   6.778  0.7252  2.4496  1.6408
12798SOL    HW240327   8.202   2.834   6.630  2.2055 -2.7191  1.3146
12799SOL     OW40328   5.264   3.624   7.827 -0.3167 -0.1652 -0.4754
12799SOL    HW140329   5.192   3.599   7.884  1.3823 -1.9119  1.0676
12799SOL    HW240330   5.339   3.633   7.886  0.5527  2.7740 -1.8319
12800SOL     OW40331   4.558   4.118   4.989 -0.3174  0.6064 -0.1783
12800SOL    HW140332   4.562   4.204   4.948 -0.4218  0.7129  0.0319
12800SOL    HW240333   4.515   4.062   4.924  1.4923  0.2369 -1.1025
12801SOL     OW40334   5.284   7.961   7.456 -0.3388  0.4720 -0.3312
12801SOL    HW140335   5.347   8.002   7.515  0.6351 -0.7851 -0.4615
12801SOL    HW240336   5.199   7.975   7.498  0.1022  1.4639  0.2632
12802SOL     OW40337   6.159   8.784   7.432  0.7370 -0.5739  0.5463
12802SOL    HW140338   6.190   8.842   7.363 -0.9376 -1.1524 -0.7445
12802SOL    HW240339   6.095   8.837   7.481 -2.0156 -1.6721 -1.6135
12803SOL     OW40340   8.006   0.202   6.258 -0.5258 -0.1919 -0.3250
12803SOL    HW140341   7.952   0.277   6.232 -0.7358 -0.2102  0.0559
12803SOL    HW240342   7.980   0.184   6.348 -0.4631 -0.7167 -0.4117
12804SOL     OW40343   0.048   5.502   4.036  0.8360 -0.0669 -0.6011
12804SOL    HW140344   0.134   5.518   4.075  0.5498 -1.1529  0.5306
12804SOL    HW240345   0.042   5.407   4.029 -0.5387 -0.0465 -0.0357
12805SOL     OW40346   3.235   2.932   8.145  0.1970  0.0140  0.2780
12805SOL    HW140347   3.282   2.864   8.096  0.7954  0.7535 -0.2002
12805SOL    HW240348   3.224   3.004   8.083 -2.3410 -0.4253  0.1087
12806SOL     OW40349   0.374   4.798   6.708 -0.6116  0.1779  0.0381
12806SOL    HW140350   0.361   4.832   6.796  0.1816 -1.8117  0.9956
12806SOL    HW240351   0.465   4.767   6.707 -0.3373  0.8940 -1.7635
12807SOL     OW40352   6.979   2.236   6.315 -0.4175 -0.2836 -0.0605
12807SOL    HW140353   6.933   2.241   6.398  0.0535  0.0271  0.1859
12807SOL    HW240354   7.066   2.201   6.337  0.2871  1.3206 -0.1692
12808SOL     OW40355   5.124   4.995   6.427 -0.1702 -0.6889  0.0291
12808SOL    HW140356   5.036   4.972   6.398 -1.5339  0.4037  2.8927
12808SOL    HW240357   5.160   5.046   6.355 -1.9218 -1.0655 -1.1796
12809SOL     OW40358   5.588   8.727   4.723  0.3744 -0.2632 -0.2490
12809SOL    HW140359   5.511   8.762   4.767  1.1184  0.7544  0.2779
12809SOL    HW240360   5.660   8.785   4.749  1.4484 -1.5535 -0.2357
12810SOL     OW40361   2.820   5.402   5.435  0.1635  0.0760  0.3262
12810SOL    HW140362   2.735   5.436   5.463 -0.1501 -0.6538  0.2619
12810SOL    HW240363   2.839   5.329   5.494  2.6609  2.6441  3.0700
12811SOL     OW40364   1.451   4.613   1.309 -0.5377  0.0053 -1.1819
12811SOL    HW140365   1.509   4.659   1.248  1.6633 -0.6258  0.3181
12811SOL    HW240366   1.437   4.676   1.380 -1.4968  0.0445 -1.3938
12812SOL     OW40367   0.897   0.768   2.216  0.3598 -0.0443 -0.0516
12812SOL    HW140368   0.967   0.722   2.261  0.9006  1.1032  0.3332
12812SOL    HW240369   0.891   0.725   2.130  1.8626  0.1197 -0.2733
12813SOL     OW40370   4.475   7.599   4.849 -0.4154  0.1648 -0.3577
12813SOL    HW140371   4.566   7.610   4.821 -0.5910 -1.1068 -1.5692
12813SOL    HW240372   4.476   7.620   4.942  0.9269  1.0837 -0.5491
12814SOL     OW40373   2.951   0.129   6.273 -0.0865  0.2707  0.2812
12814SOL    HW140374   3.005   0.090   6.205  0.6846 -0.2810  1.1976
12814SOL    HW240375   2.913   0.055   6.320  1.5801  0.5606  2.1864
12815SOL     OW40376   6.433   0.939   6.394  0.0502  0.2523 -0.3026
12815SOL    HW140377   6.412   1.019   6.345  1.2897  0.0753 -1.1550
12815SOL    HW240378   6.524   0.950   6.420  0.1037 -0.7016 -0.0531
12816SOL     OW40379   5.034   6.067   4.823  0.2986  0.3733  0.3100
12816SOL    HW140380   5.070   6.003   4.885  0.3482 -0.0902 -0.1906
12816SOL    HW240381   4.952   6.026   4.792 -0.4405  1.2083  1.0938
12817SOL     OW40382   4.357   2.919   3.389 -0.1851 -0.3351 -0.4621
12817SOL    HW140383   4.335   2.858   3.459  0.0728 -1.1667 -1.0878
12817SOL    HW240384   4.451   2.935   3.399 -0.5422  1.2905  0.7105
12818SOL     OW40385   7.000   8.720   7.971 -0.3004 -0.2833  0.2549
12818SOL    HW140386   7.018   8.627   7.960  1.4999  0.1796 -1.0130
12818SOL    HW240387   7.025   8.760   7.888  0.6269  1.5619  1.3649
12819SOL     OW40388   3.950   7.149   6.757 -0.1768  0.5414 -0.0537
12819SOL    HW140389   3.926   7.095   6.833 -0.3862 -0.0997 -0.5702
12819SOL    HW240390   3.868   7.159   6.708 -0.3891  2.2425  0.5847
12820SOL     OW40391   6.510   6.722   1.632 -0.3990 -0.3174  0.4792
12820SOL    HW140392   6.562   6.768   1.698  1.1393  0.1551 -0.9975
12820SOL    HW240393   6.433   6.777   1.620 -0.4970 -0.1945  1.5531
12821SOL     OW40394   2.510   4.708   2.723 -0.1329  0.4998  0.0846
12821SOL    HW140395   2.527   4.788   2.773 -0.7889  1.0371 -0.5152
12821SOL    HW240396   2.477   4.646   2.788 -2.1736  1.5858  0.1762
12822SOL     OW40397   3.346   3.496   5.721 -0.6736  0.5358  0.3291
12822SOL    HW140398   3.374   3.450   5.801  0.6872  0.5448 -0.1118
12822SOL    HW240399   3.416   3.479   5.658 -0.9122  1.9150 -0.3377
12823SOL     OW40400   3.394   6.730   2.975  0.1684  0.1318 -0.1975
12823SOL    HW140401   3.318   6.758   3.027  0.3734  1.7810 -0.7102
12823SOL    HW240402   3.369   6.747   2.885  0.2186 -1.7263 -0.5999
12824SOL     OW40403   1.277   0.762   6.061 -0.7632  0.3541  0.0038
12824SOL    HW140404   1.194   0.790   6.099 -1.9946  0.2172 -2.4156
12824SOL    HW240405   1.342   0.786   6.127 -2.7982 -1.0512  2.7420
12825SOL     OW40406   6.756   5.308   3.172  0.0674 -0.1734  0.2271
12825SOL    HW140407   6.793   5.369   3.235 -1.8004 -0.6266  1.8315
12825SOL    HW240408   6.763   5.223   3.214 -2.7588 -0.2776  0.6722
12826SOL     OW40409   5.431   1.304   1.243  0.5200  0.1548  0.1877
12826SOL    HW140410   5.521   1.319   1.270  0.3880  3.6086 -0.8365
12826SOL    HW240411   5.379   1.360   1.300 -0.7821 -0.3695 -0.4427
12827SOL     OW40412   5.137   1.950   8.190 -0.4031  0.1424 -0.3005
12827SOL    HW140413   5.173   2.008   8.123 -2.0730 -0.1084 -1.4611
12827SOL    HW240414   5.211   1.895   8.215  0.7787  1.5954 -0.4163
12828SOL     OW40415   2.072   1.807   1.285 -0.5378  0.3942  0.5492
12828SOL    HW140416   2.161   1.838   1.269 -1.0337  2.2093  1.0434
12828SOL    HW240417   2.019   1.850   1.218 -1.1140 -0.2624  0.5714
12829SOL     OW40418   2.299   3.521   6.179 -0.2103  0.4132  0.0979
12829SOL    HW140419   2.255   3.545   6.097  0.4263 -0.4704 -0.5250
12829SOL    HW240420   2.390   3.547   6.165 -0.0792  0.1543  0.4750
12830SOL     OW40421   4.721   8.399   0.878  0.7761 -0.3539 -0.2808
12830SOL    HW140422   4.768   8.334   0.825 -0.4223 -0.8041 -0.8107
12830SOL    HW240423   4.763   8.483   0.855  1.4731 -0.7710 -0.5684
12831SOL     OW40424   0.908   1.091   6.671  0.4721  0.0079  0.9306
12831SOL    HW140425   0.824   1.089   6.717  0.7431  0.2924  1.4430
12831SOL    HW240426   0.968   1.134   6.732  0.4336  2.0151 -0.3536
12832SOL     OW40427   2.439   5.296   2.152 -0.1755 -0.6636 -0.5637
12832SOL    HW140428   2.526   5.291   2.113  0.6804 -1.5454  1.3404
12832SOL    HW240429   2.414   5.388   2.144  1.6141 -0.0713  0.2253
12833SOL     OW40430   5.739   2.705   4.538  0.5055  0.0041 -0.6006
12833SOL    HW140431   5.790   2.715   4.457  0.8515  0.6016 -0.3173
12833SOL    HW240432   5.805   2.684   4.605  0.1361 -1.2311 -0.6046
12834SOL     OW40433   4.013   4.094   1.455 -0.1550  0.6125 -0.0569
12834SOL    HW140434   4.037   4.122   1.544 -0.6580  0.0796  0.2558
12834SOL    HW240435   3.958   4.017   1.469  0.5992 -0.0805 -0.8715
12835SOL     OW40436   4.807   4.286   2.029  0.2364 -0.5156 -0.3237
12835SOL    HW140437   4.902   4.283   2.034  0.2267 -0.1759  0.0755
12835SOL    HW240438   4.777   4.227   2.098  0.1489  0.3413  0.3819
12836SOL     OW40439   3.495   3.556   6.964  0.1009 -0.0101 -0.2757
12836SOL    HW140440   3.415   3.586   7.005  0.8731  2.1038 -0.2266
12836SOL    HW240441   3.466   3.518   6.881 -1.0692 -0.7828  0.4424
12837SOL     OW40442   2.467   7.700   6.426  0.7553 -0.0134  0.2032
12837SOL    HW140443   2.379   7.692   6.462  0.4561  1.3085 -0.2034
12837SOL    HW240444   2.463   7.773   6.365  2.0423 -0.1799 -0.1294
12838SOL     OW40445   6.539   3.444   7.565 -0.3895  0.4612 -0.5600
12838SOL    HW140446   6.488   3.457   7.485  1.0574  0.0708 -1.5999
12838SOL    HW240447   6.621   3.492   7.549 -0.0420  0.3096  0.6663
12839SOL     OW40448   1.911   6.287   2.749 -0.0482 -0.1904 -0.5049
12839SOL    HW140449   1.941   6.197   2.764 -1.9825 -0.9752 -1.0922
12839SOL    HW240450   1.816   6.281   2.743 -0.4951  2.2850  1.9927
12840SOL     OW40451   4.548   1.929   1.947 -0.3844 -0.4529  0.5131
12840SOL    HW140452   4.562   1.862   1.881  0.7425 -1.0055  1.2821
12840SOL    HW240453   4.477   1.895   2.002 -0.0831 -0.8465  0.6636
12841SOL     OW40454   2.810   0.850   2.149  0.0146  0.1570  0.0764
12841SOL    HW140455   2.863   0.905   2.206 -0.3095  1.0938 -0.5056
12841SOL    HW240456   2.848   0.862   2.062 -0.5199  0.0469 -0.1766
12842SOL     OW40457   2.714   0.925   1.182  0.7800 -0.5600 -0.1900
12842SOL    HW140458   2.748   0.998   1.130  1.4154 -0.2526  0.6227
12842SOL    HW240459   2.618   0.933   1.175  0.8461 -1.2335 -2.2197
12843SOL     OW40460   0.360   6.655   6.964  0.0487  0.4017 -0.7058
12843SOL    HW140461   0.380   6.747   6.983 -0.2090  0.5578 -1.1847
12843SOL    HW240462   0.442   6.619   6.931  0.3491  0.2708  0.1454
12844SOL     OW40463   8.462   1.422   3.507 -0.0194 -0.2576 -0.7302
12844SOL    HW140464   8.417   1.348   3.549  0.4348  0.1242  0.4638
12844SOL    HW240465   8.450   1.407   3.414 -3.4554  0.2963 -0.5251
12845SOL     OW40466   7.614   3.618   4.403  0.0704  0.7722 -0.5166
12845SOL    HW140467   7.625   3.646   4.494 -0.8975  0.4062 -0.2746
12845SOL    HW240468   7.532   3.568   4.403  1.2206 -1.2411 -1.1194
12846SOL     OW40469   3.511   7.153   2.679  0.3615  0.4823 -0.6244
12846SOL    HW140470   3.606   7.162   2.675  0.2600  1.5697 -1.1003
12846SOL    HW240471   3.481   7.238   2.710 -0.3889 -0.2861  0.8435
12847SOL     OW40472   1.897   2.081   0.664  0.0368 -0.2610 -0.6722
12847SOL    HW140473   1.808   2.073   0.697  0.2718  1.0416  0.3523
12847SOL    HW240474   1.886   2.099   0.571 -0.9661  3.1199 -0.0331
12848SOL     OW40475   3.190   4.811   8.530  0.6231 -0.1563  0.4961
12848SOL    HW140476   3.156   4.898   8.508  1.8681  0.2096 -0.0300
12848SOL    HW240477   3.260   4.827   8.593  0.9403 -0.7673  0.3134
12849SOL     OW40478   6.004   0.844   7.697 -0.2172 -0.5293 -0.7546
12849SOL    HW140479   5.966   0.925   7.662 -0.6493 -0.5448 -0.3269
12849SOL    HW240480   5.976   0.842   7.789  0.1399 -0.9542 -0.6531
12850SOL     OW40481   3.215   3.473   7.926 -0.8290 -0.0830  0.7854
12850SOL    HW140482   3.194   3.422   7.848  0.0488  0.6482  0.0589
12850SOL    HW240483   3.310   3.468   7.933 -0.7797  1.0090  1.0058
12851SOL     OW40484   8.629   2.523   0.686  0.0152 -0.1693  0.1273
12851SOL    HW140485   8.570   2.552   0.755  1.8817  0.0036  1.7370
12851SOL    HW240486   8.717   2.534   0.723  1.0272 -2.1535 -1.4574
12852SOL     OW40487   5.670   7.222   4.411 -0.0555 -0.1593  0.0087
12852SOL    HW140488   5.709   7.246   4.328 -0.5000 -0.9337 -0.4402
12852SOL    HW240489   5.731   7.255   4.477 -0.2335  1.3981 -0.5835
12853SOL     OW40490   5.371   8.318   6.731 -0.7859 -0.7893 -0.0869
12853SOL    HW140491   5.396   8.251   6.666  1.0241 -1.3365  1.0797
12853SOL    HW240492   5.450   8.329   6.784 -1.1770  1.9950  0.0366
12854SOL     OW40493   1.610   3.513   3.156  0.5495 -0.4128 -0.4159
12854SOL    HW140494   1.517   3.513   3.134  0.5317 -1.4807 -0.3901
12854SOL    HW240495   1.618   3.577   3.227 -0.2931 -0.8817  0.1128
12855SOL     OW40496   6.062   8.130   3.636  0.4711 -0.6231 -0.1349
12855SOL    HW140497   6.002   8.062   3.607 -0.9212  1.0628 -1.4730
12855SOL    HW240498   6.041   8.143   3.728 -2.3669  0.9144 -0.8896
12856SOL     OW40499   3.468   6.033   2.231 -0.5496 -0.6882 -0.6175
12856SOL    HW140500   3.461   5.944   2.266 -0.2509 -0.6533 -0.4631
12856SOL    HW240501   3.389   6.078   2.263  1.0337  0.1912  2.4931
12857SOL     OW40502   8.321   0.152   3.977  0.0136 -0.0749 -0.0703
12857SOL    HW140503   8.243   0.154   3.922 -0.8851 -2.3106  1.0016
12857SOL    HW240504   8.373   0.079   3.942  1.6256  1.3172 -0.7115
12858SOL     OW40505   3.104   8.250   5.829  0.7175 -0.2090 -0.3857
12858SOL    HW140506   3.099   8.331   5.778 -0.9579 -0.0753 -0.0688
12858SOL    HW240507   3.155   8.274   5.907  1.6219  0.0885 -1.0519
12859SOL     OW40508   8.105   1.138   7.201 -0.2650 -0.0566  0.0457
12859SOL    HW140509   8.151   1.139   7.117 -0.3388  0.9456  0.0089
12859SOL    HW240510   8.047   1.214   7.198 -0.0058  0.2076  1.1435
12860SOL     OW40511   4.472   8.457   5.884  0.3112 -0.1299 -0.5428
12860SOL    HW140512   4.460   8.368   5.851  0.3763 -0.2414 -0.2674
12860SOL    HW240513   4.512   8.505   5.811  0.2931 -0.3306 -0.6838
12861SOL     OW40514   0.747   6.449   2.202 -0.1038 -0.2405 -0.2283
12861SOL    HW140515   0.749   6.428   2.296  1.4855  0.8648  0.0162
12861SOL    HW240516   0.837   6.437   2.173 -0.3607  0.4720 -1.3784
12862SOL     OW40517   1.580   7.815   0.276 -0.0286 -0.2632 -0.1717
12862SOL    HW140518   1.659   7.861   0.305  0.7016 -1.9379  0.6108
12862SOL    HW240519   1.510   7.850   0.332  0.3371  0.4933 -0.1723
12863SOL     OW40520   3.853   1.198   6.638  0.0464 -0.2501  0.5819
12863SOL    HW140521   3.839   1.185   6.545 -1.1504 -0.8782  0.8248
12863SOL    HW240522   3.783   1.147   6.680  1.6644 -1.5259  1.8797
12864SOL     OW40523   1.750   3.231   6.455  0.1425 -0.2532  0.1616
12864SOL    HW140524   1.790   3.299   6.400 -3.3225  0.3954 -1.8790
12864SOL    HW240525   1.664   3.267   6.478  0.0176 -2.0998  2.9901
12865SOL     OW40526   3.913   0.601   0.899 -0.5067 -0.3282 -0.4712
12865SOL    HW140527   3.859   0.529   0.930 -0.2038  0.2880  1.6292
12865SOL    HW240528   3.863   0.680   0.919  0.7185  0.2068  0.6793
12866SOL     OW40529   5.628   4.273   1.103  0.1046 -0.1513  0.3417
12866SOL    HW140530   5.579   4.337   1.051  0.4460 -0.7148 -0.6928
12866SOL    HW240531   5.720   4.290   1.083  0.4351  1.2187  2.6482
12867SOL     OW40532   0.633   5.622   8.291  0.1368  0.1391  0.0071
12867SOL    HW140533   0.719   5.629   8.250 -0.1916  0.6622 -0.5976
12867SOL    HW240534   0.586   5.560   8.236  0.8430 -1.9359  1.6017
12868SOL     OW40535   2.709   8.308   6.042 -0.4319  0.3191 -0.0031
12868SOL    HW140536   2.788   8.258   6.064 -0.2068  0.7300  0.1227
12868SOL    HW240537   2.721   8.331   5.950  0.6488  2.2611  0.5636
12869SOL     OW40538   0.064   1.180   5.581  0.3781 -0.1509 -0.0318
12869SOL    HW140539  -0.005   1.167   5.646 -0.0382 -0.1409 -0.4686
12869SOL    HW240540   0.062   1.273   5.561 -0.2425 -0.3291 -0.8688
12870SOL     OW40541   5.389   1.933   6.604 -0.1403  0.3583  0.5507
12870SOL    HW140542   5.441   1.909   6.527 -1.9083 -0.4771 -0.4589
12870SOL    HW240543   5.368   2.026   6.590  2.1084  1.0910  1.6479
12871SOL     OW40544   1.158   2.118   5.474  0.4230  0.6995  0.1054
12871SOL    HW140545   1.103   2.140   5.549  3.2635 -0.2771  2.7092
12871SOL    HW240546   1.100   2.074   5.412 -1.6558 -0.7279  2.8599
12872SOL     OW40547   7.829   4.639   1.358  0.3645 -0.5159  0.4074
12872SOL    HW140548   7.879   4.562   1.332 -0.5556 -0.9490 -0.1242
12872SOL    HW240549   7.740   4.606   1.371  0.0196  0.4072  0.4565
12873SOL     OW40550   4.832   7.830   2.868 -0.6378  0.0042 -0.3069
12873SOL    HW140551   4.922   7.860   2.857 -1.4216  2.1518 -1.7884
12873SOL    HW240552   4.809   7.792   2.783 -0.8284 -1.4724  0.3889
12874SOL     OW40553   6.352   6.966   5.814 -0.7934 -0.4919  0.0995
12874SOL    HW140554   6.419   6.933   5.753 -1.5350  0.4703 -1.2782
12874SOL    HW240555   6.294   7.020   5.760 -0.4280  1.9656  1.9840
12875SOL     OW40556   0.738   7.794   3.624 -0.2708 -1.1106  0.0200
12875SOL    HW140557   0.662   7.813   3.678 -0.2926 -1.6844  0.1986
12875SOL    HW240558   0.805   7.765   3.686  0.6754  1.0168  0.0772
12876SOL     OW40559   8.854   0.259   7.113  0.2710 -0.0026  0.3233
12876SOL    HW140560   8.866   0.205   7.192  0.5850 -0.3297  0.0558
12876SOL    HW240561   8.937   0.306   7.104  0.3889 -0.2768 -0.0421
12877SOL     OW40562   5.811   3.867   3.204  0.1452  0.9611  0.3705
12877SOL    HW140563   5.754   3.790   3.206  1.4091 -0.0136  1.5655
12877SOL    HW240564   5.815   3.892   3.111 -1.7527  0.7435  0.1979
12878SOL     OW40565   7.602   0.731   1.777  0.2780  0.2231 -0.1100
12878SOL    HW140566   7.667   0.782   1.825  1.4365 -2.3916  1.2507
12878SOL    HW240567   7.641   0.717   1.691  0.5855  0.3790  0.0022
12879SOL     OW40568   7.126   1.228   0.806 -0.0456 -0.3468  0.6014
12879SOL    HW140569   7.115   1.207   0.899 -1.0141  2.4441  1.2175
12879SOL    HW240570   7.219   1.244   0.795  0.3197 -2.2092  0.6733
12880SOL     OW40571   2.956   3.171   8.316 -0.4302 -0.4897 -0.1867
12880SOL    HW140572   2.889   3.161   8.384  0.6945  1.3633  1.3038
12880SOL    HW240573   3.032   3.123   8.350 -0.4517 -1.2155 -1.1086
12881SOL     OW40574   6.464   1.964   8.529  0.1644  0.3225  0.7208
12881SOL    HW140575   6.534   2.027   8.514  0.3432 -0.2042 -0.8251
12881SOL    HW240576   6.393   1.992   8.471 -0.0262 -0.4651  0.5537
12882SOL     OW40577   8.456   1.928   7.211 -0.0776 -0.4064 -0.2330
12882SOL    HW140578   8.466   1.921   7.116 -0.3830 -0.2454 -0.2761
12882SOL    HW240579   8.502   2.009   7.233  0.1416 -0.5328 -0.2211
12883SOL     OW40580   4.609   6.328   4.073  0.0240  0.2058 -0.8096
12883SOL    HW140581   4.532   6.362   4.118  0.0835  2.0493 -2.0200
12883SOL    HW240582   4.577   6.252   4.025 -1.0785  0.9892 -1.3505
12884SOL     OW40583   4.640   0.216   1.100 -0.0562  0.3245  0.0470
12884SOL    HW140584   4.547   0.225   1.122 -0.1640 -1.2043  0.3108
12884SOL    HW240585   4.641   0.189   1.009  0.0852 -0.4996  0.2874
12885SOL     OW40586   4.093   6.430   1.893  0.4790 -0.0518  0.3986
12885SOL    HW140587   4.163   6.427   1.958  1.7746 -0.0006 -0.9511
12885SOL    HW240588   4.039   6.354   1.913  2.0811 -1.2831  0.2446
12886SOL     OW40589   3.551   4.322   7.835 -0.2661  0.3954  0.4199
12886SOL    HW140590   3.497   4.244   7.822 -0.7851  0.2298  3.0448
12886SOL    HW240591   3.492   4.395   7.817 -0.0693  0.2223 -1.0326
12887SOL     OW40592   1.975   6.787   7.701 -0.1208 -0.5478 -0.3220
12887SOL    HW140593   1.923   6.858   7.738  0.2143 -0.2566 -0.4109
12887SOL    HW240594   1.933   6.769   7.617  1.2893  1.2779 -1.4927
12888SOL     OW40595   1.157   2.091   0.207 -0.1692  0.7674 -0.0324
12888SOL    HW140596   1.082   2.054   0.255  1.2531  0.0244  1.7417
12888SOL    HW240597   1.196   2.016   0.163  0.4804  0.8425  0.4068
12889SOL     OW40598   2.375   2.882   1.998 -0.1971  0.1157 -0.6879
12889SOL    HW140599   2.318   2.806   1.982 -1.8976  1.1525  0.1371
12889SOL    HW240600   2.376   2.929   1.914  0.7883 -0.7467 -1.1755
12890SOL     OW40601   1.498   8.766   6.976  0.6543  0.0409 -0.1076
12890SOL    HW140602   1.435   8.703   7.009 -0.4114  0.8213 -0.6031
12890SOL    HW240603   1.474   8.778   6.884  0.8885  1.0951 -0.0424
12891SOL     OW40604   0.934   8.117   3.767 -0.1015  0.4519 -0.0972
12891SOL    HW140605   0.848   8.089   3.799  0.9435 -0.2018  2.3947
12891SOL    HW240606   0.939   8.209   3.790 -0.3054  0.6144 -0.6886
12892SOL     OW40607   2.849   8.840   5.916 -0.1427  0.4479  0.0146
12892SOL    HW140608   2.938   8.804   5.922 -0.7891 -1.1196  0.7310
12892SOL    HW240609   2.853   8.902   5.843  1.1371 -0.8101 -1.0457
12893SOL     OW40610   5.952   3.692   6.844  0.1649 -0.0787  0.1265
12893SOL    HW140611   5.888   3.725   6.780  0.2252  1.0998  0.6385
12893SOL    HW240612   6.036   3.698   6.799  0.2885  1.3529  0.5079
12894SOL     OW40613   4.064   0.733   4.660  0.1570  0.2463  0.4915
12894SOL    HW140614   4.094   0.689   4.739 -0.7098 -0.7103  0.2997
12894SOL    HW240615   4.072   0.667   4.591 -2.8654 -0.2674  0.5289
12895SOL     OW40616   3.368   4.357   8.553 -0.0217 -0.4036 -0.7627
12895SOL    HW140617   3.311   4.351   8.629  1.4783  1.0181  0.5582
12895SOL    HW240618   3.414   4.272   8.552  0.0835 -0.3700  0.0609
12896SOL     OW40619   3.428   1.502   0.540 -0.2574  0.1725  0.6215
12896SOL    HW140620   3.364   1.557   0.495 -1.2372 -1.8797 -0.6180
12896SOL    HW240621   3.474   1.456   0.470  0.0128 -1.1162  1.6027
12897SOL     OW40622   2.079   0.284   2.158 -0.1369 -0.2368  0.2027
12897SOL    HW140623   2.086   0.198   2.200 -0.1554  0.1326  0.9860
12897SOL    HW240624   2.107   0.269   2.068 -0.1773 -1.0734  0.3175
12898SOL     OW40625   1.164   8.313   2.820  0.1936  0.2121 -0.0104
12898SOL    HW140626   1.143   8.302   2.913 -1.1771 -0.5113 -0.3778
12898SOL    HW240627   1.196   8.227   2.792  1.8028  0.7531  0.0495
12899SOL     OW40628   4.095   1.493   3.337 -0.3866 -0.2592 -0.2098
12899SOL    HW140629   4.152   1.567   3.354 -0.1242 -0.4536 -0.2419
12899SOL    HW240630   4.151   1.416   3.345 -0.8994 -0.5345  0.9696
12900SOL     OW40631   4.674   4.039   2.522 -0.4854 -0.4844 -0.2582
12900SOL    HW140632   4.718   4.061   2.441 -0.2045 -3.1568 -0.9201
12900SOL    HW240633   4.596   4.094   2.523  0.7172  1.3374 -1.0836
12901SOL     OW40634   7.165   1.076   6.878  0.0529 -0.0679 -0.3086
12901SOL    HW140635   7.088   1.117   6.839  1.6608  0.8828 -2.6855
12901SOL    HW240636   7.184   1.130   6.955 -2.0207 -0.7788  0.7840
12902SOL     OW40637   2.857   7.588   2.437  0.3611  0.6860 -0.8103
12902SOL    HW140638   2.935   7.615   2.389  1.6554 -0.8335  0.3513
12902SOL    HW240639   2.890   7.536   2.510 -1.8081 -1.2302 -1.0869
12903SOL     OW40640   2.974   3.677   4.335 -0.2487 -0.4505  0.0675
12903SOL    HW140641   2.926   3.701   4.256 -0.5494  0.9481  0.6384
12903SOL    HW240642   2.967   3.582   4.340 -0.9233 -0.4810 -1.1426
12904SOL     OW40643   8.856   4.907   7.789 -0.3096 -0.6647 -0.3068
12904SOL    HW140644   8.848   4.812   7.800 -0.6874 -0.7170 -0.9616
12904SOL    HW240645   8.866   4.941   7.877 -0.8860 -1.2508 -0.0056
12905SOL     OW40646   7.508   6.544   3.798 -0.3818 -0.3736  0.1320
12905SOL    HW140647   7.455   6.623   3.787  2.5195  1.6412 -0.6404
12905SOL    HW240648   7.473   6.483   3.734  0.2254  2.1278 -2.8880
12906SOL     OW40649   2.411   5.168   7.340  0.0685  0.0870 -0.1606
12906SOL    HW140650   2.336   5.138   7.392  0.8166  0.5093  1.2187
12906SOL    HW240651   2.384   5.156   7.249 -1.6328  0.1508  0.3077
12907SOL     OW40652   6.052   4.590   6.171 -0.0824 -0.0761  0.5105
12907SOL    HW140653   5.972   4.636   6.145  0.7800  2.0106  1.3140
12907SOL    HW240654   6.091   4.646   6.238  2.6209 -0.4395 -0.6272
12908SOL     OW40655   8.769   0.401   1.687 -0.3394 -0.3108 -0.2065
12908SOL    HW140656   8.732   0.324   1.729  0.3076 -0.1193  0.7524
12908SOL    HW240657   8.783   0.375   1.596 -4.0306  0.0394 -1.0359
12909SOL     OW40658   1.822   0.571   6.984 -0.5957  0.3838 -0.6761
12909SOL    HW140659   1.747   0.613   6.943 -0.8767  2.1955  1.5254
12909SOL    HW240660   1.793   0.548   7.072  0.9039 -0.5315 -0.3656
12910SOL     OW40661   5.390   1.529   3.544  0.0857 -0.1037 -0.0258
12910SOL    HW140662   5.300   1.510   3.572 -0.0674 -2.5378 -1.8202
12910SOL    HW240663   5.444   1.469   3.596  0.4822  0.0762 -0.2293
12911SOL     OW40664   3.362   1.704   7.836 -0.1192 -0.0184  0.0299
12911SOL    HW140665   3.363   1.717   7.931  2.0882  1.0904 -0.0801
12911SOL    HW240666   3.310   1.777   7.802 -1.8683 -1.0306  0.3884
12912SOL     OW40667   1.511   3.342   6.512  0.5261  0.1404 -0.0458
12912SOL    HW140668   1.480   3.394   6.438  0.0991 -1.1322 -0.7876
12912SOL    HW240669   1.433   3.323   6.563  0.1508 -2.0650 -1.2828
12913SOL     OW40670   2.338   7.150   3.586  0.2930 -0.3692 -0.3869
12913SOL    HW140671   2.391   7.188   3.656 -0.6532  1.6254 -0.6810
12913SOL    HW240672   2.256   7.126   3.628  1.0633 -2.7555 -0.0902
12914SOL     OW40673   2.667   1.408   5.451  0.1177  0.0223 -0.9577
12914SOL    HW140674   2.760   1.425   5.469 -0.0030  0.6775 -0.9426
12914SOL    HW240675   2.662   1.400   5.356 -0.6352  5.5901 -1.7178
12915SOL     OW40676   3.050   3.317   2.441 -0.2178 -0.4967 -0.8977
12915SOL    HW140677   3.002   3.322   2.358 -2.1331 -0.9141  0.1243
12915SOL    HW240678   3.085   3.405   2.453  0.4623 -0.5448 -2.3386
12916SOL     OW40679   5.474   7.453   3.869  0.7741 -0.3200 -0.3986
12916SOL    HW140680   5.455   7.542   3.899  0.8582 -0.2400 -0.5806
12916SOL    HW240681   5.392   7.405   3.881  0.9425 -0.4228  0.4406
12917SOL     OW40682   8.681   5.559   2.370 -0.3833 -0.0741 -0.3162
12917SOL    HW140683   8.670   5.597   2.457  0.9704  0.5410 -0.3979
12917SOL    HW240684   8.631   5.617   2.312  0.2505  0.6100 -0.1967
12918SOL     OW40685   8.843   4.260   2.833  0.4886  0.0459  0.9321
12918SOL    HW140686   8.849   4.173   2.794  2.0283  0.5973 -0.1568
12918SOL    HW240687   8.750   4.273   2.850 -0.2847 -0.3342 -2.3761
12919SOL     OW40688   6.555   5.971   3.052 -0.0545  0.3147  0.5325
12919SOL    HW140689   6.463   5.951   3.065  0.3557 -1.0580  1.5858
12919SOL    HW240690   6.570   5.960   2.958 -0.9002  0.3417  0.3921
12920SOL     OW40691   6.188   1.880   4.080  0.5277  0.2176  0.2641
12920SOL    HW140692   6.207   1.936   4.004  1.4263  0.5068  0.6855
12920SOL    HW240693   6.271   1.878   4.128  0.7393 -2.0490 -0.1058
12921SOL     OW40694   4.748   4.031   5.786 -0.4843 -0.2234  0.2262
12921SOL    HW140695   4.820   4.094   5.793  0.0759 -0.8792  0.5414
12921SOL    HW240696   4.756   3.978   5.865  2.2978 -4.0383 -2.2857
12922SOL     OW40697   4.795   6.775   4.302 -0.0582  0.5011  0.1729
12922SOL    HW140698   4.781   6.757   4.209 -2.0562  0.9531  0.3422
12922SOL    HW240699   4.792   6.690   4.345  0.5454  0.3270 -0.1110
12923SOL     OW40700   5.062   5.255   0.198 -0.1976  0.0296 -0.2679
12923SOL    HW140701   5.075   5.271   0.105 -0.5926  0.3824 -0.2666
12923SOL    HW240702   5.146   5.278   0.238  0.0714 -0.4265 -0.5707
12924SOL     OW40703   4.843   1.702   6.199 -0.2441  0.1311 -0.6213
12924SOL    HW140704   4.868   1.773   6.258  1.1226 -1.0784  0.3008
12924SOL    HW240705   4.788   1.644   6.252  0.4512 -0.6298 -0.7212
12925SOL     OW40706   0.852   5.306   7.023  0.1161 -0.6295 -0.2214
12925SOL    HW140707   0.851   5.333   6.931 -1.2299 -1.2841 -0.4238
12925SOL    HW240708   0.820   5.383   7.070  3.0168  0.5677  0.0258
12926SOL     OW40709   2.480   0.512   4.252  0.0574  0.0993  0.0022
12926SOL    HW140710   2.415   0.443   4.241  0.1046  0.1894 -0.8855
12926SOL    HW240711   2.503   0.538   4.163 -2.0450  3.2387  0.1908
12927SOL     OW40712   6.165   8.023   5.656 -0.6626  0.0071 -0.0504
12927SOL    HW140713   6.123   8.095   5.610  0.2437  0.4974 -0.1115
12927SOL    HW240714   6.165   7.951   5.593  2.0330  1.1348 -1.4809
12928SOL     OW40715   0.794   5.989   0.972  0.0378 -0.0681  0.1171
12928SOL    HW140716   0.755   6.055   1.030 -0.6692 -0.3823  0.0174
12928SOL    HW240717   0.791   5.908   1.023  0.7766 -0.0551  0.1884
12929SOL     OW40718   5.054   1.721   7.078  0.5388 -0.0779 -0.1223
12929SOL    HW140719   5.023   1.717   6.987  0.7751  2.1060 -0.3517
12929SOL    HW240720   4.981   1.685   7.129  0.6881 -2.0206 -1.1868
12930SOL     OW40721   1.380   8.831   5.777  0.2368 -0.5089 -0.7452
12930SOL    HW140722   1.299   8.814   5.727  0.8904  1.3435 -2.5849
12930SOL    HW240723   1.449   8.830   5.711  1.0934  2.5493 -0.0486
12931SOL     OW40724   3.138   7.403   7.618  0.3373  0.3951  0.3988
12931SOL    HW140725   3.077   7.347   7.666 -0.3815 -0.2605 -1.2117
12931SOL    HW240726   3.194   7.342   7.570  0.4874  1.0285 -0.2483
12932SOL     OW40727   4.216   1.285   1.301 -0.3330  0.5811 -0.5366
12932SOL    HW140728   4.259   1.332   1.230 -2.9678  1.0580 -1.9128
12932SOL    HW240729   4.205   1.196   1.268  0.8252  0.0670  0.3858
12933SOL     OW40730   1.313   8.179   6.709  0.5692  0.1343 -0.3696
12933SOL    HW140731   1.273   8.249   6.658  0.5188  0.1105 -0.3632
12933SOL    HW240732   1.247   8.157   6.776  0.9056  0.6308  0.1304
12934SOL     OW40733   3.996   0.608   3.928  0.0122 -0.1029 -0.2113
12934SOL    HW140734   4.074   0.554   3.919  1.5341  1.7989  0.8749
12934SOL    HW240735   3.936   0.555   3.981  1.4423 -0.7426  0.8162
12935SOL     OW40736   2.433   3.052   6.525  0.3063 -0.9694 -0.0671
12935SOL    HW140737   2.348   3.088   6.547  0.4802 -1.0797  0.8154
12935SOL    HW240738   2.418   3.002   6.445 -0.0283  0.6735 -1.0777
12936SOL     OW40739   4.538   2.357   5.641  0.5376  0.0096 -0.1626
12936SOL    HW140740   4.466   2.303   5.608  1.6783 -1.2086 -0.7493
12936SOL    HW240741   4.611   2.295   5.653  2.1966  1.5453 -1.7511
12937SOL     OW40742   1.541   6.111   1.388  0.0866 -0.3502  0.3629
12937SOL    HW140743   1.631   6.079   1.380  0.2883  0.2343  0.2305
12937SOL    HW240744   1.510   6.116   1.298  0.4315  0.8535  0.2948
12938SOL     OW40745   7.443   8.232   8.182  1.2313  0.3333 -0.6015
12938SOL    HW140746   7.429   8.146   8.222 -2.5060  1.5053  1.0363
12938SOL    HW240747   7.480   8.285   8.252 -2.3162  1.5209  0.6344
12939SOL     OW40748   5.534   1.617   5.552  0.4284  0.1139 -0.1546
12939SOL    HW140749   5.569   1.695   5.596  2.4342 -0.0292 -1.3976
12939SOL    HW240750   5.601   1.550   5.565 -1.3635 -1.5461  1.0794
12940SOL     OW40751   2.268   0.473   4.508 -0.6355 -0.0360  0.4756
12940SOL    HW140752   2.233   0.562   4.515  1.4220  0.7965  0.7446
12940SOL    HW240753   2.199   0.424   4.464 -1.2382  2.0271 -1.0258
12941SOL     OW40754   1.585   1.227   0.613 -0.1243  0.2757  0.0074
12941SOL    HW140755   1.648   1.162   0.583 -0.0132  0.6336 -0.5437
12941SOL    HW240756   1.505   1.177   0.629 -0.5099  0.2002 -1.8896
12942SOL     OW40757   1.712   5.951   4.378  0.1132  0.2549 -0.6094
12942SOL    HW140758   1.791   5.995   4.411 -0.7681  1.5719 -0.1862
12942SOL    HW240759   1.665   5.926   4.458 -1.0379  1.6293 -0.8114
12943SOL     OW40760   4.983   5.451   6.298  0.1559 -0.2217 -0.4791
12943SOL    HW140761   4.995   5.435   6.392 -0.9236 -1.6261 -0.5425
12943SOL    HW240762   5.050   5.515   6.276  0.5397  0.0231  1.2164
12944SOL     OW40763   6.998   0.454   5.254 -0.2944  0.1329  0.3778
12944SOL    HW140764   7.050   0.521   5.209  0.6885 -0.4467  0.6070
12944SOL    HW240765   6.961   0.401   5.183 -1.7628  1.3928  0.1711
12945SOL     OW40766   3.707   6.639   7.818  0.1611  0.3185  0.4957
12945SOL    HW140767   3.636   6.668   7.874  0.8246  1.3799  0.8340
12945SOL    HW240768   3.705   6.544   7.823 -0.6005  0.3646  1.2914
12946SOL     OW40769   3.740   7.304   3.660 -0.0815 -0.2556 -0.0582
12946SOL    HW140770   3.729   7.331   3.751 -0.3282 -3.0300  0.8405
12946SOL    HW240771   3.830   7.328   3.639  0.7668 -1.5953  1.7528
12947SOL     OW40772   4.085   4.888   0.337  0.3123 -0.3687 -0.5986
12947SOL    HW140773   4.087   4.915   0.245  0.2399 -2.1736 -1.1665
12947SOL    HW240774   4.162   4.931   0.376 -1.7526  3.6507 -0.4443
12948SOL     OW40775   6.524   1.713   5.783 -0.5309 -0.2811 -0.6878
12948SOL    HW140776   6.432   1.715   5.807 -0.5731 -0.1424 -0.8567
12948SOL    HW240777   6.545   1.620   5.774 -0.6081 -0.3185 -0.4724
12949SOL     OW40778   7.969   2.335   5.390 -0.2999  0.1009  0.2733
12949SOL    HW140779   8.013   2.251   5.378 -1.4822 -0.7725  1.8022
12949SOL    HW240780   8.010   2.372   5.469  0.5488  1.2218 -0.6498
12950SOL     OW40781   1.183   3.561   3.809 -0.3135 -0.1830 -0.6820
12950SOL    HW140782   1.218   3.579   3.722 -2.4438  1.6011 -1.2936
12950SOL    HW240783   1.101   3.514   3.793 -0.1496 -0.8799  0.4231
12951SOL     OW40784   0.065   5.823   0.185  0.2466  0.4360 -0.4287
12951SOL    HW140785   0.066   5.840   0.280 -1.4520 -2.5781  0.2451
12951SOL    HW240786  -0.011   5.871   0.153  1.3394  2.2251 -0.5530
12952SOL     OW40787   3.053   4.138   5.935 -0.2672  0.1993  0.1620
12952SOL    HW140788   3.041   4.076   6.006 -0.0507  0.5793  0.5354
12952SOL    HW240789   3.140   4.175   5.950 -0.5468  0.8693  0.1624
12953SOL     OW40790   7.107   5.543   3.617  0.9690  0.5883  1.2862
12953SOL    HW140791   7.202   5.543   3.603  0.7557  0.9908 -0.3999
12953SOL    HW240792   7.092   5.468   3.674  2.5372  2.0236  3.7668
12954SOL     OW40793   7.661   8.457   1.048  0.0115  0.3656  0.4401
12954SOL    HW140794   7.753   8.460   1.074  0.3162  2.5320 -0.6962
12954SOL    HW240795   7.649   8.369   1.013  1.3870 -0.2508  1.4099
12955SOL     OW40796   1.855   3.982   3.184  0.0226  0.0647 -0.7708
12955SOL    HW140797   1.913   4.048   3.222  1.7098 -1.4344 -0.6192
12955SOL    HW240798   1.912   3.907   3.168 -1.8573 -1.4204 -0.7905
12956SOL     OW40799   6.751   2.725   2.073 -0.0820 -0.5172 -0.1487
12956SOL    HW140800   6.810   2.650   2.065  0.1195 -0.1597 -3.3539
12956SOL    HW240801   6.667   2.693   2.040 -0.6341  0.0864  0.6238
12957SOL     OW40802   0.664   5.672   0.791 -0.4659 -0.9757 -0.4983
12957SOL    HW140803   0.697   5.595   0.836 -1.2619 -1.6891 -1.1007
12957SOL    HW240804   0.610   5.637   0.720 -2.4957  0.0964  0.4130
12958SOL     OW40805   8.790   6.804   6.681 -0.1727 -0.1003  0.5744
12958SOL    HW140806   8.715   6.814   6.622 -1.6451 -2.2994  1.9179
12958SOL    HW240807   8.763   6.846   6.762  0.9355  0.9260  0.4350
12959SOL     OW40808   6.969   3.937   0.808 -0.5935  0.2042 -0.3695
12959SOL    HW140809   6.989   3.957   0.899 -0.7295  0.0530 -0.3053
12959SOL    HW240810   7.049   3.957   0.760 -0.2676 -0.4304 -0.1083
12960SOL     OW40811   1.209   7.251   7.574  0.1797 -0.0689 -0.8719
12960SOL    HW140812   1.142   7.277   7.637 -0.8138 -2.0089 -1.0486
12960SOL    HW240813   1.292   7.265   7.620 -0.4662 -0.0628  0.3360
12961SOL     OW40814   2.120   1.628   5.834 -0.6885  0.0084  0.7946
12961SOL    HW140815   2.148   1.720   5.827  0.9248 -0.4095  1.4359
12961SOL    HW240816   2.108   1.600   5.743 -0.7805  0.7211  0.5767
12962SOL     OW40817   0.755   8.669   8.278 -0.4627 -0.0931  0.0591
12962SOL    HW140818   0.672   8.665   8.229 -0.2008  0.0857 -0.4092
12962SOL    HW240819   0.736   8.627   8.362 -1.0658  0.0629  0.0054
12963SOL     OW40820   4.022   0.773   8.381 -0.1151  0.1120 -0.0074
12963SOL    HW140821   3.967   0.704   8.343 -0.6403 -0.9221  2.4409
12963SOL    HW240822   4.112   0.745   8.360 -0.3492 -0.9954  0.3588
12964SOL     OW40823   0.843   5.440   5.093  0.2128  0.1956  0.0913
12964SOL    HW140824   0.829   5.350   5.120 -1.1509  0.4903  0.4334
12964SOL    HW240825   0.776   5.490   5.140  1.9219  1.6188  1.1121
12965SOL     OW40826   3.127   0.596   0.917  0.0323  0.2852 -0.1857
12965SOL    HW140827   3.061   0.631   0.976  0.7659  0.0458  0.8140
12965SOL    HW240828   3.165   0.522   0.965  0.7109  0.1409 -0.9185
12966SOL     OW40829   5.647   6.920   4.322 -0.1891  0.5564  0.8238
12966SOL    HW140830   5.642   7.016   4.322 -0.5975  0.5345  0.4156
12966SOL    HW240831   5.591   6.893   4.395  0.2767  0.6409  1.2214
12967SOL     OW40832   3.855   2.839   4.279  0.0177  0.2077  0.3043
12967SOL    HW140833   3.831   2.839   4.372 -0.2114 -0.1419  0.2487
12967SOL    HW240834   3.901   2.922   4.266  1.5828 -0.4829  1.1197
12968SOL     OW40835   4.728   3.822   1.741  0.1056  0.6338  0.2212
12968SOL    HW140836   4.684   3.744   1.775  1.7416 -0.2128  0.5190
12968SOL    HW240837   4.657   3.881   1.715 -1.2983 -2.1830 -3.0210
12969SOL     OW40838   3.925   5.504   6.530  0.5219 -0.1697 -0.2357
12969SOL    HW140839   3.878   5.447   6.469  0.5316  0.0259 -0.4314
12969SOL    HW240840   3.901   5.473   6.617 -0.6557  0.4636 -0.3125
12970SOL     OW40841   7.717   2.765   5.376 -0.0630 -0.1648  0.8377
12970SOL    HW140842   7.761   2.731   5.454 -0.5938 -0.4096  1.0376
12970SOL    HW240843   7.666   2.692   5.343  1.4438 -0.5639 -0.7248
12971SOL     OW40844   5.711   7.670   6.146  0.3651  1.2175 -0.1091
12971SOL    HW140845   5.693   7.686   6.054  2.1232 -0.5028 -0.8306
12971SOL    HW240846   5.632   7.699   6.192 -0.9133  1.2651 -2.2174
12972SOL     OW40847   2.239   0.714   5.305  0.3904 -0.5778 -0.0332
12972SOL    HW140848   2.268   0.657   5.376 -1.3653 -1.5241 -0.0246
12972SOL    HW240849   2.196   0.655   5.243 -0.2668  0.5571 -0.6910
12973SOL     OW40850   7.233   1.117   1.327 -0.4128 -0.5911 -0.3910
12973SOL    HW140851   7.260   1.181   1.393 -1.5289 -0.2493 -0.2414
12973SOL    HW240852   7.137   1.120   1.329 -0.4795 -0.6076 -1.9905
12974SOL     OW40853   0.726   4.920   6.322 -0.1331 -0.2269 -0.5460
12974SOL    HW140854   0.792   4.948   6.386 -0.2502  0.1513 -0.5851
12974SOL    HW240855   0.652   4.979   6.337 -0.5213 -0.7528 -0.3992
12975SOL     OW40856   7.959   7.528   0.998  0.1325  0.5734  0.0047
12975SOL    HW140857   8.005   7.444   0.996 -1.2067 -0.1825 -0.7480
12975SOL    HW240858   7.866   7.505   0.989 -1.2022  1.5036  6.3804
12976SOL     OW40859   8.072   2.539   6.650  0.4943 -0.4345  0.3057
12976SOL    HW140860   8.110   2.462   6.609  0.2941  0.6336 -2.0341
12976SOL    HW240861   8.094   2.611   6.591  0.7608  1.3459  2.4624
12977SOL     OW40862   6.921   7.127   2.036  0.6294 -0.7205  0.8957
12977SOL    HW140863   6.993   7.153   2.093  0.1329 -2.2610  2.3149
12977SOL    HW240864   6.843   7.165   2.077  0.3636 -1.1573  0.7999
12978SOL     OW40865   6.987   4.868   2.436  0.2340 -0.1138 -0.4617
12978SOL    HW140866   6.942   4.801   2.488 -1.8397  1.2298 -0.4059
12978SOL    HW240867   7.043   4.913   2.499  1.3378 -1.4629 -0.4175
12979SOL     OW40868   2.131   0.919   5.421  0.1012  0.1368  0.4586
12979SOL    HW140869   2.182   0.846   5.386  0.5662  1.3349 -1.4855
12979SOL    HW240870   2.045   0.882   5.438  0.2890 -0.8457 -0.6362
12980SOL     OW40871   1.621   1.549   5.643 -0.0682  0.0617 -0.5150
12980SOL    HW140872   1.560   1.613   5.608 -0.7912 -0.3923 -0.1143
12980SOL    HW240873   1.574   1.508   5.716  1.7479  1.6688  1.6683
12981SOL     OW40874   4.146   1.385   7.109 -0.4854  0.0952  0.1567
12981SOL    HW140875   4.194   1.463   7.082  0.1523 -0.2561  0.2636
12981SOL    HW240876   4.072   1.380   7.048 -0.5196  0.7655  0.1364
12982SOL     OW40877   1.384   1.989   4.813  0.6287 -0.1839  0.4265
12982SOL    HW140878   1.447   1.938   4.865 -0.9620 -0.5531  2.0976
12982SOL    HW240879   1.307   1.995   4.869  0.1323  2.6562 -0.3896
12983SOL     OW40880   4.570   5.672   0.759  0.2056  0.0490 -0.6854
12983SOL    HW140881   4.493   5.725   0.739  0.3070 -0.0389 -1.3441
12983SOL    HW240882   4.638   5.707   0.701  0.0024 -1.4854 -1.9115
12984SOL     OW40883   2.826   1.476   4.158  0.7036  0.1685 -0.7450
12984SOL    HW140884   2.909   1.509   4.191  0.2257  0.3636  0.2835
12984SOL    HW240885   2.851   1.410   4.093  1.6554  0.8528 -1.0908
12985SOL     OW40886   1.067   7.877   8.763 -0.1611 -0.3891  0.0366
12985SOL    HW140887   1.025   7.791   8.775 -2.1406  0.2635 -1.5956
12985SOL    HW240888   1.036   7.906   8.677  2.0222  1.1367 -0.2864
12986SOL     OW40889   5.598   5.706   7.977 -0.3906 -0.6864  0.2603
12986SOL    HW140890   5.593   5.756   8.059  1.0331 -0.2452  0.1038
12986SOL    HW240891   5.675   5.742   7.932 -1.0757 -1.0172 -1.2135
12987SOL     OW40892   5.837   7.488   1.408 -0.3124 -0.7535 -0.2702
12987SOL    HW140893   5.911   7.548   1.405 -1.0570  0.3148  1.2333
12987SOL    HW240894   5.766   7.534   1.363 -0.5344 -1.0494 -0.2323
12988SOL     OW40895   8.375   8.651   5.633 -0.4621  0.2939  0.0581
12988SOL    HW140896   8.447   8.712   5.618  0.4605 -0.9542 -0.8600
12988SOL    HW240897   8.323   8.691   5.702  0.2644  1.9594 -0.3180
12989SOL     OW40898   6.316   3.432   3.239 -0.1745  0.3183 -0.2775
12989SOL    HW140899   6.245   3.379   3.201  2.0820 -1.1953 -2.7615
12989SOL    HW240900   6.370   3.456   3.164  0.9854  3.0143  1.2977
12990SOL     OW40901   8.737   8.167   2.049 -0.2262  0.0225  0.4435
12990SOL    HW140902   8.796   8.224   2.099 -0.5901  0.4089  0.4325
12990SOL    HW240903   8.656   8.165   2.101 -1.0116  1.3306 -0.6795
12991SOL     OW40904   4.062   4.653   1.862 -0.2656 -0.5254  0.7014
12991SOL    HW140905   4.088   4.740   1.894  0.7851 -0.7001  0.3647
12991SOL    HW240906   4.142   4.601   1.869 -1.1175 -1.7413  1.7656
12992SOL     OW40907   4.664   5.918   8.068 -0.6762 -0.1376  0.1463
12992SOL    HW140908   4.759   5.922   8.057 -0.9002  0.6640 -1.9190
12992SOL    HW240909   4.646   5.974   8.144  0.4470  0.0536  0.2813
12993SOL     OW40910   4.936   6.078   6.861  0.3532  0.6631  0.2175
12993SOL    HW140911   4.912   6.085   6.953  1.9732  0.1653  0.7275
12993SOL    HW240912   4.856   6.096   6.813 -1.2048 -1.6969  1.7475
12994SOL     OW40913   3.658   1.778   5.680  0.1336 -0.4654  0.4811
12994SOL    HW140914   3.699   1.702   5.640  0.9130  0.3048 -0.2158
12994SOL    HW240915   3.681   1.771   5.773 -0.7569 -1.6669  0.6334
12995SOL     OW40916   2.062   3.139   4.198 -0.1119  0.5535  0.2818
12995SOL    HW140917   2.006   3.083   4.252  1.3768  0.2550  1.6203
12995SOL    HW240918   2.036   3.228   4.221 -0.4469  0.4150  0.4465
12996SOL     OW40919   2.082   3.183   0.491 -0.4061 -0.0503  0.1855
12996SOL    HW140920   2.009   3.215   0.438 -0.2765 -1.5542 -0.9441
12996SOL    HW240921   2.047   3.181   0.580 -1.8115 -0.9241 -0.3594
12997SOL     OW40922   8.347   1.698   1.883  0.2391 -0.7945 -0.0350
12997SOL    HW140923   8.383   1.727   1.967  0.4901 -0.2011 -0.3417
12997SOL    HW240924   8.322   1.607   1.898  1.1261 -0.9785  0.4221
12998SOL     OW40925   3.055   3.411   6.148 -0.0120 -0.2433 -0.0128
12998SOL    HW140926   3.093   3.445   6.067 -0.9370  1.1967  0.1357
12998SOL    HW240927   3.017   3.327   6.123  0.8055 -0.4001 -0.7792
12999SOL     OW40928   3.782   4.818   0.802  0.0779 -0.2596  0.1342
12999SOL    HW140929   3.690   4.796   0.813 -0.3245  1.0569 -0.4119
12999SOL    HW240930   3.802   4.796   0.711  0.0272  0.3239 -0.0270
13000SOL     OW40931   0.141   5.462   0.437  0.4122  0.0141  0.5604
13000SOL    HW140932   0.145   5.401   0.363  1.4052 -0.7199  1.2045
13000SOL    HW240933   0.074   5.425   0.494  0.2333  0.1334  0.4302
13001SOL     OW40934   6.651   1.928   8.136 -0.1736 -0.5465 -0.1694
13001SOL    HW140935   6.741   1.959   8.126 -0.6489  1.2730  0.7668
13001SOL    HW240936   6.610   1.990   8.197 -2.7576  0.2096 -2.4458
13002SOL     OW40937   1.211   7.483   6.092 -0.3249  0.3611  0.6790
13002SOL    HW140938   1.135   7.528   6.055 -0.8768 -0.2447  1.0398
13002SOL    HW240939   1.239   7.539   6.164  0.9576  1.7122 -0.8062
13003SOL     OW40940   8.721   3.808   5.759 -0.4448 -0.0753 -0.3920
13003SOL    HW140941   8.662   3.743   5.798  0.1822 -1.5587 -1.7541
13003SOL    HW240942   8.728   3.877   5.824 -0.5845 -1.7283  1.4775
13004SOL     OW40943   0.283   4.732   4.845  0.0552 -0.1237 -0.2796
13004SOL    HW140944   0.215   4.671   4.874  0.0497 -0.4394 -0.9320
13004SOL    HW240945   0.349   4.676   4.803 -0.2163  0.3546 -1.3850
13005SOL     OW40946   0.566   3.789   8.305  0.1862  0.0236  0.6411
13005SOL    HW140947   0.501   3.723   8.282  0.3859 -0.4101  1.2984
13005SOL    HW240948   0.595   3.824   8.220 -0.9444  0.2804  0.3363
13006SOL     OW40949   6.157   2.942   6.475 -0.5831  0.2321  0.8580
13006SOL    HW140950   6.167   3.035   6.455  1.2226 -0.0684  0.2062
13006SOL    HW240951   6.063   2.927   6.470 -0.9664  2.0943  1.3859
13007SOL     OW40952   7.181   8.770   6.485 -0.0999  0.4353 -0.2920
13007SOL    HW140953   7.125   8.840   6.451  0.8223  1.6263  0.5338
13007SOL    HW240954   7.128   8.727   6.552 -0.6512  0.3722 -0.7585
13008SOL     OW40955   4.859   0.094   8.095  0.4259 -0.0405  0.0664
13008SOL    HW140956   4.813   0.148   8.159 -0.2094 -1.0449  0.4658
13008SOL    HW240957   4.820   0.007   8.103 -0.5177  0.0580 -2.4987
13009SOL     OW40958   7.373   2.386   4.454 -0.6804  0.4513 -0.2307
13009SOL    HW140959   7.458   2.368   4.414  1.0349  1.6390  2.6627
13009SOL    HW240960   7.311   2.337   4.399  1.9889 -1.7573 -1.5322
13010SOL     OW40961   0.230   3.673   7.707 -0.1970 -0.2050 -0.6829
13010SOL    HW140962   0.168   3.745   7.708 -1.0654 -0.8708  2.3169
13010SOL    HW240963   0.176   3.594   7.707  0.5563 -0.8006  1.6083
13011SOL     OW40964   6.925   0.605   0.085  0.2179  0.5675  0.1329
13011SOL    HW140965   6.932   0.701   0.089  0.6915  0.5023  1.7827
13011SOL    HW240966   7.015   0.574   0.097  0.0997 -0.0939 -0.6006
13012SOL     OW40967   5.239   3.238   2.088  0.8125  0.0244  0.1750
13012SOL    HW140968   5.186   3.158   2.081  0.9186 -0.2477  2.0960
13012SOL    HW240969   5.213   3.290   2.011 -0.0432 -1.3735 -0.5349
13013SOL     OW40970   5.215   6.421   7.689  0.1219  0.5765  0.3236
13013SOL    HW140971   5.306   6.415   7.662 -0.2829 -0.5851 -0.8741
13013SOL    HW240972   5.169   6.456   7.613 -0.6086  0.0398  0.5038
13014SOL     OW40973   2.382   8.793   7.393 -0.0115  0.1076 -0.5597
13014SOL    HW140974   2.478   8.799   7.391 -0.0470  1.5626  0.2991
13014SOL    HW240975   2.358   8.770   7.303  1.1075  0.5128 -0.9869
13015SOL     OW40976   5.338   7.058   4.874 -1.0379 -0.4847  0.1431
13015SOL    HW140977   5.412   7.014   4.916 -0.3431  0.6716  0.1729
13015SOL    HW240978   5.266   6.995   4.879 -0.3080 -1.2747  0.9334
13016SOL     OW40979   6.374   8.043   0.856  0.5803  0.3398  0.0386
13016SOL    HW140980   6.362   8.132   0.891 -0.2227  0.9071 -1.5410
13016SOL    HW240981   6.468   8.031   0.853  0.7224  1.3456 -0.1406
13017SOL     OW40982   8.594   4.901   1.288 -0.3110  0.2302  0.2054
13017SOL    HW140983   8.522   4.875   1.346 -0.3317  1.1674  0.6166
13017SOL    HW240984   8.601   4.829   1.226 -0.9241 -0.3537  0.7860
13018SOL     OW40985   7.098   2.406   1.836 -0.5412  0.2959 -0.3584
13018SOL    HW140986   7.193   2.417   1.832 -0.5124  0.0944 -0.2128
13018SOL    HW240987   7.078   2.407   1.930 -0.4694 -1.5252 -0.2968
13019SOL     OW40988   8.569   3.167   6.003  0.3954 -0.0854 -0.3655
13019SOL    HW140989   8.602   3.087   5.963 -0.2639 -0.3965 -0.2863
13019SOL    HW240990   8.476   3.167   5.984  0.3877  0.6546 -0.3467
13020SOL     OW40991   6.388   5.541   0.062 -0.8664 -0.7194  0.1772
13020SOL    HW140992   6.294   5.557   0.068 -0.7644  0.1709 -0.4121
13020SOL    HW240993   6.427   5.628   0.068 -0.0073 -1.1723  1.5311
13021SOL     OW40994   1.604   8.459   3.391  0.7309  0.0004  0.0474
13021SOL    HW140995   1.586   8.475   3.298  2.6928  0.6891 -0.2596
13021SOL    HW240996   1.525   8.488   3.436 -0.9932 -2.0063 -1.4866
13022SOL     OW40997   2.417   1.204   4.967  0.4054  0.7300  0.3532
13022SOL    HW140998   2.449   1.285   4.929  0.2538  0.4461 -0.4008
13022SOL    HW240999   2.326   1.198   4.939 -0.1215  1.1640  1.8692
13023SOL     OW41000   6.072   1.113   4.194 -0.0668  0.0571 -0.5040
13023SOL    HW141001   6.147   1.077   4.241 -0.1580 -0.2470 -0.5896
13023SOL    HW241002   6.056   1.197   4.236 -0.5718 -0.5095  0.4777
13024SOL     OW41003   3.136   2.120   6.251 -0.1617  0.5748  0.2456
13024SOL    HW141004   3.171   2.167   6.327  0.7380 -1.4325  1.1286
13024SOL    HW241005   3.179   2.162   6.176  0.9962  0.8428  1.0341
13025SOL     OW41006   4.813   3.423   7.074  0.7209 -0.1001 -0.2528
13025SOL    HW141007   4.768   3.354   7.122 -0.2991 -0.2494 -1.3665
13025SOL    HW241008   4.803   3.501   7.128 -1.4883  0.0257 -0.7517
13026SOL     OW41009   3.162   1.568   8.509  0.3685  0.3330  0.3897
13026SOL    HW141010   3.239   1.512   8.524  0.2877 -0.3778 -1.6256
13026SOL    HW241011   3.161   1.627   8.585  0.9527 -1.8126  2.1546
13027SOL     OW41012   8.198   1.605   0.105  0.6004  0.3891 -0.3756
13027SOL    HW141013   8.142   1.625   0.180  1.9278 -0.3858  0.8989
13027SOL    HW241014   8.177   1.514   0.083  0.2898  0.5811 -0.8955
13028SOL     OW41015   3.099   7.834   6.792 -0.6982  0.3624 -0.5086
13028SOL    HW141016   3.052   7.887   6.856  1.4828  1.6869  0.1321
13028SOL    HW241017   3.163   7.785   6.844 -0.8075 -0.7558 -1.4055
13029SOL     OW41018   1.186   4.225   4.469  1.1268 -0.5718 -0.0140
13029SOL    HW141019   1.222   4.266   4.391  1.4025 -0.2108  0.2985
13029SOL    HW241020   1.094   4.210   4.448  1.0264  0.1780 -0.1562
13030SOL     OW41021   5.898   3.417   5.430  0.6946 -0.1802  0.4803
13030SOL    HW141022   5.865   3.453   5.348 -0.4325 -1.3010  0.4113
13030SOL    HW241023   5.962   3.351   5.404  0.4540 -0.4218  0.4862
13031SOL     OW41024   6.266   3.719   5.114 -0.5330 -0.1342  0.1360
13031SOL    HW141025   6.348   3.768   5.124  1.3621 -2.8995 -0.6951
13031SOL    HW241026   6.229   3.750   5.032 -0.2854  1.0866  0.4694
13032SOL     OW41027   6.045   1.135   3.930  0.8270 -0.1966  0.5204
13032SOL    HW141028   6.058   1.125   4.024  0.1194  0.3412  0.6879
13032SOL    HW241029   5.950   1.126   3.918  0.9487 -0.5733 -0.1778
13033SOL     OW41030   2.049   4.487   3.046  0.0809 -0.1522  0.3866
13033SOL    HW141031   1.969   4.449   3.009 -0.8238  0.2355  1.8856
13033SOL    HW241032   2.050   4.458   3.137  1.5829 -0.0279  0.4264
13034SOL     OW41033   8.190   4.492   1.034  0.0135 -0.1655 -0.2021
13034SOL    HW141034   8.219   4.566   0.981  0.8518 -0.0333  0.4268
13034SOL    HW241035   8.095   4.487   1.019 -0.1340  1.3149  0.1070
13035SOL     OW41036   4.635   1.071   0.272  0.2597  0.2060 -0.0108
13035SOL    HW141037   4.558   1.033   0.229  1.2376 -0.6722 -1.0293
13035SOL    HW241038   4.610   1.162   0.289 -2.1088 -0.7489  2.4084
13036SOL     OW41039   1.964   1.535   6.416 -0.5324 -0.1613  0.0605
13036SOL    HW141040   1.926   1.506   6.499  0.2329 -0.2510  0.3813
13036SOL    HW241041   2.031   1.599   6.441 -0.0128 -0.4978 -0.4629
13037SOL     OW41042   3.897   0.927   4.544 -0.3278 -0.1231 -0.3406
13037SOL    HW141043   3.831   0.948   4.610 -1.3032  0.0204 -1.3149
13037SOL    HW241044   3.954   0.863   4.586  0.1552  1.2625  1.2331
13038SOL     OW41045   7.292   2.047   2.292  0.0117  0.4174 -0.5296
13038SOL    HW141046   7.339   2.059   2.374 -1.7014  1.6081  0.3430
13038SOL    HW241047   7.348   2.087   2.225  1.1444 -0.0305  0.1211
13039SOL     OW41048   6.323   8.068   6.686 -0.9149 -0.1019  0.2810
13039SOL    HW141049   6.351   8.160   6.689 -0.1715 -0.3066 -0.1782
13039SOL    HW241050   6.230   8.072   6.664 -0.5315  0.5034 -1.3504
13040SOL     OW41051   3.168   0.868   4.430 -0.0572  0.7160  0.1854
13040SOL    HW141052   3.115   0.814   4.488  0.8675 -1.4182 -0.8537
13040SOL    HW241053   3.259   0.842   4.449  0.2788  0.0258 -2.0772
13041SOL     OW41054   4.250   0.562   6.575 -0.2121 -0.6986  0.0576
13041SOL    HW141055   4.282   0.598   6.657 -2.5112  0.9558  0.3248
13041SOL    HW241056   4.160   0.535   6.593 -1.3279  1.1045 -2.1958
13042SOL     OW41057   8.523   6.366   7.617  0.0459  0.0693 -0.6300
13042SOL    HW141058   8.479   6.346   7.699 -0.7102 -0.6818 -1.1918
13042SOL    HW241059   8.544   6.459   7.623 -0.4278  0.1360  0.2168
13043SOL     OW41060   4.506   8.181   2.470  0.4556 -0.4875  0.0951
13043SOL    HW141061   4.504   8.238   2.393  2.7533 -0.1235  0.2305
13043SOL    HW241062   4.570   8.221   2.529 -1.2421 -0.7454  2.2546
13044SOL     OW41063   6.296   5.670   1.612  0.5477  0.0556  0.1442
13044SOL    HW141064   6.357   5.683   1.685  3.0335  0.2373 -1.8299
13044SOL    HW241065   6.301   5.751   1.562 -1.3380  0.0455 -0.1336
13045SOL     OW41066   5.487   6.513   8.602 -0.3035  0.1371 -0.4704
13045SOL    HW141067   5.551   6.582   8.588 -2.3298  2.1381 -0.4154
13045SOL    HW241068   5.463   6.521   8.695 -0.2265 -0.9801 -0.3350
13046SOL     OW41069   8.534   5.679   5.482  0.0696  0.1528 -0.2900
13046SOL    HW141070   8.630   5.681   5.482  0.0653  1.0958  0.5828
13046SOL    HW241071   8.510   5.663   5.391  1.0651 -0.9719 -0.3829
13047SOL     OW41072   4.311   4.409   5.356 -0.4988 -0.0836 -0.3656
13047SOL    HW141073   4.388   4.377   5.403  0.9831  2.3499 -1.0004
13047SOL    HW241074   4.245   4.421   5.424 -0.0291 -1.2571  0.3312
13048SOL     OW41075   5.420   2.942   7.528  0.6512 -0.1939  0.0181
13048SOL    HW141076   5.391   3.009   7.466 -0.1221  1.1985  1.7791
13048SOL    HW241077   5.475   2.883   7.476  0.0153  0.8667 -1.9649
13049SOL     OW41078   6.094   3.663   3.865 -0.3259 -0.0689 -0.7812
13049SOL    HW141079   6.064   3.749   3.837 -0.5057  0.2635  0.3868
13049SOL    HW241080   6.067   3.657   3.957  2.1204 -0.2506 -0.0209
13050SOL     OW41081   1.262   7.465   2.661 -0.0004  0.1717 -0.0712
13050SOL    HW141082   1.352   7.450   2.630  0.4237  0.5607  0.9494
13050SOL    HW241083   1.249   7.559   2.651 -0.8731 -0.0865 -1.6995
13051SOL     OW41084   2.793   7.457   3.649  0.0972 -0.6369  0.4005
13051SOL    HW141085   2.803   7.447   3.744  3.3971  0.3887  0.3005
13051SOL    HW241086   2.744   7.539   3.638  1.1406  0.1231  1.2592
13052SOL     OW41087   5.543   8.544   0.867 -0.2946  0.3657 -0.6001
13052SOL    HW141088   5.594   8.505   0.796 -0.5378  0.8353 -1.0352
13052SOL    HW241089   5.453   8.517   0.849  0.0832 -4.0694  2.4105
13053SOL     OW41090   6.954   6.445   0.220  0.0881 -0.1715 -0.4080
13053SOL    HW141091   6.993   6.433   0.134 -0.7992 -1.2146 -0.6779
13053SOL    HW241092   7.003   6.386   0.277  0.3889  0.2025 -0.2693
13054SOL     OW41093   8.465   2.314   8.755 -0.2930 -0.3927 -0.0442
13054SOL    HW141094   8.456   2.273   8.669  1.6781 -1.1647  0.0511
13054SOL    HW241095   8.506   2.398   8.737 -0.5021 -0.2605  0.0951
13055SOL     OW41096   7.007   3.623   4.133  0.4739  0.3143 -0.2482
13055SOL    HW141097   7.087   3.574   4.153  0.5458  1.1424  1.6679
13055SOL    HW241098   6.937   3.575   4.177  0.0669  0.2101 -0.9933
13056SOL     OW41099   7.330   2.139   0.245  0.2209  0.3179 -0.1561
13056SOL    HW141100   7.288   2.108   0.325  0.0758 -1.1168 -0.7453
13056SOL    HW241101   7.423   2.140   0.265  0.0407  2.9600  0.9733
13057SOL     OW41102   8.757   7.265   3.798 -0.2356 -0.1792 -0.0188
13057SOL    HW141103   8.796   7.217   3.725  1.7470  0.3151  0.6559
13057SOL    HW241104   8.692   7.322   3.757 -2.5695 -3.1864 -0.8745
13058SOL     OW41105   0.337   2.895   0.231  0.3892 -0.3202 -0.4611
13058SOL    HW141106   0.344   2.991   0.229  0.7996 -0.3600 -0.9778
13058SOL    HW241107   0.391   2.869   0.306  2.6827 -0.3450 -2.0387
13059SOL     OW41108   7.784   5.508   8.314 -0.2022 -0.3917  0.3405
13059SOL    HW141109   7.856   5.478   8.370  1.9053 -0.1830 -2.0762
13059SOL    HW241110   7.827   5.537   8.234 -2.9131  1.0816 -0.6983
13060SOL     OW41111   1.469   3.435   6.174  1.0080  0.6078 -0.4820
13060SOL    HW141112   1.466   3.502   6.243 -1.4861  0.1934 -0.0691
13060SOL    HW241113   1.508   3.359   6.217  0.0756  0.5585  0.3323
13061SOL     OW41114   6.793   7.731   4.851  0.1918  0.3597 -0.2642
13061SOL    HW141115   6.780   7.644   4.813  0.2491  1.2218 -2.3728
13061SOL    HW241116   6.867   7.720   4.910  1.2716 -0.6941 -1.7365
13062SOL     OW41117   6.573   0.021   0.241  0.0733  0.3436  0.2134
13062SOL    HW141118   6.564  -0.074   0.236 -0.0593  0.3099  1.0244
13062SOL    HW241119   6.653   0.041   0.192 -0.6619 -0.0331 -1.1976
13063SOL     OW41120   6.745   8.179   5.622 -0.6446 -0.1249  0.2928
13063SOL    HW141121   6.778   8.219   5.702  0.3709 -0.2115 -0.0608
13063SOL    HW241122   6.820   8.129   5.588 -1.5558 -1.4309  0.1577
13064SOL     OW41123   2.944   1.432   5.547 -0.6614  0.4013  0.0760
13064SOL    HW141124   2.985   1.397   5.468 -1.6343 -1.5043  0.3438
13064SOL    HW241125   3.002   1.404   5.619 -0.7632  0.4666  0.1842
13065SOL     OW41126   2.596   7.540   5.760  0.4761 -0.3568  0.0854
13065SOL    HW141127   2.605   7.618   5.705 -1.9902 -0.2710 -0.3196
13065SOL    HW241128   2.625   7.468   5.705  0.0788 -0.0281 -0.5646
13066SOL     OW41129   1.675   3.099   3.010  0.2947 -0.1332 -0.4335
13066SOL    HW141130   1.667   3.115   3.104  0.3744 -1.2930 -0.2170
13066SOL    HW241131   1.733   3.168   2.978  0.5015  0.0916  0.4211
13067SOL     OW41132   7.202   4.383   3.154 -0.0938 -0.2255  0.2640
13067SOL    HW141133   7.291   4.384   3.188 -0.1092  0.2772  0.2901
13067SOL    HW241134   7.209   4.337   3.070 -0.0277 -1.3095  0.8448
13068SOL     OW41135   8.029   1.352   8.079 -0.8218  0.1932 -0.6326
13068SOL    HW141136   8.076   1.320   8.003 -1.7144 -4.2355  0.4254
13068SOL    HW241137   8.089   1.414   8.120  1.7945 -1.1253 -2.2048
13069SOL     OW41138   6.856   1.751   3.948 -0.5076  0.2399 -0.1547
13069SOL    HW141139   6.947   1.763   3.976 -0.4848 -0.6191  0.1737
13069SOL    HW241140   6.864   1.700   3.867 -0.7464 -2.6255  1.4639
13070SOL     OW41141   7.610   2.674   7.869  0.2028  0.2320  0.5589
13070SOL    HW141142   7.516   2.682   7.859  0.2846  0.9263  0.2456
13070SOL    HW241143   7.640   2.632   7.788  0.2896  1.1728  0.0775
13071SOL     OW41144   1.893   2.906   0.535 -0.1449 -0.1178 -0.0748
13071SOL    HW141145   1.856   2.825   0.501  0.2946  0.2756 -1.5282
13071SOL    HW241146   1.835   2.975   0.502 -0.8029  0.1582  1.5493
13072SOL     OW41147   2.335   5.197   8.263  0.0582  0.4430  0.2654
13072SOL    HW141148   2.315   5.278   8.309 -2.4981  0.4639 -0.7176
13072SOL    HW241149   2.408   5.219   8.206 -1.3787  2.4831 -0.9090
13073SOL     OW41150   8.214   8.173   6.471  0.6048 -0.3393 -0.4611
13073SOL    HW141151   8.165   8.255   6.469 -0.3664 -0.8884 -0.2555
13073SOL    HW241152   8.285   8.185   6.409  0.1939  0.4870 -0.7835
13074SOL     OW41153   5.803   5.344   5.966 -0.3709 -0.0164 -0.1304
13074SOL    HW141154   5.790   5.281   5.894  1.5587  0.4569 -0.9598
13074SOL    HW241155   5.896   5.334   5.989 -0.5083  1.2045  1.0072
13075SOL     OW41156   8.862   2.647   6.504 -0.6389  0.4315  0.0020
13075SOL    HW141157   8.953   2.639   6.534 -0.9044  0.1187  0.7455
13075SOL    HW241158   8.828   2.558   6.506 -1.0613  0.5913  0.0537
13076SOL     OW41159   0.317   0.129   3.641  0.1477  0.7053  0.4688
13076SOL    HW141160   0.407   0.143   3.614  0.3295 -2.2884 -0.7513
13076SOL    HW241161   0.322   0.118   3.736  1.0768  0.3793  0.3903
13077SOL     OW41162   7.298   5.464   3.897  0.1231  0.6153  0.3454
13077SOL    HW141163   7.238   5.394   3.868 -0.8303  1.0924  1.1369
13077SOL    HW241164   7.330   5.502   3.815  0.1528 -0.3113 -0.0984
13078SOL     OW41165   7.397   0.494   5.642  0.1338 -0.5431 -0.6231
13078SOL    HW141166   7.375   0.401   5.640  0.2963 -0.6223  0.7098
13078SOL    HW241167   7.312   0.539   5.646 -0.0752 -0.4895 -3.2576
13079SOL     OW41168   8.268   1.240   2.140  0.3952 -0.3167  0.0848
13079SOL    HW141169   8.320   1.303   2.090  0.3017 -1.0026 -0.9181
13079SOL    HW241170   8.205   1.293   2.188  1.8116  0.5043  1.0785
13080SOL     OW41171   5.747   8.042   3.435  0.1049  0.1300 -0.0255
13080SOL    HW141172   5.668   8.097   3.438 -0.8368 -1.1645 -0.0437
13080SOL    HW241173   5.793   8.072   3.356 -0.3293  0.9560  0.0185
13081SOL     OW41174   6.413   3.122   6.502 -0.2957 -0.6005 -0.0933
13081SOL    HW141175   6.344   3.091   6.559 -1.0536 -1.4396 -1.4127
13081SOL    HW241176   6.489   3.134   6.560 -1.6294  0.7773  1.4601
13082SOL     OW41177   2.823   7.414   5.618  0.5655 -0.0969  0.3691
13082SOL    HW141178   2.916   7.417   5.593  0.7025 -1.3247  0.6575
13082SOL    HW241179   2.822   7.366   5.701 -0.3983 -0.9073 -0.0898
13083SOL     OW41180   5.276   8.064   0.367 -0.0905  0.3672  0.1802
13083SOL    HW141181   5.345   8.007   0.400  1.7672  1.2986 -1.7701
13083SOL    HW241182   5.198   8.009   0.363  0.9486 -1.2254  0.8752
13084SOL     OW41183   5.328   7.404   2.944  0.8059  0.7863  0.2304
13084SOL    HW141184   5.393   7.410   3.014  2.0570  0.1293 -0.8233
13084SOL    HW241185   5.293   7.492   2.934  2.2854  1.3792  0.1491
13085SOL     OW41186   0.583   3.691   6.516  0.1979  0.0709  0.1222
13085SOL    HW141187   0.558   3.737   6.597  1.9221  2.4401 -0.5830
13085SOL    HW241188   0.619   3.608   6.546  0.7205  0.8636  1.8178
13086SOL     OW41189   5.556   8.702   0.389  0.2686  0.0803 -0.3142
13086SOL    HW141190   5.514   8.644   0.453 -1.6632  1.1306 -0.5718
13086SOL    HW241191   5.639   8.658   0.369  0.5745 -0.7111  2.2547
13087SOL     OW41192   3.575   6.624   8.794  0.6536 -0.4424  0.1964
13087SOL    HW141193   3.576   6.549   8.852 -0.0006 -0.9597 -0.4481
13087SOL    HW241194   3.583   6.587   8.706 -0.5371  0.1663 -0.1867
13088SOL     OW41195   1.747   7.468   7.812 -0.2187 -0.0334  0.5410
13088SOL    HW141196   1.784   7.485   7.725  1.3265 -0.2882  1.1147
13088SOL    HW241197   1.658   7.501   7.807 -0.8188 -1.7961 -1.7469
13089SOL     OW41198   6.427   0.824   3.578  0.2738  0.0839  0.4613
13089SOL    HW141199   6.451   0.917   3.580 -1.2112  0.4959  0.3711
13089SOL    HW241200   6.499   0.782   3.532  0.7744  1.2628  0.1240
13090SOL     OW41201   2.429   7.778   5.870  0.3447 -0.0372 -0.4803
13090SOL    HW141202   2.480   7.785   5.789 -1.4519 -0.4857 -1.7021
13090SOL    HW241203   2.415   7.684   5.881 -0.1036  0.0734 -0.0958
13091SOL     OW41204   0.392   0.907   1.584 -0.4735  0.0723  0.5823
13091SOL    HW141205   0.371   0.966   1.656 -5.5297 -1.2638  0.5783
13091SOL    HW241206   0.421   0.826   1.627 -1.4384 -0.0237  1.0951
13092SOL     OW41207   8.639   8.234   7.208  0.0814 -0.0558 -0.3599
13092SOL    HW141208   8.671   8.180   7.280 -0.8298 -1.3357 -0.8950
13092SOL    HW241209   8.581   8.298   7.250  1.6830  1.0057  0.3594
13093SOL     OW41210   5.424   4.754   0.401 -0.5480  0.0201  0.1957
13093SOL    HW141211   5.510   4.797   0.401  0.0233 -1.0920 -0.3267
13093SOL    HW241212   5.441   4.665   0.372 -1.8817 -0.2389  0.1262
13094SOL     OW41213   1.881   0.141   6.336  0.4477  0.7850 -0.0456
13094SOL    HW141214   1.885   0.080   6.263 -0.4726  2.2763 -1.4066
13094SOL    HW241215   1.957   0.120   6.390  0.1432 -1.5339 -0.4492
13095SOL     OW41216   6.682   5.982   1.864  0.1511 -0.8886  0.1424
13095SOL    HW141217   6.659   5.921   1.934 -0.4790 -1.0768 -0.2238
13095SOL    HW241218   6.598   6.018   1.835  0.4384 -0.5591 -0.2935
13096SOL     OW41219   3.017   5.976   8.171  0.2351  0.4216  0.3317
13096SOL    HW141220   3.088   5.912   8.166 -0.9311 -0.8376 -2.9921
13096SOL    HW241221   2.937   5.924   8.180 -0.5300  1.5764  0.4076
13097SOL     OW41222   5.677   1.244   7.587  0.1934  0.1522  0.1937
13097SOL    HW141223   5.672   1.336   7.609  1.2665  0.3038 -0.1357
13097SOL    HW241224   5.613   1.233   7.517  1.5436  1.1425 -1.2725
13098SOL     OW41225   5.359   4.866   4.095 -0.6320  0.1218  0.4423
13098SOL    HW141226   5.291   4.838   4.033  0.2227  1.9310 -1.4206
13098SOL    HW241227   5.322   4.944   4.136 -0.0033  0.6566  0.0006
13099SOL     OW41228   6.696   7.665   5.334  0.3581  0.0572 -0.1761
13099SOL    HW141229   6.707   7.583   5.285 -1.8897 -0.2221 -0.3564
13099SOL    HW241230   6.710   7.734   5.269 -2.6614 -0.3126 -1.4059
13100SOL     OW41231   3.286   4.194   5.158  0.1453  0.4145 -0.1071
13100SOL    HW141232   3.253   4.269   5.108  1.8070  0.0850 -1.8409
13100SOL    HW241233   3.252   4.207   5.247  0.5141  3.3262 -0.2903
13101SOL     OW41234   4.547   3.191   0.191 -0.4927 -0.2822 -0.1400
13101SOL    HW141235   4.535   3.222   0.281  1.7025  1.9055 -0.4850
13101SOL    HW241236   4.607   3.116   0.200 -0.2634 -0.0597  0.2237
13102SOL     OW41237   4.239   6.543   4.543  0.1042 -0.4262 -0.9935
13102SOL    HW141238   4.307   6.499   4.595  1.0736  1.3428 -0.6750
13102SOL    HW241239   4.173   6.569   4.607 -0.5208 -1.4270 -1.1962
13103SOL     OW41240   0.980   2.324   2.610  0.1502 -0.3549  0.2144
13103SOL    HW141241   0.932   2.242   2.599  0.1424 -0.3939  0.5246
13103SOL    HW241242   1.034   2.332   2.531  0.5873 -0.9529  0.4483
13104SOL     OW41243   1.830   3.006   3.403  0.1966  0.6066  0.1462
13104SOL    HW141244   1.828   2.961   3.318 -0.7655  0.1318  0.4058
13104SOL    HW241245   1.841   3.098   3.381  2.7632  0.2606 -0.3953
13105SOL     OW41246   8.775   6.850   1.658 -0.1531 -0.3279 -0.2644
13105SOL    HW141247   8.870   6.856   1.664 -0.2533 -0.3446  1.9226
13105SOL    HW241248   8.759   6.819   1.569  1.6794  2.9939 -1.9338
13106SOL     OW41249   7.434   8.812   2.254 -0.7318  0.6114  0.1069
13106SOL    HW141250   7.446   8.872   2.179 -4.1667  3.1447  1.3273
13106SOL    HW241251   7.384   8.739   2.218  0.3112  0.2295 -0.6390
13107SOL     OW41252   7.299   7.762   1.156  0.0974  0.2758 -0.0581
13107SOL    HW141253   7.260   7.676   1.173 -0.4355  0.3790 -0.7091
13107SOL    HW241254   7.232   7.809   1.105  1.5158  0.0755 -2.1997
13108SOL     OW41255   7.732   1.861   2.710  0.5228 -0.0129  1.0790
13108SOL    HW141256   7.785   1.877   2.788  1.5787 -1.2927  0.6706
13108SOL    HW241257   7.792   1.818   2.648 -0.8965 -1.2836  0.4914
13109SOL     OW41258   4.403   3.942   7.826 -0.2313  0.2335 -0.2562
13109SOL    HW141259   4.310   3.952   7.847  0.0733 -0.6337  1.6568
13109SOL    HW241260   4.449   3.967   7.906  1.3012  2.2118 -1.6590
13110SOL     OW41261   0.102   7.644   5.844 -0.1709  0.7860  0.1896
13110SOL    HW141262   0.039   7.581   5.808 -0.9642  1.1368  0.9387
13110SOL    HW241263   0.075   7.729   5.808  0.6890  0.7598 -0.5471
13111SOL     OW41264   0.217   5.932   0.939 -0.3022 -0.1827  0.5508
13111SOL    HW141265   0.268   5.881   0.877 -0.7055  0.0618  0.0121
13111SOL    HW241266   0.271   6.010   0.956  0.5700 -1.0129  1.8008
13112SOL     OW41267   3.920   8.837   5.286  0.6082 -0.5185  0.4496
13112SOL    HW141268   3.935   8.774   5.216  0.0567 -0.0211 -0.1286
13112SOL    HW241269   3.883   8.914   5.243 -0.6578 -0.5602  1.3845
13113SOL     OW41270   5.181   7.292   7.948  0.0868 -0.1313 -0.4507
13113SOL    HW141271   5.085   7.287   7.948  0.0721  0.1334 -0.2468
13113SOL    HW241272   5.203   7.313   8.039  0.4015 -1.4049 -0.2169
13114SOL     OW41273   7.184   2.530   0.426  0.4091  0.0835 -0.3330
13114SOL    HW141274   7.154   2.495   0.510  0.2912 -1.1284 -0.8622
13114SOL    HW241275   7.153   2.621   0.426  2.8335  1.0420  2.1169
13115SOL     OW41276   3.144   3.498   8.443  0.0069  0.6950 -0.3535
13115SOL    HW141277   3.182   3.460   8.364  1.6416  2.9763 -0.7819
13115SOL    HW241278   3.169   3.437   8.513 -0.7520 -0.9229 -1.4359
13116SOL     OW41279   3.128   2.324   4.095 -0.2794  0.3970  0.5742
13116SOL    HW141280   3.213   2.281   4.086 -0.0256  1.2569 -2.1235
13116SOL    HW241281   3.065   2.252   4.101  0.3844 -0.3577 -0.8975
13117SOL     OW41282   0.855   4.522   3.888 -0.6373  0.1512 -0.5910
13117SOL    HW141283   0.826   4.431   3.885 -0.3220  0.0556 -0.8191
13117SOL    HW241284   0.785   4.568   3.933 -0.1431 -0.4588  0.8617
13118SOL     OW41285   8.834   7.339   3.286 -0.3436 -0.7255 -0.3556
13118SOL    HW141286   8.778   7.397   3.234  0.0680 -0.1379 -0.1476
13118SOL    HW241287   8.923   7.372   3.273 -0.0377 -1.6205 -0.6406
13119SOL     OW41288   7.242   4.566   2.218  0.3269 -0.5243 -0.5861
13119SOL    HW141289   7.190   4.632   2.172  0.2080 -0.4092 -0.2868
13119SOL    HW241290   7.308   4.615   2.266  1.2637 -0.7156 -1.6248
13120SOL     OW41291   0.760   1.174   6.433 -0.6553 -0.3318 -0.3826
13120SOL    HW141292   0.810   1.127   6.501 -0.0446  0.8252 -0.0086
13120SOL    HW241293   0.775   1.123   6.354  2.0831  0.5349 -0.5455
13121SOL     OW41294   3.488   4.203   6.636  0.2647 -0.4841 -0.3633
13121SOL    HW141295   3.583   4.208   6.646  0.2953 -1.4593 -0.0393
13121SOL    HW241296   3.467   4.271   6.572  1.0754  0.3000  0.1697
13122SOL     OW41297   5.161   0.526   7.224  0.1214 -0.0671  0.2410
13122SOL    HW141298   5.256   0.516   7.225  0.0356 -1.2910 -1.3615
13122SOL    HW241299   5.128   0.444   7.189 -1.5100  0.5902  0.1495
13123SOL     OW41300   1.973   1.522   4.628  0.1374  0.5720  0.3315
13123SOL    HW141301   1.893   1.553   4.669 -0.7947 -1.3153  0.0373
13123SOL    HW241302   2.043   1.569   4.674 -1.0471  1.0933  1.6873
13124SOL     OW41303   4.494   0.293   5.996 -0.1091 -0.7370 -0.1333
13124SOL    HW141304   4.514   0.312   6.087  0.7291 -0.7230 -0.3184
13124SOL    HW241305   4.579   0.279   5.955 -0.5166 -1.5727 -0.7302
13125SOL     OW41306   8.432   5.169   3.156 -0.3338  0.9627  0.1708
13125SOL    HW141307   8.382   5.251   3.155 -2.2695 -0.0606  2.4605
13125SOL    HW241308   8.464   5.162   3.246 -0.0999 -0.7382 -0.0212
13126SOL     OW41309   1.058   1.605   4.508  0.1256 -0.1825  1.0473
13126SOL    HW141310   1.024   1.686   4.546 -1.3222 -0.9157  1.3918
13126SOL    HW241311   1.089   1.630   4.421 -1.3693  0.5559  0.6909
13127SOL     OW41312   0.480   0.143   6.396 -0.0819  0.1561 -0.4992
13127SOL    HW141313   0.458   0.116   6.307 -2.0789  0.1984 -0.0712
13127SOL    HW241314   0.536   0.072   6.429  2.0251  0.9167 -2.2604
13128SOL     OW41315   3.264   6.763   4.156  0.2547  0.2178 -0.0576
13128SOL    HW141316   3.233   6.851   4.175  0.3049 -0.3556  3.2385
13128SOL    HW241317   3.344   6.753   4.209  1.4046 -1.1627 -1.9217
13129SOL     OW41318   6.012   1.829   2.664  0.0170  0.0242 -0.4758
13129SOL    HW141319   5.988   1.807   2.755  1.7913  0.5141  0.1458
13129SOL    HW241320   5.948   1.895   2.638  1.5317  2.5593  1.7339
13130SOL     OW41321   4.997   5.407   3.605  0.3676  0.1681 -0.2858
13130SOL    HW141322   5.082   5.432   3.642  0.4200 -0.4652  0.0294
13130SOL    HW241323   4.945   5.487   3.610  1.4329  1.0062 -1.9428
13131SOL     OW41324   5.194   2.122   6.781 -0.3060 -0.2406  0.2497
13131SOL    HW141325   5.222   2.048   6.835 -0.3432 -0.3259  0.1529
13131SOL    HW241326   5.266   2.137   6.720  0.1265  0.4343  0.9041
13132SOL     OW41327   0.575   5.037   3.888 -0.0745 -0.2590  0.5065
13132SOL    HW141328   0.570   4.943   3.867  0.7471  0.2244 -2.2576
13132SOL    HW241329   0.669   5.053   3.900 -0.0699  0.4362 -0.3696
13133SOL     OW41330   3.124   3.569   3.786  0.0274 -0.0495 -0.4810
13133SOL    HW141331   3.117   3.618   3.868  2.0502 -0.6931  0.1490
13133SOL    HW241332   3.067   3.616   3.725 -1.1249  0.7546  1.1313
13134SOL     OW41333   3.735   7.101   0.601  0.1087  0.2346 -0.1096
13134SOL    HW141334   3.682   7.133   0.674 -0.8493  0.0368 -0.7025
13134SOL    HW241335   3.678   7.108   0.524  0.1577 -1.9730 -0.4269
13135SOL     OW41336   5.851   2.038   2.636 -0.1934 -0.3715  0.1654
13135SOL    HW141337   5.858   2.112   2.697 -1.0730 -0.1480  0.0110
13135SOL    HW241338   5.756   2.024   2.626 -0.0838 -0.1612 -1.4282
13136SOL     OW41339   4.925   1.345   8.497  0.2482 -0.2111  0.0189
13136SOL    HW141340   4.977   1.289   8.555 -0.2730 -2.4557 -1.5808
13136SOL    HW241341   4.971   1.342   8.413  1.2684  3.3764  0.2700
13137SOL     OW41342   6.973   4.448   2.135  0.3766  0.1916  0.1868
13137SOL    HW141343   7.065   4.453   2.161  1.1087 -3.7329 -0.9039
13137SOL    HW241344   6.924   4.445   2.218  1.9027 -3.5818  1.1662
13138SOL     OW41345   3.001   4.713   5.101  0.4307  0.5527  0.0124
13138SOL    HW141346   3.025   4.620   5.095  0.4995  0.4042  1.8793
13138SOL    HW241347   2.947   4.718   5.180 -0.2471  1.9765 -0.5291
13139SOL     OW41348   7.572   1.362   2.696  0.4562 -0.1575 -0.1564
13139SOL    HW141349   7.575   1.456   2.678 -0.3071  0.4122  2.2620
13139SOL    HW241350   7.486   1.349   2.737  0.7960 -1.8069  0.0817
13140SOL     OW41351   4.732   4.440   3.026  0.0521  0.3432  0.5233
13140SOL    HW141352   4.735   4.345   3.030 -0.2939  0.3278  0.4369
13140SOL    HW241353   4.815   4.465   2.986 -0.8116 -0.0487 -1.6077
13141SOL     OW41354   5.721   0.144   8.054 -0.1302  0.4025 -0.0116
13141SOL    HW141355   5.779   0.112   8.123  0.9535 -0.3207 -1.2000
13141SOL    HW241356   5.704   0.236   8.077 -0.7875 -0.1474  1.8226
13142SOL     OW41357   3.124   3.198   6.635  0.1820  0.3122  0.0161
13142SOL    HW141358   3.035   3.171   6.614  1.1891 -2.7589 -0.9524
13142SOL    HW241359   3.155   3.242   6.556  0.2301 -0.7917 -0.6108
13143SOL     OW41360   1.825   2.474   1.513 -0.2129 -0.3143  0.2326
13143SOL    HW141361   1.871   2.423   1.447 -0.5041 -0.6025  0.2488
13143SOL    HW241362   1.892   2.531   1.550  0.4265 -1.5617  1.0868
13144SOL     OW41363   6.812   2.746   5.998  0.1479 -0.3390  0.2982
13144SOL    HW141364   6.831   2.819   6.057 -0.8526  0.5190 -0.3878
13144SOL    HW241365   6.734   2.704   6.036 -0.2007 -0.0907 -0.1301
13145SOL     OW41366   5.233   4.895   0.149 -0.4102 -0.0498  0.1374
13145SOL    HW141367   5.236   4.964   0.083 -0.7291 -0.9573 -0.8615
13145SOL    HW241368   5.309   4.840   0.129 -0.5463 -0.3666  0.4851
13146SOL     OW41369   1.783   5.370   7.536  0.5655  0.2999 -0.3338
13146SOL    HW141370   1.793   5.399   7.627 -1.3041  0.2635 -0.0636
13146SOL    HW241371   1.788   5.274   7.541  1.0923  0.3216 -0.3767
13147SOL     OW41372   0.527   3.279   0.368  0.2259  0.1247  0.2225
13147SOL    HW141373   0.451   3.306   0.420  0.7438 -0.3895  1.2777
13147SOL    HW241374   0.494   3.209   0.312  0.0261 -0.4730  1.0653
13148SOL     OW41375   3.749   6.279   3.020 -0.2523  0.6471 -0.3752
13148SOL    HW141376   3.802   6.309   2.947  1.1285 -0.6975  0.0407
13148SOL    HW241377   3.795   6.309   3.098  0.2649 -1.0171  0.0062
13149SOL     OW41378   7.822   4.778   5.400 -0.2246  0.5110 -0.3713
13149SOL    HW141379   7.894   4.725   5.367  0.3134  1.0065 -0.0214
13149SOL    HW241380   7.799   4.835   5.327  0.4419  1.0675 -0.1581
13150SOL     OW41381   4.586   6.441   1.494  0.4694 -0.0692 -0.7458
13150SOL    HW141382   4.594   6.374   1.427 -0.6191  0.5642 -1.5437
13150SOL    HW241383   4.533   6.509   1.454  0.8170  0.8842  0.3466
13151SOL     OW41384   5.681   5.367   0.473  0.6397  0.2136  0.0207
13151SOL    HW141385   5.588   5.367   0.496  0.3041  0.3229 -1.2615
13151SOL    HW241386   5.691   5.444   0.416  1.5509  0.3048  0.3008
13152SOL     OW41387   8.011   6.018   2.814 -0.1996 -0.2077 -0.5623
13152SOL    HW141388   8.087   6.000   2.759 -0.1291 -0.9246 -0.2371
13152SOL    HW241389   8.005   5.942   2.873 -0.3672  0.4648  0.3104
13153SOL     OW41390   7.881   2.694   6.067 -0.3861 -1.1261 -0.5092
13153SOL    HW141391   7.884   2.607   6.027  0.2313 -0.1161 -2.8537
13153SOL    HW241392   7.971   2.727   6.061 -0.7259 -0.1040 -0.2494
13154SOL     OW41393   3.771   0.874   3.534 -0.9046  0.2737  0.3723
13154SOL    HW141394   3.690   0.906   3.574 -1.8859 -0.4670 -0.9462
13154SOL    HW241395   3.760   0.890   3.441  1.0387  1.3251  0.2784
13155SOL     OW41396   0.644   2.515   4.818 -0.3518 -1.4413 -0.5876
13155SOL    HW141397   0.677   2.426   4.800  1.0717 -1.2722  0.9752
13155SOL    HW241398   0.586   2.505   4.893  1.1511 -0.8709  0.7162
13156SOL     OW41399   6.280   0.031   0.193 -0.6212  0.1552  0.2957
13156SOL    HW141400   6.370  -0.002   0.195 -0.9565 -0.9381 -1.0349
13156SOL    HW241401   6.289   0.123   0.169  0.1567  0.0388  0.1068
13157SOL     OW41402   7.869   0.182   4.335 -0.2001  0.9600 -0.1540
13157SOL    HW141403   7.924   0.169   4.258 -0.4896  0.8873 -0.3531
13157SOL    HW241404   7.928   0.217   4.402 -0.3192  2.9138 -1.0002
13158SOL     OW41405   8.825   4.933   0.288  0.0322 -0.1632 -0.0308
13158SOL    HW141406   8.844   4.839   0.293 -0.5562 -0.2697  0.2856
13158SOL    HW241407   8.732   4.940   0.310 -0.1266  0.4187 -0.8511
13159SOL     OW41408   4.481   7.722   8.064  0.3286 -0.2210 -0.0536
13159SOL    HW141409   4.506   7.648   8.120 -1.1144 -0.4041  0.4015
13159SOL    HW241410   4.489   7.799   8.120  1.1093 -0.1096 -0.3058
13160SOL     OW41411   8.287   2.385   7.363 -0.8493 -0.1177 -0.3165
13160SOL    HW141412   8.343   2.308   7.355  0.0296  0.5029 -0.2042
13160SOL    HW241413   8.273   2.395   7.457 -1.5429 -0.5443 -0.3689
13161SOL     OW41414   4.409   2.686   6.914  0.0906  0.1504  0.3427
13161SOL    HW141415   4.480   2.661   6.973  0.4295  1.7784  0.6723
13161SOL    HW241416   4.330   2.649   6.953  0.8933 -3.4776 -1.0783
13162SOL     OW41417   1.055   6.120   8.378  0.3498  0.6565  0.3246
13162SOL    HW141418   0.978   6.088   8.329  1.1344 -0.4719 -0.2276
13162SOL    HW241419   1.117   6.047   8.374  2.2514  2.2435 -0.9539
13163SOL     OW41420   4.011   7.163   2.166 -0.0844  0.0089  0.2413
13163SOL    HW141421   4.098   7.172   2.127  0.0971 -0.9627  0.4079
13163SOL    HW241422   4.012   7.077   2.208 -1.5352 -0.5747 -0.8235
13164SOL     OW41423   2.954   1.540   2.235 -0.0642  0.3892 -0.2135
13164SOL    HW141424   2.904   1.592   2.298  1.7847  0.7384  1.0466
13164SOL    HW241425   2.911   1.556   2.151 -2.9653 -0.5547  0.9772
13165SOL     OW41426   7.784   3.014   7.656  0.0583  0.0384 -0.8401
13165SOL    HW141427   7.771   2.950   7.586 -0.1701  0.2812 -1.0193
13165SOL    HW241428   7.763   3.098   7.616 -1.2226  0.0636 -0.1762
13166SOL     OW41429   4.813   0.477   6.691  0.5173 -0.2597 -0.7093
13166SOL    HW141430   4.725   0.495   6.722  0.2992 -1.9830 -0.2286
13166SOL    HW241431   4.868   0.543   6.734 -0.1800 -0.7978  1.0615
13167SOL     OW41432   2.900   3.853   2.474  0.3842 -0.0396  0.0343
13167SOL    HW141433   2.835   3.879   2.408 -0.7756 -3.3136 -0.3007
13167SOL    HW241434   2.877   3.905   2.551  0.0938  1.9321 -1.2979
13168SOL     OW41435   4.971   7.945   7.798 -0.7836  0.1467  0.1375
13168SOL    HW141436   4.924   7.948   7.881 -2.6500  0.7895 -0.8990
13168SOL    HW241437   4.984   7.851   7.782 -1.7716 -0.0463  0.4189
13169SOL     OW41438   0.224   6.601   7.444  0.4243 -0.0954  0.1991
13169SOL    HW141439   0.161   6.566   7.381  0.9656 -1.3828  0.3362
13169SOL    HW241440   0.213   6.545   7.522 -0.2071  1.4324  1.2689
13170SOL     OW41441   7.624   1.203   7.447 -0.8820 -0.0147 -0.1408
13170SOL    HW141442   7.569   1.279   7.429 -1.4244  0.2397  2.2217
13170SOL    HW241443   7.702   1.240   7.490 -1.0420 -0.7524  0.8109
13171SOL     OW41444   5.467   5.783   7.686 -0.1600  0.2828 -0.0434
13171SOL    HW141445   5.498   5.693   7.677  1.2775  0.8590 -1.3240
13171SOL    HW241446   5.382   5.783   7.643  0.0889 -0.3515 -0.5646
13172SOL     OW41447   2.135   6.011   8.187  0.3910 -0.3657  0.1190
13172SOL    HW141448   2.166   6.040   8.273 -0.9441 -0.7264  0.7496
13172SOL    HW241449   2.144   5.916   8.189 -0.3987 -0.4470  0.1867
13173SOL     OW41450   2.767   1.995   5.384  0.1296 -0.1179  0.1614
13173SOL    HW141451   2.782   1.901   5.390 -0.4674 -0.2428 -0.2064
13173SOL    HW241452   2.832   2.034   5.442 -1.6329 -0.9119  2.8824
13174SOL     OW41453   6.526   4.555   6.560 -0.0107  0.1311 -0.0038
13174SOL    HW141454   6.516   4.483   6.622 -0.6507 -0.4280 -0.7335
13174SOL    HW241455   6.547   4.631   6.614  2.0031 -0.8398  0.6893
13175SOL     OW41456   6.150   5.408   4.895  0.2533 -0.2979 -0.0636
13175SOL    HW141457   6.107   5.427   4.812 -0.4712 -3.5727 -0.5553
13175SOL    HW241458   6.236   5.374   4.871  0.3801 -0.4537  0.5905
13176SOL     OW41459   7.909   6.785   1.376 -0.1494 -0.5522  0.0102
13176SOL    HW141460   7.871   6.720   1.316  1.9981 -0.8352 -1.1466
13176SOL    HW241461   8.001   6.758   1.385  0.1150  0.7452  1.7504
13177SOL     OW41462   5.197   3.892   0.698 -0.2656  0.1721  0.3148
13177SOL    HW141463   5.254   3.822   0.732 -0.1797  0.3622  0.5713
13177SOL    HW241464   5.111   3.852   0.690 -0.1486 -0.0491  0.1661
13178SOL     OW41465   1.581   0.081   2.586  0.2709 -0.0798  1.2513
13178SOL    HW141466   1.632   0.137   2.528  0.4945  0.3752  1.8700
13178SOL    HW241467   1.554   0.007   2.531 -1.8749  1.6375 -0.1699
13179SOL     OW41468   1.497   2.110   7.602  0.3394 -0.0996  0.5721
13179SOL    HW141469   1.450   2.093   7.683  0.9289 -1.9387  0.5659
13179SOL    HW241470   1.429   2.133   7.539 -0.1833  0.6929  1.4140
13180SOL     OW41471   4.761   7.732   6.719 -0.6780  0.4172  0.3724
13180SOL    HW141472   4.675   7.718   6.679 -0.3278  0.2442 -0.3482
13180SOL    HW241473   4.808   7.786   6.655  0.7862 -1.9652 -0.7268
13181SOL     OW41474   3.394   1.561   1.332 -0.5360  0.1844  0.0118
13181SOL    HW141475   3.399   1.580   1.238 -0.0572  0.7101  0.1398
13181SOL    HW241476   3.414   1.644   1.375  0.7147 -0.3760  0.5787
13182SOL     OW41477   8.080   3.513   2.885 -0.4235 -0.2713 -0.0053
13182SOL    HW141478   8.160   3.565   2.877 -0.3689 -0.4598 -0.8178
13182SOL    HW241479   8.102   3.428   2.845 -0.4371 -1.0125  1.5100
13183SOL     OW41480   3.838   3.254   7.713  0.2321  0.7536 -0.7030
13183SOL    HW141481   3.778   3.181   7.698 -1.2627  1.7473  0.1239
13183SOL    HW241482   3.918   3.213   7.746 -1.2409 -0.4652  1.6771
13184SOL     OW41483   3.860   3.583   8.174 -0.1583  0.3847 -0.0938
13184SOL    HW141484   3.866   3.617   8.085 -0.9063  0.8670  0.0308
13184SOL    HW241485   3.945   3.542   8.189 -0.3696 -0.5729 -1.3735
13185SOL     OW41486   2.001   7.722   3.149 -0.1879  0.6124 -0.4142
13185SOL    HW141487   2.064   7.660   3.187 -0.0371  0.1819 -1.3506
13185SOL    HW241488   1.981   7.782   3.221  0.8429  0.4056  0.0663
13186SOL     OW41489   5.750   1.088   5.717  0.5667  0.5685  0.0400
13186SOL    HW141490   5.765   1.103   5.811  0.3949  0.5102  0.0760
13186SOL    HW241491   5.747   1.176   5.679 -0.3505  0.6355  0.2375
13187SOL     OW41492   0.716   4.455   0.626 -0.1352  0.2209  0.1423
13187SOL    HW141493   0.726   4.549   0.642 -0.7858  0.2101  0.6354
13187SOL    HW241494   0.802   4.427   0.595  1.0236  0.3893  2.8919
13188SOL     OW41495   6.425   2.677   8.818 -0.4874 -0.4593  0.6810
13188SOL    HW141496   6.457   2.588   8.828  0.2033 -0.0167  2.8969
13188SOL    HW241497   6.430   2.715   8.906  0.0215  2.0221 -0.3369
13189SOL     OW41498   1.676   6.645   0.643  0.6106  0.4011 -0.8287
13189SOL    HW141499   1.614   6.718   0.640 -1.4001 -1.0017  2.0052
13189SOL    HW241500   1.629   6.571   0.603  0.2345 -0.7503  1.5670
13190SOL     OW41501   1.441   0.524   1.868  0.1414 -0.3291 -0.3416
13190SOL    HW141502   1.457   0.554   1.778 -1.1239 -1.3398 -0.9427
13190SOL    HW241503   1.432   0.429   1.860 -2.6709 -0.2195  0.3812
13191SOL     OW41504   7.869   0.743   7.095 -0.3269 -0.3305  0.5341
13191SOL    HW141505   7.964   0.732   7.088 -0.3657 -1.9571  2.0391
13191SOL    HW241506   7.845   0.697   7.175 -2.3368  0.5033  0.4646
13192SOL     OW41507   0.064   2.271   7.066 -0.0558  0.4262 -0.3765
13192SOL    HW141508   0.105   2.292   7.150  0.8025  0.0607 -0.6870
13192SOL    HW241509   0.117   2.319   7.002 -0.0100 -0.1818 -0.8023
13193SOL     OW41510   0.393   7.278   1.710  0.0882  0.1674 -0.1911
13193SOL    HW141511   0.310   7.247   1.745  0.2283  1.1241  1.0596
13193SOL    HW241512   0.374   7.303   1.619 -1.0078  0.4503  0.1076
13194SOL     OW41513   5.913   8.508   4.042  0.5849 -0.0703 -0.2615
13194SOL    HW141514   5.917   8.505   3.947  0.9923  0.7406 -0.2834
13194SOL    HW241515   5.847   8.575   4.061 -0.7732 -1.4440  0.0504
13195SOL     OW41516   0.942   2.170   8.683 -0.3683 -0.7555 -0.0019
13195SOL    HW141517   0.876   2.227   8.642  0.8946  0.5314 -0.3406
13195SOL    HW241518   1.000   2.145   8.612  0.0208 -1.1462  0.4438
13196SOL     OW41519   4.491   1.059   7.051  0.1548  0.5731  0.0665
13196SOL    HW141520   4.435   1.101   6.986  0.1253  1.1413  0.4455
13196SOL    HW241521   4.577   1.097   7.038 -0.0209  1.2818  0.8576
13197SOL     OW41522   3.415   1.973   7.065 -0.4651  0.4077  0.2151
13197SOL    HW141523   3.477   1.904   7.040 -1.2943  0.1473 -1.2860
13197SOL    HW241524   3.415   1.972   7.161 -0.5590 -1.8078  0.2568
13198SOL     OW41525   4.807   6.677   4.848  0.5549 -0.5605 -0.3309
13198SOL    HW141526   4.725   6.673   4.897 -0.5105  1.8094 -1.7822
13198SOL    HW241527   4.789   6.628   4.767  1.2098 -1.6114  0.1429
13199SOL     OW41528   8.580   3.461   0.926 -0.0097 -0.7789 -0.0069
13199SOL    HW141529   8.604   3.547   0.891 -2.3548 -1.0104 -2.5636
13199SOL    HW241530   8.485   3.465   0.938 -0.0376 -2.6714  0.8452
13200SOL     OW41531   7.359   7.828   3.514 -0.5865  0.0538  0.7183
13200SOL    HW141532   7.299   7.782   3.454 -1.3309  1.0271  0.6919
13200SOL    HW241533   7.427   7.763   3.534 -0.4369 -0.3758 -0.9975
13201SOL     OW41534   1.471   0.420   4.201 -0.4347 -0.0802  0.0853
13201SOL    HW141535   1.447   0.351   4.139  1.1876  1.1501 -2.1109
13201SOL    HW241536   1.397   0.481   4.200 -0.2584  0.1473 -1.0744
13202SOL     OW41537   1.807   1.483   3.221  0.1363  0.2358  0.3458
13202SOL    HW141538   1.900   1.498   3.206 -0.4054  2.0846 -1.8958
13202SOL    HW241539   1.764   1.554   3.172 -2.4665 -1.2538  0.2969
13203SOL     OW41540   0.750   0.077   8.221  0.2914  0.2063  0.3386
13203SOL    HW141541   0.716   0.110   8.305 -0.0014 -0.5820  0.5318
13203SOL    HW241542   0.781  -0.011   8.240  0.6556  0.1918 -0.2854
13204SOL     OW41543   4.103   7.163   6.993 -0.1142  0.5796  0.0590
13204SOL    HW141544   4.080   7.235   6.935 -0.8140 -1.1237 -1.8829
13204SOL    HW241545   4.181   7.124   6.954  0.6258  0.6388  1.4222
13205SOL     OW41546   0.104   5.791   7.508 -0.5906  0.0441  0.1752
13205SOL    HW141547   0.193   5.827   7.509 -0.6268  0.1397 -0.1598
13205SOL    HW241548   0.050   5.862   7.473 -0.5364 -0.6494 -1.3482
13206SOL     OW41549   5.354   7.165   8.356 -0.4275  0.3698  0.1144
13206SOL    HW141550   5.448   7.168   8.336 -0.9805  2.5591 -2.7090
13206SOL    HW241551   5.333   7.253   8.387 -1.5886 -0.0764  0.6542
13207SOL     OW41552   7.935   7.257   6.068 -0.1442 -0.1861 -0.0719
13207SOL    HW141553   7.875   7.319   6.111 -0.1496  0.5739 -1.1180
13207SOL    HW241554   8.008   7.312   6.038  0.9684 -1.0633  0.9618
13208SOL     OW41555   6.690   3.293   0.919  0.0359  0.2238  0.5538
13208SOL    HW141556   6.619   3.250   0.872  2.6710 -1.8862 -1.8435
13208SOL    HW241557   6.712   3.369   0.866 -1.2158  1.6986  2.0344
13209SOL     OW41558   5.177   7.799   2.663  0.1218  0.0750  0.6784
13209SOL    HW141559   5.268   7.814   2.640 -0.2792  0.6521 -0.6475
13209SOL    HW241560   5.134   7.781   2.580 -0.6764 -1.9515  1.4729
13210SOL     OW41561   6.717   1.804   2.565 -0.0904  0.3978 -0.2142
13210SOL    HW141562   6.644   1.741   2.561 -0.1336  0.4611 -0.4534
13210SOL    HW241563   6.773   1.779   2.491  1.3062 -1.0822  1.2637
13211SOL     OW41564   4.352   0.167   3.019 -0.0924  0.1548 -0.1030
13211SOL    HW141565   4.390   0.162   2.932  0.2229  0.0887  0.0367
13211SOL    HW241566   4.331   0.076   3.042  2.3480 -0.2080  0.9892
13212SOL     OW41567   4.250   0.928   6.302 -0.1477 -0.0560 -0.2435
13212SOL    HW141568   4.292   0.920   6.388 -0.2364 -2.5415 -0.3645
13212SOL    HW241569   4.194   1.005   6.310  0.2339  0.0708  1.7604
13213SOL     OW41570   6.754   8.245   5.257  0.1631  0.3937 -0.7962
13213SOL    HW141571   6.816   8.187   5.212  0.0579 -0.3166 -0.0554
13213SOL    HW241572   6.748   8.322   5.201 -0.1496 -0.5623 -2.1216
13214SOL     OW41573   6.767   0.625   2.378 -0.5110 -0.5639 -0.0778
13214SOL    HW141574   6.768   0.531   2.358 -0.6722 -0.2450 -1.7432
13214SOL    HW241575   6.708   0.633   2.453  0.0449 -1.8650  0.5209
13215SOL     OW41576   5.019   4.869   8.195 -0.3038 -0.2198 -0.0327
13215SOL    HW141577   5.039   4.954   8.235 -0.4305 -0.8109  1.3654
13215SOL    HW241578   4.981   4.891   8.110 -2.0377  1.2322  1.0215
13216SOL     OW41579   7.636   8.325   5.754 -0.0396 -0.7064 -0.4649
13216SOL    HW141580   7.638   8.281   5.839  2.3654  0.7307  0.3177
13216SOL    HW241581   7.544   8.346   5.740 -0.4207 -0.2617  2.2039
13217SOL     OW41582   6.354   4.857   4.419 -0.3425 -0.0905 -0.0927
13217SOL    HW141583   6.276   4.913   4.411  0.2214  0.6732 -0.3138
13217SOL    HW241584   6.333   4.799   4.493 -0.4913  1.1710  0.8919
13218SOL     OW41585   3.089   1.531   4.186 -0.7360 -0.2687 -0.6027
13218SOL    HW141586   3.137   1.586   4.124  1.4606  0.0675  1.2807
13218SOL    HW241587   3.131   1.445   4.180  0.6996  0.2039  1.5579
13219SOL     OW41588   8.523   0.723   5.350  0.3285  0.2311 -0.4261
13219SOL    HW141589   8.594   0.762   5.401 -0.4160  1.6871 -0.4627
13219SOL    HW241590   8.561   0.706   5.264  0.5291  1.4597 -0.6002
13220SOL     OW41591   4.996   7.815   8.467 -0.3927 -0.0656 -0.1642
13220SOL    HW141592   5.056   7.829   8.541 -0.4451 -0.2944 -0.0780
13220SOL    HW241593   4.915   7.785   8.508 -0.4968  0.0381 -0.2982
13221SOL     OW41594   6.983   1.838   3.047 -0.0942  0.3174  0.1450
13221SOL    HW141595   7.061   1.806   3.001  0.0898 -0.6633  1.1054
13221SOL    HW241596   6.911   1.820   2.987  0.2662  0.0215 -0.2063
13222SOL     OW41597   3.085   6.975   6.789 -0.3790 -0.4382  0.4243
13222SOL    HW141598   3.134   7.010   6.715 -3.3652  2.4309 -0.4161
13222SOL    HW241599   3.127   7.015   6.866  0.3732 -0.3463 -0.0249
13223SOL     OW41600   3.892   3.546   8.506  0.2459  0.0299 -0.1953
13223SOL    HW141601   3.800   3.527   8.485 -0.1427  0.2637  1.1930
13223SOL    HW241602   3.926   3.589   8.427 -0.0434 -2.4899 -1.8118
13224SOL     OW41603   6.984   1.653   8.324 -0.5065 -0.1987 -0.1135
13224SOL    HW141604   6.901   1.613   8.296 -0.4970  0.8972 -1.8679
13224SOL    HW241605   6.994   1.729   8.267  1.6994 -0.2824  0.0698
13225SOL     OW41606   8.637   1.827   0.199  0.2752  0.3401 -0.7287
13225SOL    HW141607   8.610   1.917   0.181  0.1904  0.8538  1.5888
13225SOL    HW241608   8.729   1.823   0.175  0.0443  0.7458 -1.7265
13226SOL     OW41609   5.863   0.161   4.210  0.0549  0.1376  0.1793
13226SOL    HW141610   5.936   0.223   4.216  0.0879  0.0124  1.2549
13226SOL    HW241611   5.865   0.114   4.294 -1.2885  0.1595  0.2366
13227SOL     OW41612   7.999   6.252   6.850 -0.0088 -0.7603 -0.4312
13227SOL    HW141613   7.924   6.193   6.862 -0.6251 -0.6777 -3.2228
13227SOL    HW241614   7.972   6.333   6.892 -0.7881 -1.2567  0.0642
13228SOL     OW41615   8.180   1.853   7.816  0.0991 -0.1786  0.4546
13228SOL    HW141616   8.176   1.758   7.806 -0.4516  0.1308 -4.2958
13228SOL    HW241617   8.095   1.876   7.853 -1.1893 -1.3865 -1.5488
13229SOL     OW41618   2.952   4.210   8.733  0.1790 -0.4105  0.5369
13229SOL    HW141619   2.863   4.186   8.758  0.1968 -0.2900  0.7234
13229SOL    HW241620   2.941   4.290   8.681  0.3054  0.7926  2.2522
13230SOL     OW41621   3.754   0.449   7.953 -0.1516  0.2017 -0.2701
13230SOL    HW141622   3.752   0.354   7.939 -0.2655  0.2743 -0.7288
13230SOL    HW241623   3.697   0.485   7.886 -0.0409  0.6051 -0.1496
13231SOL     OW41624   7.493   8.613   8.489 -0.0623 -0.0391 -0.4063
13231SOL    HW141625   7.491   8.699   8.446 -1.6416  0.3957  0.4497
13231SOL    HW241626   7.433   8.622   8.563  1.8908 -1.0231  1.4041
13232SOL     OW41627   4.239   2.750   4.173  0.2722  0.0087  0.0752
13232SOL    HW141628   4.164   2.804   4.148  1.3998  0.4044 -2.8263
13232SOL    HW241629   4.310   2.812   4.190  1.1105 -0.4500 -1.5834
13233SOL     OW41630   7.873   7.806   4.581 -0.3516 -0.6138 -0.1003
13233SOL    HW141631   7.966   7.794   4.560 -0.4878 -0.8015 -0.6264
13233SOL    HW241632   7.828   7.740   4.528 -0.6471 -1.9415  1.7278
13234SOL     OW41633   8.448   5.436   3.411 -0.0898  0.1382  0.0676
13234SOL    HW141634   8.399   5.432   3.329 -0.5048  1.0039  0.2593
13234SOL    HW241635   8.507   5.361   3.408  1.3560  1.2501 -1.9523
13235SOL     OW41636   0.328   1.086   2.560 -0.4001 -0.1230  0.1520
13235SOL    HW141637   0.266   1.015   2.543  1.4237 -1.9459  0.7599
13235SOL    HW241638   0.406   1.043   2.594  0.7216  2.2161  0.7778
13236SOL     OW41639   1.605   4.540   3.567 -0.2349  0.3734  0.9483
13236SOL    HW141640   1.582   4.590   3.489  3.3099 -0.6006 -0.9591
13236SOL    HW241641   1.681   4.587   3.603  0.1277 -0.9465  1.9591
13237SOL     OW41642   2.957   6.423   6.565  0.3119  0.6644  0.0274
13237SOL    HW141643   3.026   6.441   6.500  0.9138  0.1987  0.5246
13237SOL    HW241644   2.970   6.490   6.632 -1.2732  2.1056 -1.0475
13238SOL     OW41645   5.919   2.577   6.858  0.3765 -0.4264 -0.4287
13238SOL    HW141646   5.885   2.629   6.931  2.3849 -0.0785  0.3374
13238SOL    HW241647   5.946   2.495   6.899  1.9708 -0.0417 -0.6526
13239SOL     OW41648   0.624   6.231   1.394 -0.4714 -0.3297 -0.1387
13239SOL    HW141649   0.547   6.271   1.354 -0.3766 -0.0844 -0.0752
13239SOL    HW241650   0.664   6.180   1.324  0.8883  1.7633 -0.9828
13240SOL     OW41651   6.409   1.963   0.195  0.2835  0.3276 -0.5823
13240SOL    HW141652   6.500   1.939   0.175  0.9038  1.4301  0.7087
13240SOL    HW241653   6.415   2.053   0.226 -0.7260 -0.5980  2.8016
13241SOL     OW41654   6.055   5.615   1.882  0.1569  0.3048 -0.4596
13241SOL    HW141655   6.060   5.695   1.829  1.9557  0.7966  0.3770
13241SOL    HW241656   6.104   5.636   1.961 -1.1381 -0.9423  0.7281
13242SOL     OW41657   6.779   1.207   3.682  0.5387  0.2345 -0.4949
13242SOL    HW141658   6.732   1.131   3.717 -0.3883  0.9220 -0.2080
13242SOL    HW241659   6.870   1.179   3.678 -0.0258 -1.5376 -2.1745
13243SOL     OW41660   8.827   6.668   3.584  0.5671  0.2015  0.4616
13243SOL    HW141661   8.797   6.611   3.655 -0.6468  0.3805  0.1226
13243SOL    HW241662   8.910   6.631   3.557 -0.6453 -2.0508 -0.4332
13244SOL     OW41663   5.642   5.141   3.520  0.2001 -0.5608  0.1201
13244SOL    HW141664   5.588   5.169   3.446  0.6699 -0.4368 -0.1750
13244SOL    HW241665   5.596   5.065   3.555 -0.5259 -0.0588  0.2799
13245SOL     OW41666   0.019   5.694   7.940 -0.4129  0.2492  0.2713
13245SOL    HW141667   0.046   5.776   7.982  0.2404  1.0558 -1.6014
13245SOL    HW241668  -0.076   5.703   7.930 -0.3419  0.8078  0.0457
13246SOL     OW41669   8.344   0.273   2.154 -0.2585 -0.2425 -0.0303
13246SOL    HW141670   8.262   0.229   2.177 -0.4505  0.0693 -0.1020
13246SOL    HW241671   8.410   0.204   2.156 -0.3845 -0.3524  0.7929
13247SOL     OW41672   6.586   2.059   2.971 -0.4143  0.8995  0.3402
13247SOL    HW141673   6.492   2.039   2.965 -0.1588 -0.3331  0.0543
13247SOL    HW241674   6.598   2.093   3.059 -0.9807  0.1143  0.7363
13248SOL     OW41675   5.153   7.102   8.580 -0.1600  0.5152  0.3764
13248SOL    HW141676   5.075   7.073   8.628  0.0521 -0.6757  0.0132
13248SOL    HW241677   5.133   7.084   8.489  0.5093  0.2633  0.2730
13249SOL     OW41678   3.751   4.173   2.686  0.1563 -0.0178  0.3966
13249SOL    HW141679   3.700   4.170   2.605 -0.6800 -2.1097  0.9305
13249SOL    HW241680   3.699   4.227   2.745 -0.4350 -0.4311  0.2676
13250SOL     OW41681   5.419   7.454   8.029  0.6558 -0.4245  0.1777
13250SOL    HW141682   5.402   7.507   8.107 -1.4248 -2.2576  1.0804
13250SOL    HW241683   5.422   7.517   7.957  0.7925  1.1302  1.5025
13251SOL     OW41684   3.993   6.658   3.016 -0.0918  0.2085 -0.2460
13251SOL    HW141685   4.028   6.744   3.040  1.4404 -1.1074  2.6751
13251SOL    HW241686   4.066   6.614   2.972  0.1098 -0.5699  0.8389
13252SOL     OW41687   7.240   3.813   5.323  0.4690  0.7400 -0.3968
13252SOL    HW141688   7.307   3.762   5.279 -0.4556 -2.3060  1.3891
13252SOL    HW241689   7.158   3.768   5.302 -0.1992  0.2476  2.7683
13253SOL     OW41690   7.769   4.591   8.730 -0.5398 -0.1858  0.4053
13253SOL    HW141691   7.761   4.672   8.779  1.2468  0.0834  0.3132
13253SOL    HW241692   7.696   4.537   8.760 -1.4552  1.2609  0.8232
13254SOL     OW41693   7.808   1.862   7.141 -0.5671  0.7355 -0.0197
13254SOL    HW141694   7.902   1.871   7.125 -0.4010 -0.5911  0.0913
13254SOL    HW241695   7.796   1.886   7.232  0.4305 -3.3127  1.3922
13255SOL     OW41696   1.607   8.673   1.189  0.5360  0.3776  0.5602
13255SOL    HW141697   1.679   8.646   1.246  0.9194  1.8433  0.8048
13255SOL    HW241698   1.622   8.766   1.173 -0.0110  0.1702 -1.3211
13256SOL     OW41699   3.271   4.891   2.767 -0.6027 -0.0541 -0.1703
13256SOL    HW141700   3.319   4.857   2.843 -1.8351 -1.3412  0.0786
13256SOL    HW241701   3.267   4.816   2.707 -2.7937 -0.2069  0.0782
13257SOL     OW41702   1.821   6.051   1.315 -0.4296 -0.4398  0.1553
13257SOL    HW141703   1.883   6.084   1.381 -0.2776 -1.0668  0.3335
13257SOL    HW241704   1.854   6.087   1.233 -0.4702  0.1388  0.3825
13258SOL     OW41705   1.333   6.916   1.464 -0.3904 -0.6409  0.7086
13258SOL    HW141706   1.315   7.009   1.454 -3.0222 -1.0785  0.5395
13258SOL    HW241707   1.330   6.901   1.559  2.2021 -0.2527  0.9148
13259SOL     OW41708   0.281   4.235   1.434  0.7932  0.6468 -0.1937
13259SOL    HW141709   0.232   4.312   1.407 -0.2668 -0.5481 -1.8588
13259SOL    HW241710   0.232   4.202   1.510  0.6070  0.9937 -0.1594
13260SOL     OW41711   8.858   8.500   2.980 -0.2327  0.0902 -0.6010
13260SOL    HW141712   8.943   8.496   3.025 -0.3652 -2.6104 -0.4404
13260SOL    HW241713   8.879   8.524   2.890  0.5919  0.4140 -0.3317
13261SOL     OW41714   7.666   1.401   7.912 -0.8132 -0.1736  0.2806
13261SOL    HW141715   7.593   1.419   7.853 -0.9818 -1.4594  0.0766
13261SOL    HW241716   7.710   1.325   7.874  1.1689  1.0568 -0.0850
13262SOL     OW41717   7.035   6.064   1.813 -0.4457 -0.2406  0.1080
13262SOL    HW141718   7.020   6.080   1.906  0.4825  1.7367 -0.0321
13262SOL    HW241719   6.961   6.105   1.769 -0.4939 -0.5104 -0.0655
13263SOL     OW41720   6.446   2.391   1.892  0.3754  0.3613  0.1890
13263SOL    HW141721   6.432   2.303   1.857  1.8978 -0.6059  1.8273
13263SOL    HW241722   6.363   2.414   1.932  0.1985 -0.7306  0.4989
13264SOL     OW41723   4.660   8.557   2.243  0.3271  0.4867  0.2372
13264SOL    HW141724   4.610   8.598   2.172  2.4961  0.1016 -1.6434
13264SOL    HW241725   4.669   8.466   2.217  2.5056  0.6698  0.1190
13265SOL     OW41726   3.178   0.965   6.226 -0.3684  0.3991  0.2838
13265SOL    HW141727   3.196   1.017   6.304  0.5030  0.5844 -0.0350
13265SOL    HW241728   3.206   0.876   6.250  0.1918  0.5182  0.0789
13266SOL     OW41729   7.952   2.216   7.002 -0.4821 -0.1733 -0.1782
13266SOL    HW141730   7.979   2.167   7.079 -1.1037  0.9167  0.7711
13266SOL    HW241731   7.905   2.153   6.948 -1.2380 -0.6342  0.9912
13267SOL     OW41732   7.791   3.825   8.361 -0.1711  0.0053  0.0294
13267SOL    HW141733   7.793   3.888   8.433  1.0970  1.3764 -1.1317
13267SOL    HW241734   7.802   3.879   8.282 -3.0281 -1.2347 -1.3730
13268SOL     OW41735   6.794   4.783   8.134  0.2410  0.6012 -0.5834
13268SOL    HW141736   6.835   4.727   8.200  0.9961  1.3567 -0.3948
13268SOL    HW241737   6.818   4.872   8.160 -0.1971  0.9601 -1.3749
13269SOL     OW41738   0.376   3.864   5.641  0.3180  0.4972 -0.2883
13269SOL    HW141739   0.357   3.780   5.683  0.2432  0.4246 -0.4652
13269SOL    HW241740   0.471   3.872   5.644  0.3183  0.4528 -0.1825
13270SOL     OW41741   5.610   1.994   7.346 -0.6878  0.4079  0.3442
13270SOL    HW141742   5.648   2.081   7.359  0.9461  0.1639 -2.2162
13270SOL    HW241743   5.685   1.937   7.330 -1.7371 -1.5028  1.7789
13271SOL     OW41744   2.352   7.483   7.265  0.4240 -0.3114 -0.6794
13271SOL    HW141745   2.363   7.579   7.267 -0.6979 -0.1734  0.7164
13271SOL    HW241746   2.315   7.464   7.179 -0.4057  0.6526 -0.5501
13272SOL     OW41747   2.641   2.364   5.266  0.0670  0.9753  0.3481
13272SOL    HW141748   2.576   2.335   5.329  0.2119  0.8696  0.4504
13272SOL    HW241749   2.601   2.438   5.222  0.2129  1.4473  0.9977
13273SOL     OW41750   2.497   5.138   2.856 -0.0660 -0.0633  0.3545
13273SOL    HW141751   2.567   5.177   2.804  0.1893 -0.8442  0.0994
13273SOL    HW241752   2.418   5.153   2.804 -0.2105  1.4328  0.9697
13274SOL     OW41753   6.971   4.797   0.883  0.2245  0.2261  0.1928
13274SOL    HW141754   6.876   4.810   0.886  0.0395 -0.7934 -0.6027
13274SOL    HW241755   7.007   4.876   0.923 -0.8828  2.1688 -2.3403
13275SOL     OW41756   8.158   4.818   5.611 -0.3251  0.3605  0.0738
13275SOL    HW141757   8.165   4.743   5.551  1.1628  1.1684 -0.8037
13275SOL    HW241758   8.198   4.787   5.692 -0.7737 -0.1625  0.1065
13276SOL     OW41759   4.306   6.490   5.851  0.2565  0.0791  0.3741
13276SOL    HW141760   4.314   6.537   5.768  0.0517 -0.4532  0.0453
13276SOL    HW241761   4.394   6.456   5.868  0.5328  1.0185  0.8877
13277SOL     OW41762   2.827   7.401   7.997  0.3358 -0.1213 -0.0886
13277SOL    HW141763   2.901   7.447   8.038  0.9285 -1.3307  0.2220
13277SOL    HW241764   2.782   7.358   8.070  1.0260 -1.7613 -0.5985
13278SOL     OW41765   8.732   6.224   0.495 -0.0570  0.1505 -0.9410
13278SOL    HW141766   8.715   6.314   0.470 -0.0120 -0.4972 -3.5401
13278SOL    HW241767   8.817   6.203   0.457 -0.0978 -1.0110 -0.4536
13279SOL     OW41768   4.007   7.996   6.490 -0.4723 -0.6395 -0.0424
13279SOL    HW141769   4.015   8.091   6.503 -1.8459 -0.4491 -0.4724
13279SOL    HW241770   4.007   7.960   6.579 -0.1343 -0.2359  0.1289
13280SOL     OW41771   7.642   5.535   4.844 -0.1823  0.1461  0.2550
13280SOL    HW141772   7.553   5.535   4.878 -0.1316 -0.8855  0.4183
13280SOL    HW241773   7.670   5.626   4.852 -1.1702  0.4620  0.3203
13281SOL     OW41774   4.727   3.305   6.282 -0.0839  0.1672  0.7475
13281SOL    HW141775   4.761   3.240   6.344  0.2132 -0.4663 -0.0622
13281SOL    HW241776   4.804   3.354   6.254 -0.0096 -0.4481 -0.1459
13282SOL     OW41777   3.082   4.135   8.367 -0.3667  0.2789  0.1353
13282SOL    HW141778   3.041   4.221   8.362 -1.4783 -0.1983  0.6174
13282SOL    HW241779   3.061   4.093   8.284 -1.9161 -0.3923  0.8203
13283SOL     OW41780   3.912   8.654   4.418 -0.2488  0.0866  0.2146
13283SOL    HW141781   3.817   8.648   4.423 -0.1303 -1.0654  3.9685
13283SOL    HW241782   3.933   8.741   4.453  0.1321  0.8392 -1.7318
13284SOL     OW41783   6.595   3.362   3.320  0.0179  0.3028 -0.7921
13284SOL    HW141784   6.609   3.375   3.227  2.6739 -0.6680 -0.5981
13284SOL    HW241785   6.559   3.446   3.350 -0.9110  0.6183 -2.6510
13285SOL     OW41786   4.167   1.400   8.665 -0.2423  0.0513 -0.2528
13285SOL    HW141787   4.122   1.411   8.581  0.9259 -0.7958 -1.0196
13285SOL    HW241788   4.260   1.412   8.644 -0.0068  0.8318  1.1138
13286SOL     OW41789   0.687   5.054   5.890  0.5510 -0.5379  0.1984
13286SOL    HW141790   0.677   4.969   5.932  0.2400  0.1468  1.5579
13286SOL    HW241791   0.598   5.087   5.881  0.7126 -0.0641  0.3128
13287SOL     OW41792   7.935   8.516   8.414 -0.0872 -0.1887 -0.2342
13287SOL    HW141793   7.968   8.437   8.457 -2.1533 -0.8439  0.2696
13287SOL    HW241794   7.972   8.588   8.465  0.1249 -0.8976  0.6479
13288SOL     OW41795   1.080   0.775   1.890 -0.0290  0.5141 -0.3343
13288SOL    HW141796   1.038   0.710   1.833  0.1704 -0.1747  0.3009
13288SOL    HW241797   1.154   0.807   1.838  2.3011 -2.6063  0.7408
13289SOL     OW41798   8.634   0.706   6.678 -0.5131 -0.2404  0.0854
13289SOL    HW141799   8.613   0.637   6.616 -1.0425 -0.7777  0.8465
13289SOL    HW241800   8.620   0.787   6.629  1.1946 -0.6582 -1.1457
13290SOL     OW41801   8.609   1.136   7.425  0.2980  0.0055  0.0437
13290SOL    HW141802   8.662   1.081   7.367 -1.1406 -1.4752  0.0464
13290SOL    HW241803   8.609   1.222   7.384  0.6966 -0.5890 -1.2598
13291SOL     OW41804   5.314   1.813   0.859  0.0021  0.1964 -0.5087
13291SOL    HW141805   5.270   1.897   0.868 -1.6563 -0.7184  0.3776
13291SOL    HW241806   5.405   1.835   0.841 -0.3320  2.1638  0.0313
13292SOL     OW41807   5.164   4.552   0.150  0.1188  0.1604 -0.3337
13292SOL    HW141808   5.106   4.610   0.200 -0.4369 -0.0055 -0.7763
13292SOL    HW241809   5.250   4.565   0.190  0.4843  2.9481 -1.7552
13293SOL     OW41810   2.497   0.780   1.822  0.1081 -0.1494  0.0590
13293SOL    HW141811   2.554   0.733   1.762  0.0197 -0.6245  0.3366
13293SOL    HW241812   2.547   0.786   1.904  0.2270  0.4873 -0.0529
13294SOL     OW41813   4.238   5.909   8.834  0.5276 -0.4378  0.9344
13294SOL    HW141814   4.205   5.850   8.766  0.0852 -0.8575  1.5106
13294SOL    HW241815   4.186   5.989   8.824  1.9291  0.3391 -0.6267
13295SOL     OW41816   3.106   0.323   4.059  0.5426  0.2127 -0.1761
13295SOL    HW141817   3.145   0.409   4.071 -0.0959  0.6625 -1.1636
13295SOL    HW241818   3.175   0.262   4.084  1.1815  1.0097  0.0461
13296SOL     OW41819   1.311   1.263   4.075 -0.4282 -0.0993  0.0467
13296SOL    HW141820   1.329   1.333   4.012 -0.5526  2.1080  2.3268
13296SOL    HW241821   1.378   1.197   4.056 -0.3251  0.5510 -2.2035
13297SOL     OW41822   5.904   7.884   5.453  0.4519  0.6294 -0.0330
13297SOL    HW141823   5.988   7.917   5.421  0.5074 -0.0947 -0.6769
13297SOL    HW241824   5.906   7.902   5.547  1.0772  1.1441 -0.1290
13298SOL     OW41825   6.301   8.218   8.787  0.5246 -0.2293 -0.1006
13298SOL    HW141826   6.252   8.272   8.849  0.0178 -0.8339  0.0372
13298SOL    HW241827   6.392   8.226   8.815  0.5352  0.9409 -0.3841
13299SOL     OW41828   8.614   0.763   3.885  0.2308  0.0838  0.3020
13299SOL    HW141829   8.551   0.692   3.891 -0.3897  0.7571  2.7226
13299SOL    HW241830   8.562   0.843   3.892  0.9218  0.8802 -2.2870
13300SOL     OW41831   7.104   4.582   7.772 -0.1592 -0.4317  0.1326
13300SOL    HW141832   7.055   4.655   7.809 -1.3014 -0.4255 -1.2891
13300SOL    HW241833   7.158   4.550   7.844  0.1844  1.6346  0.8705
13301SOL     OW41834   0.305   5.482   2.247  0.0688  0.3890  0.3211
13301SOL    HW141835   0.274   5.423   2.178 -1.4403 -0.8851  1.9961
13301SOL    HW241836   0.226   5.515   2.288  0.9224  2.5307  0.3598
13302SOL     OW41837   8.071   5.491   5.491  0.5538 -0.0503  0.1462
13302SOL    HW141838   7.994   5.451   5.451  1.3099 -2.1095  0.6236
13302SOL    HW241839   8.049   5.499   5.584 -0.1877  2.2365 -0.1660
13303SOL     OW41840   4.347   3.057   6.759  0.1685 -0.0780 -0.2606
13303SOL    HW141841   4.311   3.119   6.822  0.5179 -1.3855  1.2913
13303SOL    HW241842   4.271   3.008   6.728  0.0456  0.3148 -0.5954
13304SOL     OW41843   3.648   2.791   5.550 -0.1437  0.2656 -0.6087
13304SOL    HW141844   3.712   2.744   5.496  2.8154  1.6043  1.4276
13304SOL    HW241845   3.687   2.878   5.562 -0.5894  0.1106  3.4559
13305SOL     OW41846   7.421   7.672   8.244  0.1881  0.0097  0.8354
13305SOL    HW141847   7.417   7.760   8.282 -0.8904  0.3677 -0.0719
13305SOL    HW241848   7.379   7.616   8.309 -0.4979  0.4119  0.7414
13306SOL     OW41849   5.834   8.572   1.181 -0.3984  0.5267 -0.7144
13306SOL    HW141850   5.808   8.658   1.148 -0.4701  0.7824 -0.0195
13306SOL    HW241851   5.923   8.559   1.148  0.0192  1.3397  0.0226
13307SOL     OW41852   4.856   7.726   6.982  0.1694  0.0402  0.4354
13307SOL    HW141853   4.946   7.757   6.987 -0.0229  0.6335  0.3401
13307SOL    HW241854   4.828   7.749   6.893  0.2157 -0.9604  0.1555
13308SOL     OW41855   8.130   7.705   4.508  0.0138 -0.4514  0.1905
13308SOL    HW141856   8.224   7.712   4.527  0.6024 -0.1631 -2.4716
13308SOL    HW241857   8.118   7.613   4.484 -0.4238 -0.5045  0.5996
13309SOL     OW41858   8.197   1.505   0.457 -0.1050  0.0505 -0.5831
13309SOL    HW141859   8.257   1.499   0.383 -0.7106 -1.1619 -0.9982
13309SOL    HW241860   8.136   1.575   0.433  0.8182  0.9514 -0.3729
13310SOL     OW41861   4.566   7.546   7.638  0.1097  0.1032  0.2664
13310SOL    HW141862   4.579   7.635   7.669  2.1445  0.4073 -1.2843
13310SOL    HW241863   4.653   7.516   7.612 -0.6247 -2.1285  0.1645
13311SOL     OW41864   2.496   2.164   1.247 -0.0093  0.2695 -0.1044
13311SOL    HW141865   2.569   2.130   1.195  1.4568  0.0108  2.0094
13311SOL    HW241866   2.530   2.244   1.287 -0.6840 -0.1435  1.3451
13312SOL     OW41867   2.202   2.596   5.425 -0.2096  0.3217 -0.1346
13312SOL    HW141868   2.181   2.502   5.428  0.6554  0.1294  0.4343
13312SOL    HW241869   2.157   2.632   5.501 -0.8185  0.4357 -0.5431
13313SOL     OW41870   6.221   0.520   5.376  0.0247  0.1297  0.0164
13313SOL    HW141871   6.203   0.589   5.313  0.4724  0.7091  0.5124
13313SOL    HW241872   6.152   0.529   5.441 -0.5565 -0.5973 -0.4819
13314SOL     OW41873   4.663   6.961   7.992 -0.5544  0.1607  0.4268
13314SOL    HW141874   4.620   6.987   8.074 -1.0268 -0.0313  0.2439
13314SOL    HW241875   4.682   6.868   8.004 -2.8119 -0.5071 -0.5946
13315SOL     OW41876   8.721   6.438   3.755 -0.0785 -0.3779 -0.1835
13315SOL    HW141877   8.675   6.382   3.818 -0.0063 -1.2636 -0.8997
13315SOL    HW241878   8.663   6.443   3.680  0.2917 -0.1838 -0.4610
13316SOL     OW41879   8.116   6.517   2.253  0.2010 -0.1556  0.0391
13316SOL    HW141880   8.074   6.433   2.235 -0.5910  0.3934 -0.6859
13316SOL    HW241881   8.128   6.517   2.348 -1.7938 -0.1590  0.3137
13317SOL     OW41882   0.280   1.311   4.705  0.5969  0.1410 -0.6166
13317SOL    HW141883   0.248   1.265   4.782  0.8386 -1.9057 -1.6678
13317SOL    HW241884   0.360   1.354   4.734  2.2079 -2.8407 -0.2836
13318SOL     OW41885   8.056   6.907   3.819 -0.4087 -0.3035  0.0214
13318SOL    HW141886   8.003   6.966   3.872 -0.5731 -0.0122 -0.4589
13318SOL    HW241887   8.112   6.965   3.767 -1.4543 -0.4885 -1.3834
13319SOL     OW41888   0.744   5.882   4.024  0.1882 -0.6427 -0.1298
13319SOL    HW141889   0.725   5.809   3.966  0.5942 -1.4370  0.7034
13319SOL    HW241890   0.710   5.959   3.979 -2.0728 -1.5851 -0.1537
13320SOL     OW41891   4.302   6.477   2.069 -0.0711 -0.0942  0.2992
13320SOL    HW141892   4.384   6.512   2.034  1.4438 -2.0277  1.6971
13320SOL    HW241893   4.265   6.549   2.120  0.5119  0.9456 -0.6999
13321SOL     OW41894   0.961   5.573   4.453  0.0278 -0.3288 -0.2104
13321SOL    HW141895   0.964   5.640   4.385  0.0349 -0.2631 -0.1449
13321SOL    HW241896   0.882   5.523   4.434  0.8871 -1.3611 -1.2802
13322SOL     OW41897   5.641   7.905   1.745 -0.1327 -0.3539 -0.6043
13322SOL    HW141898   5.679   7.841   1.685  0.5520 -0.5574  0.0360
13322SOL    HW241899   5.701   7.907   1.819 -2.0591 -1.7123  1.1053
13323SOL     OW41900   8.807   6.252   7.637 -0.5398 -0.2156 -0.3314
13323SOL    HW141901   8.725   6.256   7.588 -0.3639 -0.6104 -0.6770
13323SOL    HW241902   8.824   6.158   7.647 -0.1348 -0.1381 -0.2573
13324SOL     OW41903   7.133   5.908   7.930  0.4273  0.3371  0.1711
13324SOL    HW141904   7.111   5.983   7.874  1.1439 -0.0843 -0.6935
13324SOL    HW241905   7.058   5.849   7.921  0.1120  0.6985  0.4112
13325SOL     OW41906   2.861   1.847   1.436 -0.3037 -0.6207 -0.5234
13325SOL    HW141907   2.826   1.936   1.427  1.3686  0.2787  1.0852
13325SOL    HW241908   2.946   1.851   1.390  0.0969 -1.1609  0.1590
13326SOL     OW41909   8.057   1.663   4.673  0.0458  0.3689  0.0992
13326SOL    HW141910   8.060   1.721   4.597  0.9176  2.5042  1.6554
13326SOL    HW241911   7.968   1.671   4.706  0.2114  1.0280  0.4124
13327SOL     OW41912   1.646   8.521   4.655  0.7996 -0.4210 -0.1583
13327SOL    HW141913   1.650   8.615   4.635 -2.0966 -0.0448  0.6980
13327SOL    HW241914   1.708   8.510   4.728  1.6267  0.6769 -0.6583
13328SOL     OW41915   1.402   4.366   7.300  0.3665 -0.1139  0.4336
13328SOL    HW141916   1.384   4.403   7.214 -0.9451 -0.0288  0.7217
13328SOL    HW241917   1.380   4.436   7.362  1.5954 -0.0651  0.8418
13329SOL     OW41918   3.795   0.505   1.957 -0.1401  0.5804  0.0266
13329SOL    HW141919   3.817   0.472   1.870  1.9502  0.7906  0.4224
13329SOL    HW241920   3.797   0.600   1.948 -2.5600  0.6599 -0.2646
13330SOL     OW41921   2.331   4.060   4.788  0.0521 -0.5035  0.5560
13330SOL    HW141922   2.281   4.118   4.731  1.3505  0.5439  0.4459
13330SOL    HW241923   2.421   4.091   4.781  0.4676 -1.2922  2.0384
13331SOL     OW41924   7.615   1.188   8.244  0.0998 -0.3359  0.4715
13331SOL    HW141925   7.697   1.180   8.195 -1.1323  0.4212 -1.8117
13331SOL    HW241926   7.603   1.282   8.256  0.9686 -0.4829  3.4576
13332SOL     OW41927   5.929   1.291   8.359 -0.3860  0.4615 -0.9191
13332SOL    HW141928   5.944   1.370   8.411  0.5767  0.8757 -1.7935
13332SOL    HW241929   5.891   1.322   8.277  0.4800  0.0892 -1.4792
13333SOL     OW41930   2.720   8.743   1.515  0.1345  0.1307  1.0261
13333SOL    HW141931   2.811   8.773   1.514  0.1435  0.1109  1.2069
13333SOL    HW241932   2.717   8.678   1.586  0.7034 -2.1150 -0.8785
13334SOL     OW41933   0.419   4.229   8.841 -0.5311  0.6274 -0.2579
13334SOL    HW141934   0.374   4.154   8.880  0.3566 -0.3194 -0.9956
13334SOL    HW241935   0.496   4.191   8.799 -0.5975  1.8329 -1.5198
13335SOL     OW41936   2.281   5.848   3.296  0.7974  0.6214 -0.3551
13335SOL    HW141937   2.348   5.817   3.235  1.9457 -0.2451  1.2890
13335SOL    HW241938   2.224   5.773   3.310 -2.0000  1.9054 -3.4298
13336SOL     OW41939   7.917   5.978   6.607 -0.0964 -0.1590  0.0347
13336SOL    HW141940   8.009   6.000   6.611 -0.0958 -0.1812  0.1439
13336SOL    HW241941   7.871   6.059   6.629 -0.1032 -0.1455 -0.0283
13337SOL     OW41942   2.101   4.678   4.105 -0.0958  0.6317  0.0509
13337SOL    HW141943   2.098   4.702   4.013  1.0145 -0.2235 -0.2244
13337SOL    HW241944   2.154   4.599   4.108  1.1269  1.4512  1.5673
13338SOL     OW41945   5.721   5.910   2.911 -0.2756 -0.0859 -0.4596
13338SOL    HW141946   5.664   5.979   2.946 -1.2859 -1.3677  0.5288
13338SOL    HW241947   5.697   5.903   2.819 -0.5977  0.4417 -0.4214
13339SOL     OW41948   4.740   6.496   2.471  0.2436 -0.4876 -0.0757
13339SOL    HW141949   4.806   6.530   2.410  0.3614 -1.2087 -0.3692
13339SOL    HW241950   4.660   6.489   2.419  0.1383 -0.3404  0.0680
13340SOL     OW41951   3.655   8.075   1.237  0.0489 -0.1063  0.2466
13340SOL    HW141952   3.659   8.010   1.167 -1.1979 -0.4647  0.4728
13340SOL    HW241953   3.738   8.123   1.231  0.0673 -0.2757 -1.3314
13341SOL     OW41954   3.670   7.269   0.049 -0.4287 -0.7020  0.4288
13341SOL    HW141955   3.722   7.233  -0.023 -0.4520  1.0442 -0.5257
13341SOL    HW241956   3.655   7.195   0.108  1.2637 -1.7503 -0.3749
13342SOL     OW41957   0.268   2.990   2.600 -0.1493  0.2253  0.5120
13342SOL    HW141958   0.279   2.901   2.632 -2.1422  0.3003  1.4967
13342SOL    HW241959   0.185   3.020   2.637  1.4269  3.2561  1.9622
13343SOL     OW41960   0.007   6.952   4.116  0.4673  0.8447 -0.1026
13343SOL    HW141961   0.021   6.875   4.170  1.9728  1.6883  0.7821
13343SOL    HW241962   0.085   7.007   4.131 -0.9583  2.9548  0.0401
13344SOL     OW41963   6.779   5.192   3.902 -0.0318  0.0528  0.0698
13344SOL    HW141964   6.844   5.194   3.973 -0.2973 -0.7465  0.3442
13344SOL    HW241965   6.743   5.104   3.904  0.4117 -0.1960 -1.4873
13345SOL     OW41966   8.654   8.750   2.387 -0.2446 -0.3040 -0.2918
13345SOL    HW141967   8.726   8.720   2.442  0.2946  0.6397 -0.4445
13345SOL    HW241968   8.650   8.687   2.315  0.5900 -0.2515 -0.3982
13346SOL     OW41969   3.396   7.569   0.804  0.4354 -0.1429  0.2835
13346SOL    HW141970   3.348   7.651   0.818  0.5978 -0.0194  0.1274
13346SOL    HW241971   3.480   7.583   0.846  0.5025 -0.1910  0.1658
13347SOL     OW41972   1.844   1.338   2.137 -0.3179 -0.1164 -0.7323
13347SOL    HW141973   1.761   1.322   2.182  1.0179  0.5153  2.1898
13347SOL    HW241974   1.899   1.264   2.160  0.6604  0.5987 -0.7160
13348SOL     OW41975   3.040   6.092   3.326 -0.4646  0.1432  0.5941
13348SOL    HW141976   3.119   6.066   3.280 -0.6141  1.5467 -0.5531
13348SOL    HW241977   2.987   6.013   3.332 -0.4447 -0.1126 -1.7384
13349SOL     OW41978   4.114   7.892   1.491  0.0356  0.1406  0.3736
13349SOL    HW141979   4.157   7.939   1.563 -0.7545  2.1839 -0.4137
13349SOL    HW241980   4.037   7.851   1.532  0.3480  0.1038  0.9413
13350SOL     OW41981   0.395   8.712   5.820 -0.0232 -0.5594  0.2834
13350SOL    HW141982   0.311   8.668   5.834  0.8809 -2.0330  1.3187
13350SOL    HW241983   0.452   8.645   5.783  1.2095 -0.1239  1.3065
13351SOL     OW41984   3.200   1.045   4.766  0.0629 -0.1193  0.3020
13351SOL    HW141985   3.278   1.080   4.808  0.8881  0.9487 -1.9548
13351SOL    HW241986   3.233   0.982   4.703 -0.8656  0.3446 -0.6856
13352SOL     OW41987   0.712   4.415   0.900  0.5159 -0.2524 -0.6873
13352SOL    HW141988   0.689   4.410   0.807  0.3557  2.2736 -0.8408
13352SOL    HW241989   0.671   4.495   0.931  1.8572 -0.2343  1.2099
13353SOL     OW41990   3.549   5.198   1.240 -0.0357 -0.3542 -0.3895
13353SOL    HW141991   3.596   5.168   1.162  1.5759  1.2163 -0.0799
13353SOL    HW241992   3.609   5.180   1.313 -0.1919  1.0065  0.1062
13354SOL     OW41993   6.355   5.538   4.114 -0.5093 -0.5469  0.3949
13354SOL    HW141994   6.368   5.450   4.150  0.0493 -0.9160 -0.6691
13354SOL    HW241995   6.440   5.581   4.126 -1.2216  0.4409  2.3930
13355SOL     OW41996   7.877   8.422   5.706 -0.3805 -0.6345 -0.4040
13355SOL    HW141997   7.858   8.486   5.638  0.8813  0.5606  0.3137
13355SOL    HW241998   7.791   8.397   5.740 -0.9028  0.7928 -0.6103
13356SOL     OW41999   7.255   5.669   5.213  1.0924  0.2643  0.4774
13356SOL    HW142000   7.295   5.665   5.300 -1.1626 -1.6626  1.5748
13356SOL    HW242001   7.171   5.713   5.228  1.6822  2.1486 -1.2792
13357SOL     OW42002   1.808   1.878   1.099  0.3787 -0.3846  0.1902
13357SOL    HW142003   1.765   1.964   1.099 -2.1641 -1.5696  1.0365
13357SOL    HW242004   1.873   1.884   1.028 -0.7848  1.7071 -0.7989
13358SOL     OW42005   3.004   2.355   1.999  0.0114 -0.3154 -0.4046
13358SOL    HW142006   2.926   2.300   2.004  1.2920 -2.3106 -0.9751
13358SOL    HW242007   2.970   2.444   1.992 -2.2134 -1.1235 -0.9002
13359SOL     OW42008   5.016   7.347   6.998 -0.5088  0.1106  0.0779
13359SOL    HW142009   5.007   7.371   6.906  0.4144 -0.4358 -0.1707
13359SOL    HW242010   4.954   7.403   7.044 -1.1126  0.2613 -0.8966
13360SOL     OW42011   4.271   7.062   4.048  0.4373  0.3877  0.0146
13360SOL    HW142012   4.247   7.154   4.040  0.3539  0.2804 -1.0807
13360SOL    HW242013   4.361   7.064   4.082  0.3986  0.8687  0.0914
13361SOL     OW42014   2.674   5.563   7.301 -0.0025  0.2021  0.4024
13361SOL    HW142015   2.733   5.588   7.231 -1.3323  2.5660  0.0527
13361SOL    HW242016   2.716   5.487   7.341  2.8020  1.2272 -0.3848
13362SOL     OW42017   0.546   1.833   0.495 -0.1022 -0.0727 -0.1009
13362SOL    HW142018   0.582   1.862   0.411 -0.4392  0.0250 -0.2155
13362SOL    HW242019   0.525   1.741   0.482  0.3125 -0.1900  0.0388
13363SOL     OW42020   8.834   1.084   7.899 -0.0363 -0.6434  0.1269
13363SOL    HW142021   8.929   1.078   7.883  0.1246 -0.0342  0.8094
13363SOL    HW242022   8.799   1.119   7.817  0.4093 -0.2850  0.0849
13364SOL     OW42023   1.086   6.158   2.467  0.2171  0.4831  0.2307
13364SOL    HW142024   1.028   6.198   2.531  0.9750 -0.7997  1.7925
13364SOL    HW242025   1.029   6.107   2.410 -0.3557  0.6623  0.6443
13365SOL     OW42026   8.168   1.553   7.706 -0.0085 -0.0609  0.3944
13365SOL    HW142027   8.260   1.579   7.700  0.2865 -1.1191 -0.0004
13365SOL    HW242028   8.124   1.605   7.639  0.5228 -0.3803 -0.2200
13366SOL     OW42029   1.261   4.998   7.736  0.1748  0.2731  0.3642
13366SOL    HW142030   1.347   5.013   7.776  0.3508  2.0493 -0.5878
13366SOL    HW242031   1.205   4.969   7.808  1.4769 -0.6137  1.0508
13367SOL     OW42032   1.787   6.350   1.069  0.4636  0.1016 -0.2241
13367SOL    HW142033   1.777   6.359   1.164 -2.8169  0.3928 -0.4806
13367SOL    HW242034   1.746   6.429   1.034  1.3954 -0.1343 -1.9150
13368SOL     OW42035   8.453   7.643   1.427  0.7496 -0.2184 -0.2823
13368SOL    HW142036   8.535   7.594   1.419  0.4535 -0.8799  0.5234
13368SOL    HW242037   8.479   7.732   1.449  1.2451 -0.7012  1.2279
13369SOL     OW42038   7.232   0.838   4.559  0.5888  0.1533  0.8046
13369SOL    HW142039   7.301   0.808   4.499 -0.6895 -0.0289 -0.6137
13369SOL    HW242040   7.227   0.770   4.625 -0.1693 -1.3135 -0.6865
13370SOL     OW42041   4.090   3.707   6.438  0.5445  0.0264  0.0945
13370SOL    HW142042   4.158   3.748   6.493  0.5506  2.9067 -1.8288
13370SOL    HW242043   4.007   3.736   6.477  0.5261  0.4736 -0.2630
13371SOL     OW42044   5.938   8.693   2.599 -0.7289  0.1322 -0.4498
13371SOL    HW142045   5.876   8.759   2.628 -0.6165 -0.4360  1.2238
13371SOL    HW242046   5.885   8.614   2.587 -0.3918 -0.3196  0.8558
13372SOL     OW42047   6.082   4.786   3.229 -0.4526  0.2867 -0.3985
13372SOL    HW142048   6.151   4.782   3.163 -0.6733 -2.3874 -0.5734
13372SOL    HW242049   6.010   4.734   3.193 -0.9095 -0.5360  1.5192
13373SOL     OW42050   2.568   5.907   8.815  0.2964 -0.1691 -0.3161
13373SOL    HW142051   2.565   5.940   8.725 -0.5725 -0.7836 -0.5217
13373SOL    HW242052   2.576   5.986   8.869  2.0577  0.1431 -0.9660
13374SOL     OW42053   6.176   3.820   4.814 -0.0490  0.3053 -0.1522
13374SOL    HW142054   6.266   3.828   4.783  0.3308 -1.1557  0.4889
13374SOL    HW242055   6.151   3.909   4.840  0.4880  1.0978 -2.2042
13375SOL     OW42056   4.992   0.376   3.496 -0.3938 -0.1944  0.1465
13375SOL    HW142057   5.083   0.383   3.466  0.4947 -2.3891  2.0158
13375SOL    HW242058   4.997   0.386   3.591 -2.6395  3.0466  0.0886
13376SOL     OW42059   6.248   3.953   0.608 -0.1160 -0.1778  0.1181
13376SOL    HW142060   6.194   3.981   0.683 -0.2235 -0.3435  0.1036
13376SOL    HW242061   6.278   3.866   0.632 -1.5013 -0.9345 -0.7347
13377SOL     OW42062   1.985   5.189   2.233  0.8385 -0.5202 -0.3833
13377SOL    HW142063   1.920   5.189   2.163  0.0117  0.0302  0.3502
13377SOL    HW242064   1.997   5.282   2.254  0.4020 -0.7046  0.7751
13378SOL     OW42065   7.122   8.844   2.052 -0.3002 -0.1536  0.2345
13378SOL    HW142066   7.036   8.865   2.088  0.3893 -0.9844  2.5574
13378SOL    HW242067   7.111   8.758   2.013 -0.3708 -0.6189  1.2450
13379SOL     OW42068   7.997   4.733   1.136  0.4961 -0.6836 -0.0142
13379SOL    HW142069   7.927   4.737   1.201  0.8634 -2.5424  0.5492
13379SOL    HW242070   8.074   4.705   1.185  1.6078  1.0967 -0.6670
13380SOL     OW42071   5.079   5.151   6.186 -0.6224 -0.1800  0.1486
13380SOL    HW142072   5.081   5.246   6.200 -0.7214 -0.0600 -0.6195
13380SOL    HW242073   5.171   5.127   6.175 -0.7119  0.2151 -2.0140
13381SOL     OW42074   8.267   3.811   2.977 -0.2251  0.2354 -0.1136
13381SOL    HW142075   8.193   3.854   2.933 -0.3391  0.6034  0.4336
13381SOL    HW242076   8.328   3.882   2.997  0.5952 -0.1438 -1.1436
13382SOL     OW42077   4.314   7.035   0.821  0.5625 -0.4643  0.2162
13382SOL    HW142078   4.259   6.964   0.856 -1.3168  0.0428 -1.5066
13382SOL    HW242079   4.378   6.990   0.766  0.3273 -0.9369  0.3195
13383SOL     OW42080   1.471   0.854   8.666 -0.2638  0.0738 -0.1037
13383SOL    HW142081   1.423   0.899   8.597  0.6164  0.9761 -0.1535
13383SOL    HW242082   1.457   0.908   8.744 -0.8419 -0.6671  0.3191
13384SOL     OW42083   0.711   8.099   2.342  0.4415  0.0878  0.0570
13384SOL    HW142084   0.618   8.089   2.363  0.4823  0.6666  0.5481
13384SOL    HW242085   0.751   8.124   2.425  1.2052 -1.1484  0.0863
13385SOL     OW42086   8.588   6.814   6.501 -0.1617 -0.0165  0.2271
13385SOL    HW142087   8.552   6.725   6.491 -2.4225  1.0107 -1.9798
13385SOL    HW242088   8.647   6.824   6.426 -2.5902  1.3891 -1.6546
13386SOL     OW42089   2.873   3.521   6.456  0.5722 -0.1285 -0.6767
13386SOL    HW142090   2.899   3.505   6.547 -0.1226 -0.3372 -0.5088
13386SOL    HW242091   2.821   3.444   6.432  2.2472 -0.9599 -1.8655
13387SOL     OW42092   7.028   5.816   5.348 -0.0100 -0.7010 -0.4814
13387SOL    HW142093   7.054   5.755   5.416 -3.2988 -1.4617  0.2566
13387SOL    HW242094   6.999   5.894   5.395 -1.6133 -0.9500 -0.9968
13388SOL     OW42095   0.097   4.720   1.237 -0.0692  0.3896 -0.7164
13388SOL    HW142096   0.110   4.689   1.147 -2.7387 -0.2967 -0.9581
13388SOL    HW242097   0.056   4.806   1.228  0.6127  0.7889 -0.1228
13389SOL     OW42098   2.012   3.397   4.294  0.2243  0.3361  0.1833
13389SOL    HW142099   2.040   3.421   4.382 -0.2066  3.6911 -0.4609
13389SOL    HW242100   2.083   3.427   4.237 -0.6036  0.5363 -0.7684
13390SOL     OW42101   2.505   2.367   8.558 -0.2921  0.3680 -0.3237
13390SOL    HW142102   2.513   2.290   8.501 -1.1973 -0.0731  0.1154
13390SOL    HW242103   2.595   2.392   8.578  0.0512  0.6407 -2.0656
13391SOL     OW42104   8.719   2.835   6.271 -0.3080  0.0364 -0.1129
13391SOL    HW142105   8.735   2.775   6.198 -0.2228  0.1881 -0.2205
13391SOL    HW242106   8.682   2.780   6.340 -0.7169 -0.0472 -0.3945
13392SOL     OW42107   1.152   2.634   5.826 -0.4392 -0.4179  0.0148
13392SOL    HW142108   1.170   2.722   5.860 -0.9599 -0.0485 -0.6409
13392SOL    HW242109   1.175   2.639   5.733 -2.0033 -0.4885 -0.4000
13393SOL     OW42110   1.111   6.436   2.507 -0.1178  0.0811 -0.1228
13393SOL    HW142111   1.121   6.342   2.487  1.9819  0.7640 -2.8886
13393SOL    HW242112   1.197   6.462   2.541 -0.7704  0.9941  0.9016
13394SOL     OW42113   1.077   5.834   1.784  0.0294  0.2957  0.0301
13394SOL    HW142114   0.995   5.811   1.740 -0.4772  0.8122  0.7033
13394SOL    HW242115   1.144   5.788   1.733 -0.5140  1.0162 -1.4114
13395SOL     OW42116   3.443   2.566   4.309 -0.0042  0.4866  0.3469
13395SOL    HW142117   3.481   2.481   4.331 -0.7346 -0.0598 -0.4617
13395SOL    HW242118   3.517   2.617   4.277  0.2312 -0.2423 -0.2925
13396SOL     OW42119   4.321   7.876   5.825  0.1378 -0.2646 -0.2929
13396SOL    HW142120   4.283   7.962   5.843 -0.5094 -0.5239 -0.3921
13396SOL    HW242121   4.301   7.861   5.732 -0.1801 -0.7261 -0.1549
13397SOL     OW42122   3.270   1.030   0.961 -0.5003 -0.4071 -0.1359
13397SOL    HW142123   3.205   1.100   0.955 -0.7488 -0.4826  1.4446
13397SOL    HW242124   3.338   1.064   1.019 -0.8099 -1.6035  0.9731
13398SOL     OW42125   4.859   6.822   1.921  0.1313  0.4387  0.4733
13398SOL    HW142126   4.822   6.839   2.007 -2.7823 -0.5022 -0.4619
13398SOL    HW242127   4.911   6.742   1.932  0.9567  1.1066  1.5963
13399SOL     OW42128   7.183   4.386   4.526 -0.8913 -0.1129  0.2999
13399SOL    HW142129   7.254   4.442   4.558 -1.5591  1.5284 -0.9375
13399SOL    HW242130   7.105   4.440   4.533 -1.6886 -1.1686 -0.2414
13400SOL     OW42131   5.143   5.830   0.137 -0.0997  0.0639  0.3333
13400SOL    HW142132   5.130   5.924   0.131 -1.7930 -0.1799 -0.4495
13400SOL    HW242133   5.190   5.817   0.219 -0.3027  1.5405  0.7073
13401SOL     OW42134   3.269   8.478   3.014 -0.5885 -0.5317  0.3133
13401SOL    HW142135   3.246   8.430   3.093  1.3021  1.1740  1.9972
13401SOL    HW242136   3.360   8.454   2.996 -0.8117 -0.4550 -1.0217
13402SOL     OW42137   7.748   0.425   4.842 -0.2050 -0.2483  0.0561
13402SOL    HW142138   7.733   0.394   4.931  0.4148 -0.7173  0.0020
13402SOL    HW242139   7.705   0.360   4.786 -0.0484 -0.2962 -0.0097
13403SOL     OW42140   5.588   1.319   6.630  0.2714 -0.4157 -0.3036
13403SOL    HW142141   5.567   1.225   6.622 -0.7396 -0.2364  0.0411
13403SOL    HW242142   5.528   1.362   6.569  0.6222  0.0255 -0.3422
13404SOL     OW42143   0.050   6.288   5.883 -0.3335 -0.5723 -0.6542
13404SOL    HW142144  -0.043   6.270   5.897 -0.1426 -0.5055  0.8538
13404SOL    HW242145   0.062   6.377   5.915  0.7403 -1.4990  1.8230
13405SOL     OW42146   0.332   8.804   1.409 -0.2614 -0.0023  0.1288
13405SOL    HW142147   0.415   8.796   1.457  0.0249  0.6097 -0.2546
13405SOL    HW242148   0.285   8.723   1.429  0.4297 -0.3574  0.3558
13406SOL     OW42149   2.351   1.687   4.460 -0.1887  0.2289  0.0042
13406SOL    HW142150   2.360   1.597   4.428 -1.9976 -0.1751  0.5190
13406SOL    HW242151   2.327   1.738   4.383 -0.6049 -0.0134 -0.0294
13407SOL     OW42152   8.400   4.162   5.085 -0.1992  0.1424 -0.2556
13407SOL    HW142153   8.414   4.122   5.171  1.5125  1.4131  0.1077
13407SOL    HW242154   8.467   4.122   5.030 -0.5716  0.1597 -0.7249
13408SOL     OW42155   3.764   1.447   2.328  0.8573  0.4815  0.0852
13408SOL    HW142156   3.756   1.396   2.409  0.9521 -0.0087 -0.2106
13408SOL    HW242157   3.780   1.536   2.358  1.8461  0.1409  0.6061
13409SOL     OW42158   5.373   0.646   3.344  0.3689  0.2292  0.0189
13409SOL    HW142159   5.455   0.647   3.294  1.1604 -0.6123  1.2612
13409SOL    HW242160   5.394   0.692   3.426 -1.3370  3.0286 -0.9453
13410SOL     OW42161   2.624   2.629   0.527 -0.3421 -0.6384  0.4328
13410SOL    HW142162   2.684   2.555   0.530 -0.2878 -0.7879 -1.9945
13410SOL    HW242163   2.537   2.589   0.520 -0.3916 -0.4804  0.1139
13411SOL     OW42164   7.479   7.684   8.802 -0.1020 -0.0926  0.6464
13411SOL    HW142165   7.572   7.684   8.782 -0.4131 -0.1652 -0.9389
13411SOL    HW242166   7.469   7.621   8.874  1.0963  0.1885  1.0758
13412SOL     OW42167   6.310   7.419   2.464  0.6497 -0.1575 -0.5008
13412SOL    HW142168   6.365   7.495   2.450 -0.3572  0.6557 -0.1387
13412SOL    HW242169   6.223   7.454   2.483  0.3423 -1.3675  0.4952
13413SOL     OW42170   8.821   0.613   7.660  0.1215  0.2404 -0.2017
13413SOL    HW142171   8.770   0.692   7.644  0.3103  0.8500  1.9142
13413SOL    HW242172   8.784   0.576   7.741  1.1997 -0.8457 -0.1698
13414SOL     OW42173   1.248   4.918   4.653 -0.1276 -0.2313 -0.0049
13414SOL    HW142174   1.313   4.868   4.703  0.5579  0.8578  0.2414
13414SOL    HW242175   1.169   4.917   4.707  0.4627  0.5268  0.8971
13415SOL     OW42176   7.663   3.536   7.763  0.3484  0.3456  0.4624
13415SOL    HW142177   7.692   3.603   7.826 -0.0381  1.4475 -0.4912
13415SOL    HW242178   7.740   3.518   7.710 -0.0439  1.5874 -0.5965
13416SOL     OW42179   5.829   7.166   5.860 -0.8258  0.4553  0.6910
13416SOL    HW142180   5.881   7.244   5.840  1.9164 -1.1882  0.9760
13416SOL    HW242181   5.745   7.182   5.817  0.8718  2.0021 -2.3586
13417SOL     OW42182   2.483   6.375   2.301 -0.6890 -0.0789 -0.1295
13417SOL    HW142183   2.411   6.395   2.360  0.7114  1.6960  1.0958
13417SOL    HW242184   2.543   6.449   2.311  0.3615 -0.5125 -2.6096
13418SOL     OW42185   4.641   8.468   4.048 -0.2768 -0.0519  0.3774
13418SOL    HW142186   4.709   8.409   4.080 -1.0785 -0.0713  2.2007
13418SOL    HW242187   4.678   8.556   4.060 -0.7316 -0.0349  1.9168
13419SOL     OW42188   0.667   5.578   8.588  0.0933 -0.5855  0.7007
13419SOL    HW142189   0.645   5.604   8.499  0.1563 -1.4759  0.4134
13419SOL    HW242190   0.693   5.659   8.631 -0.8417  0.0039  0.1835
13420SOL     OW42191   3.391   5.380   0.727 -0.1880  0.4697  0.3690
13420SOL    HW142192   3.322   5.321   0.696 -0.5672  0.9668  0.2490
13420SOL    HW242193   3.470   5.326   0.727 -0.1482  0.4489 -1.5287
13421SOL     OW42194   7.037   4.756   8.621 -0.2505 -0.2723  0.6532
13421SOL    HW142195   7.088   4.731   8.544 -1.6347 -0.2284 -0.3098
13421SOL    HW242196   7.013   4.672   8.661 -0.8132 -0.3474  0.1654
13422SOL     OW42197   5.833   4.472   5.214 -0.3515 -0.0000 -0.2870
13422SOL    HW142198   5.848   4.430   5.299 -1.5243  1.1718  0.5348
13422SOL    HW242199   5.746   4.442   5.187  0.1776 -0.6874 -1.2996
13423SOL     OW42200   3.907   6.418   4.172 -0.1699  0.3479 -0.5603
13423SOL    HW142201   3.968   6.482   4.210 -2.0025  1.3541  0.9005
13423SOL    HW242202   3.874   6.460   4.093  1.9085 -0.7502 -2.0857
13424SOL     OW42203   3.858   0.941   7.092  0.5266 -0.2635  0.4480
13424SOL    HW142204   3.812   1.023   7.106 -0.8973 -1.3102  2.3791
13424SOL    HW242205   3.939   0.949   7.143 -0.3163 -0.5650  1.9007
13425SOL     OW42206   1.292   7.123   0.015  0.6759 -0.1104 -0.4912
13425SOL    HW142207   1.260   7.197   0.068  2.3118  0.8157 -0.7262
13425SOL    HW242208   1.366   7.089   0.065  0.1367 -1.4333 -0.5475
13426SOL     OW42209   3.802   1.541   6.740 -0.3599 -0.1973 -0.2505
13426SOL    HW142210   3.787   1.635   6.741  2.4041  0.3244 -0.7799
13426SOL    HW242211   3.746   1.509   6.668 -0.3660  1.2298 -0.9132
13427SOL     OW42212   0.334   0.201   2.507 -0.3460 -0.2172 -0.0534
13427SOL    HW142213   0.364   0.145   2.435 -0.2904  0.7156 -0.7815
13427SOL    HW242214   0.321   0.287   2.466  0.2209  0.4740  1.1731
13428SOL     OW42215   0.199   4.867   7.147 -0.3015  0.5448 -0.4334
13428SOL    HW142216   0.108   4.837   7.155 -0.1281 -0.3574 -1.6683
13428SOL    HW242217   0.218   4.908   7.232 -1.3196 -0.7431  0.4571
13429SOL     OW42218   2.994   7.293   6.911  0.3597 -1.0778  0.2350
13429SOL    HW142219   2.930   7.300   6.841  0.6821 -0.9145 -0.0457
13429SOL    HW242220   3.027   7.382   6.923 -0.6791 -0.8407  1.5331
13430SOL     OW42221   2.587   1.050   5.105 -0.0538 -0.1521  0.0662
13430SOL    HW142222   2.583   0.963   5.065 -0.2772 -0.0436 -0.1545
13430SOL    HW242223   2.521   1.101   5.057  1.4419  0.6954 -1.1543
13431SOL     OW42224   4.667   8.245   5.402  0.0217 -0.4318  0.1196
13431SOL    HW142225   4.682   8.331   5.442  1.1983 -0.4098 -0.3219
13431SOL    HW242226   4.694   8.182   5.470  0.6987 -0.4140 -0.1205
13432SOL     OW42227   7.177   4.539   1.824 -0.5184 -0.4725 -0.3638
13432SOL    HW142228   7.115   4.602   1.858  1.8958  1.8002  0.1431
13432SOL    HW242229   7.194   4.569   1.734 -2.2105 -2.7977 -1.5764
13433SOL     OW42230   8.093   1.583   2.186  0.6625  0.3047  0.2395
13433SOL    HW142231   8.036   1.542   2.252 -1.6543  4.0952  0.9341
13433SOL    HW242232   8.150   1.640   2.237  2.8422 -0.8577 -0.7687
13434SOL     OW42233   3.105   7.822   4.786  0.2537  0.3617  0.1836
13434SOL    HW142234   3.123   7.757   4.718 -0.5737 -0.7283  0.9749
13434SOL    HW242235   3.171   7.890   4.771  1.2411 -0.7151 -0.5878
13435SOL     OW42236   2.967   0.719   4.562  0.2952 -0.5193  0.3534
13435SOL    HW142237   2.954   0.659   4.489  1.4636  0.1021 -0.4127
13435SOL    HW242238   2.896   0.782   4.555  0.6124 -0.2383 -0.5125
13436SOL     OW42239   4.100   4.188   1.216  0.3899 -0.0279  0.2296
13436SOL    HW142240   4.062   4.156   1.298 -0.1069 -1.1120 -0.4022
13436SOL    HW242241   4.164   4.253   1.244 -0.4941  0.3698  1.4256
13437SOL     OW42242   1.413   0.798   2.706  0.1041 -0.1921  0.3072
13437SOL    HW142243   1.385   0.852   2.780 -1.7155 -0.4238 -0.1525
13437SOL    HW242244   1.390   0.849   2.629  0.8495 -0.4845 -0.1190
13438SOL     OW42245   8.389   8.606   3.409  0.3442 -0.5963  0.3288
13438SOL    HW142246   8.411   8.516   3.385  0.9527 -0.7096  1.2586
13438SOL    HW242247   8.472   8.645   3.437 -0.2070 -0.3046  1.6447
13439SOL     OW42248   6.388   6.871   1.379 -0.6702  0.1897  0.2654
13439SOL    HW142249   6.353   6.957   1.358  0.8164  1.4000  2.4556
13439SOL    HW242250   6.368   6.858   1.472  0.0182 -1.3974  0.2293
13440SOL     OW42251   0.984   4.390   7.607 -0.2691  0.3050 -0.1338
13440SOL    HW142252   0.920   4.445   7.652  0.7789 -0.8112  2.9987
13440SOL    HW242253   0.985   4.422   7.517 -2.9779  2.3293  0.4433
13441SOL     OW42254   3.987   0.968   5.622  0.3114 -0.3329  0.6070
13441SOL    HW142255   4.052   0.947   5.555 -0.9332 -1.1884 -0.3942
13441SOL    HW242256   3.946   1.049   5.591 -0.2675 -0.7300  0.3127
13442SOL     OW42257   5.750   6.869   1.743  0.2267 -0.0119  0.1615
13442SOL    HW142258   5.674   6.846   1.797  0.1795  0.5660  0.3432
13442SOL    HW242259   5.825   6.861   1.802  0.0421  1.9416  0.7091
13443SOL     OW42260   7.036   7.402   6.041  0.0684 -0.0238  0.1981
13443SOL    HW142261   6.978   7.468   6.004 -0.1722 -1.3109 -1.8711
13443SOL    HW242262   7.107   7.452   6.081 -0.7082  1.5017 -0.2508
13444SOL     OW42263   4.916   3.273   7.871  0.5080  0.2070 -0.0491
13444SOL    HW142264   4.968   3.199   7.902  0.3070  0.2914  0.5020
13444SOL    HW242265   4.919   3.266   7.775  1.7011  0.3362 -0.0357
13445SOL     OW42266   2.828   6.929   6.024  0.7107  0.0834  0.1907
13445SOL    HW142267   2.898   6.994   6.019  0.6034  0.5107  2.7469
13445SOL    HW242268   2.858   6.866   6.089 -0.3046 -1.0293 -0.3650
13446SOL     OW42269   8.401   1.099   0.304 -0.0745 -0.4290  0.2793
13446SOL    HW142270   8.445   1.023   0.268 -0.3426 -0.7184  0.5577
13446SOL    HW242271   8.463   1.171   0.292 -0.0740 -0.5632 -0.5571
13447SOL     OW42272   7.257   1.273   1.556 -0.1757 -0.3852 -0.0668
13447SOL    HW142273   7.295   1.326   1.626  0.1956 -1.5838  0.6711
13447SOL    HW242274   7.162   1.288   1.564 -0.0710  0.2822  0.0189
13448SOL     OW42275   6.562   5.744   4.384 -0.2985 -0.0645  0.1865
13448SOL    HW142276   6.552   5.800   4.308 -1.4856 -1.5678 -0.8246
13448SOL    HW242277   6.530   5.658   4.356  2.3423 -1.5636  1.3478
13449SOL     OW42278   2.693   6.893   4.114  0.2849 -0.4339 -0.3454
13449SOL    HW142279   2.664   6.983   4.103  0.7725 -0.1504  0.5881
13449SOL    HW242280   2.616   6.840   4.093  0.1823  0.1676 -1.5366
13450SOL     OW42281   0.099   6.425   8.855 -0.2042 -0.0119  0.1521
13450SOL    HW142282   0.091   6.400   8.947 -0.9294 -1.7036 -0.3327
13450SOL    HW242283   0.027   6.379   8.811  0.1850  0.6875 -1.2783
13451SOL     OW42284   0.979   3.363   3.704  0.0333  0.5251 -0.0679
13451SOL    HW142285   0.914   3.433   3.713 -0.0144  0.2179  3.5774
13451SOL    HW242286   0.953   3.298   3.770  2.1592 -1.1949 -0.8146
13452SOL     OW42287   5.317   0.765   8.552 -0.0312 -0.2028 -0.3481
13452SOL    HW142288   5.307   0.683   8.504 -0.3941  1.1215 -2.6506
13452SOL    HW242289   5.253   0.824   8.513  0.6999  1.4128  0.7783
13453SOL     OW42290   3.896   2.810   2.465  0.4800 -0.1454  0.3164
13453SOL    HW142291   3.866   2.859   2.542  1.1289 -1.7651  1.6467
13453SOL    HW242292   3.958   2.870   2.422 -0.1267  0.8999  0.8455
13454SOL     OW42293   2.028   8.119   3.920  0.2352 -0.4592  0.2368
13454SOL    HW142294   1.990   8.157   3.841  0.8104 -1.6076 -0.6386
13454SOL    HW242295   2.025   8.188   3.985  1.2442  1.0741 -1.2631
13455SOL     OW42296   8.058   3.246   5.556  0.2253  0.8902 -0.4824
13455SOL    HW142297   7.974   3.255   5.510 -0.3113 -0.5748  0.1350
13455SOL    HW242298   8.108   3.324   5.531 -0.8431  1.1739 -1.8498
13456SOL     OW42299   6.428   7.283   0.528 -0.0315 -0.7156 -0.0569
13456SOL    HW142300   6.363   7.213   0.522  1.6839 -2.5441  1.2170
13456SOL    HW242301   6.512   7.237   0.529  1.1459  1.3297  1.5187
13457SOL     OW42302   0.329   7.073   0.067 -0.3329  0.5289 -0.3903
13457SOL    HW142303   0.276   7.137   0.019  0.1041 -0.0055 -1.6330
13457SOL    HW242304   0.280   6.991   0.059 -1.0544  0.7429  1.4715
13458SOL     OW42305   1.584   4.247   5.012  0.5117 -0.1980  1.0567
13458SOL    HW142306   1.561   4.155   5.001  0.9823 -0.1343 -0.9828
13458SOL    HW242307   1.501   4.294   5.004  0.5273 -0.3403 -0.2130
13459SOL     OW42308   5.797   3.640   8.391 -0.6974 -0.6255 -0.1001
13459SOL    HW142309   5.846   3.653   8.309  0.9234 -2.3294  0.5385
13459SOL    HW242310   5.839   3.697   8.454 -0.2608 -1.2285  0.1638
13460SOL     OW42311   8.784   8.097   0.505  0.1196 -0.2219 -0.1353
13460SOL    HW142312   8.856   8.129   0.558  0.6142  1.1615 -1.5742
13460SOL    HW242313   8.768   8.166   0.441 -2.3326 -0.5793 -0.0321
13461SOL     OW42314   2.154   7.995   3.529 -0.0765  0.1086 -0.5470
13461SOL    HW142315   2.144   7.909   3.489  0.5537  0.2271 -0.9878
13461SOL    HW242316   2.067   8.017   3.561 -0.2906 -0.6021 -0.6103
13462SOL     OW42317   0.802   6.073   8.758  0.5759  0.4107 -0.6562
13462SOL    HW142318   0.896   6.074   8.775  0.4370 -1.2831  0.4172
13462SOL    HW242319   0.781   6.163   8.733  1.8865  1.7045  2.3923
13463SOL     OW42320   7.065   4.887   0.613 -0.5279 -0.2387  0.8866
13463SOL    HW142321   6.973   4.908   0.598 -0.0085  2.8027  1.3271
13463SOL    HW242322   7.078   4.901   0.707  0.8833  1.9193  0.4317
13464SOL     OW42323   0.518   2.359   7.823  0.1066 -0.4773  0.2820
13464SOL    HW142324   0.476   2.377   7.739 -1.7550 -2.4202  0.7115
13464SOL    HW242325   0.508   2.440   7.873 -1.3641 -0.2444 -0.3533
13465SOL     OW42326   2.771   5.397   4.475 -0.1889 -0.0810 -0.7465
13465SOL    HW142327   2.814   5.312   4.481 -0.3085 -0.1076 -0.1889
13465SOL    HW242328   2.693   5.380   4.421 -1.2307 -0.7677  0.8803
13466SOL     OW42329   6.262   1.085   0.778 -0.0962  0.6826  0.1266
13466SOL    HW142330   6.191   1.128   0.730  0.0325 -1.1614 -1.8761
13466SOL    HW242331   6.334   1.078   0.715  0.5296 -0.7759  0.9274
13467SOL     OW42332   8.449   3.520   4.056 -0.2305 -0.4247 -0.4780
13467SOL    HW142333   8.396   3.547   3.980 -1.0230  0.8908  0.4949
13467SOL    HW242334   8.481   3.433   4.033 -0.4732 -0.0749 -2.3070
13468SOL     OW42335   2.344   4.932   7.671 -0.6140  0.9773  0.4154
13468SOL    HW142336   2.409   4.898   7.609  0.6279  2.3283  0.9082
13468SOL    HW242337   2.283   4.982   7.618 -1.9257 -1.1781 -0.1959
13469SOL     OW42338   0.489   1.956   8.808 -0.0819  0.3612 -0.7837
13469SOL    HW142339   0.562   2.004   8.845 -0.2270  0.7002 -0.9332
13469SOL    HW242340   0.471   1.886   8.871 -1.0498  1.5826  0.3639
13470SOL     OW42341   1.397   0.211   1.336 -0.1130  0.7304  0.2855
13470SOL    HW142342   1.403   0.123   1.374 -0.1030  0.5772 -0.0667
13470SOL    HW242343   1.485   0.230   1.304  0.0246  1.1031  0.8648
13471SOL     OW42344   7.058   0.482   3.164 -0.0662  0.2397 -0.1551
13471SOL    HW142345   7.070   0.478   3.069 -1.7870 -1.6548 -0.3656
13471SOL    HW242346   7.062   0.575   3.185  1.0478  0.6477 -1.9614
13472SOL     OW42347   7.698   3.159   3.387  0.9482 -0.0423 -0.1168
13472SOL    HW142348   7.659   3.076   3.361  1.7085 -0.6161  0.5260
13472SOL    HW242349   7.743   3.189   3.308 -1.0433  0.8202 -0.9814
13473SOL     OW42350   4.425   4.676   8.194 -0.0569  0.1193 -0.1984
13473SOL    HW142351   4.416   4.641   8.283  0.3973  0.2353 -0.1031
13473SOL    HW242352   4.520   4.679   8.180 -0.1363 -1.1063 -1.1582
13474SOL     OW42353   1.486   5.706   1.375 -0.1428  0.3281 -0.0798
13474SOL    HW142354   1.452   5.775   1.318  0.1332  1.5543  1.1701
13474SOL    HW242355   1.576   5.692   1.346  0.4621  1.9415  0.8780
13475SOL     OW42356   4.969   0.682   2.053 -0.0511 -0.1119  0.3639
13475SOL    HW142357   4.896   0.736   2.083 -1.2638 -1.1347 -0.6110
13475SOL    HW242358   4.927   0.601   2.022  1.3718 -0.2375 -1.3720
13476SOL     OW42359   6.348   5.735   5.324 -0.0659  0.4502 -0.0306
13476SOL    HW142360   6.261   5.703   5.348 -0.3798  0.7320 -0.7707
13476SOL    HW242361   6.332   5.795   5.251  0.7865  0.2562 -0.3824
13477SOL     OW42362   7.903   0.099   8.749  0.4884  0.2553  0.5110
13477SOL    HW142363   7.883   0.167   8.814 -0.2380  0.6954 -0.1675
13477SOL    HW242364   7.960   0.038   8.796  0.5937  0.9689  1.3369
13478SOL     OW42365   1.878   0.550   0.220  0.2945 -0.7762  0.0819
13478SOL    HW142366   1.863   0.466   0.176  2.1744 -0.7037 -0.8030
13478SOL    HW242367   1.815   0.610   0.180 -1.4992 -1.8676  1.1636
13479SOL     OW42368   6.606   6.184   5.293  0.0368  0.2468  0.4821
13479SOL    HW142369   6.611   6.163   5.387  0.3279  1.8642  0.8536
13479SOL    HW242370   6.520   6.224   5.282 -0.6674 -1.3807 -0.2922
13480SOL     OW42371   0.719   2.662   3.845 -0.3760  0.2446 -0.5878
13480SOL    HW142372   0.639   2.711   3.826 -1.4007 -1.1179  0.0740
13480SOL    HW242373   0.746   2.626   3.760 -1.0971 -0.1980 -0.6382
13481SOL     OW42374   5.147   5.616   0.771  0.0178  0.2253 -0.3516
13481SOL    HW142375   5.074   5.620   0.833 -0.3664 -1.0112 -0.6897
13481SOL    HW242376   5.201   5.543   0.801  0.0279 -0.1466 -1.2381
13482SOL     OW42377   8.109   4.823   4.794  0.2569 -0.3442 -0.8120
13482SOL    HW142378   8.091   4.886   4.864  1.0674 -0.8694 -0.1102
13482SOL    HW242379   8.105   4.874   4.713 -1.8611  0.0490 -0.5112
13483SOL     OW42380   0.006   4.843   1.861  0.6038  0.2313 -0.1002
13483SOL    HW142381   0.079   4.781   1.862 -0.4042 -1.0303  1.5887
13483SOL    HW242382  -0.061   4.801   1.806  0.5039  0.5488 -0.2225
13484SOL     OW42383   3.801   2.182   4.778  0.0892 -0.0277 -0.1876
13484SOL    HW142384   3.853   2.202   4.700 -2.1926  2.8986 -1.1921
13484SOL    HW242385   3.717   2.151   4.743 -0.5892  0.2588  1.1206
13485SOL     OW42386   0.895   7.459   6.980 -0.0045 -0.0362 -0.3968
13485SOL    HW142387   0.922   7.546   7.010 -0.8493 -0.0255  0.3827
13485SOL    HW242388   0.807   7.472   6.945  0.6139 -0.2302 -2.0920
13486SOL     OW42389   4.796   5.540   2.558 -0.0435  0.1482 -0.7038
13486SOL    HW142390   4.872   5.482   2.555  0.5757  0.8447  0.4873
13486SOL    HW242391   4.765   5.535   2.648 -1.5157 -0.2173 -1.2000
13487SOL     OW42392   1.591   4.686   5.897 -0.0181  0.0993 -0.2435
13487SOL    HW142393   1.507   4.667   5.938  0.6492 -0.6887  0.8151
13487SOL    HW242394   1.626   4.601   5.871  1.7717 -0.0005  2.0783
13488SOL     OW42395   1.475   8.022   2.758  0.1579 -0.1936 -0.3360
13488SOL    HW142396   1.380   8.024   2.747  0.1800 -1.8398 -1.0892
13488SOL    HW242397   1.510   8.059   2.678  0.1632 -0.3413 -0.4019
13489SOL     OW42398   1.823   1.551   3.705 -0.0414 -0.0363 -0.1106
13489SOL    HW142399   1.830   1.610   3.780  3.4067  0.7841 -0.9446
13489SOL    HW242400   1.779   1.473   3.741 -0.0878  0.9899  2.2917
13490SOL     OW42401   2.871   3.649   4.614  0.1510 -0.0115 -0.2978
13490SOL    HW142402   2.838   3.627   4.526  0.6592 -0.4308 -0.3835
13490SOL    HW242403   2.963   3.669   4.601 -0.3668  2.7862 -0.3313
13491SOL     OW42404   5.810   2.560   3.931 -0.0017  0.4749 -0.2661
13491SOL    HW142405   5.758   2.503   3.987  0.9132  0.0451  0.1684
13491SOL    HW242406   5.746   2.616   3.887 -0.8915 -0.6197 -0.4070
13492SOL     OW42407   8.421   3.562   7.443  0.0732  0.0404 -0.1574
13492SOL    HW142408   8.398   3.504   7.371 -0.8568 -0.8711  0.8328
13492SOL    HW242409   8.432   3.504   7.518 -1.1235  1.1513  0.9258
13493SOL     OW42410   4.962   7.471   6.750 -0.5195  0.1725 -0.3704
13493SOL    HW142411   4.915   7.554   6.752 -0.1021  0.4578 -1.5807
13493SOL    HW242412   4.895   7.406   6.728 -0.5658  0.4146 -0.9584
13494SOL     OW42413   5.823   6.841   5.831 -0.2518 -0.2128  0.2099
13494SOL    HW142414   5.915   6.855   5.854 -0.3882 -0.5856  1.0075
13494SOL    HW242415   5.774   6.885   5.900 -0.6765 -0.2833 -0.0425
13495SOL     OW42416   2.040   5.655   7.499 -0.1659  0.2018  0.3885
13495SOL    HW142417   1.998   5.646   7.584 -0.1501 -0.6229  0.3197
13495SOL    HW242418   2.000   5.587   7.445  0.5011  0.0969  0.0130
13496SOL     OW42419   7.587   4.100   3.493 -0.1324  0.0684 -0.3370
13496SOL    HW142420   7.540   4.068   3.416  2.0874 -2.1605 -0.8809
13496SOL    HW242421   7.602   4.022   3.547  0.3856  1.1945  1.2346
13497SOL     OW42422   3.426   6.830   1.457 -0.3076 -0.4551 -0.0642
13497SOL    HW142423   3.429   6.865   1.546 -0.7398  3.1540 -1.3130
13497SOL    HW242424   3.517   6.808   1.437  0.5531  2.5335  0.0193
13498SOL     OW42425   5.402   2.644   2.451  0.4237 -0.1696 -0.4443
13498SOL    HW142426   5.321   2.695   2.448  0.7746  0.3682 -3.0243
13498SOL    HW242427   5.465   2.701   2.495 -0.5509 -0.6331  1.6863
13499SOL     OW42428   0.043   1.714   6.598  0.2048 -0.4004  0.3761
13499SOL    HW142429   0.056   1.760   6.515  0.2778 -2.2377 -0.6802
13499SOL    HW242430   0.127   1.672   6.615  0.2322  0.0804  1.4755
13500SOL     OW42431   8.023   0.411   7.375 -0.2220  0.2266  0.4812
13500SOL    HW142432   8.104   0.410   7.426 -0.6596 -0.3862  1.1887
13500SOL    HW242433   8.051   0.389   7.286  0.4175  0.2250  0.6742
13501SOL     OW42434   5.548   8.074   0.613  0.0303  0.5592  0.1604
13501SOL    HW142435   5.527   7.992   0.569  1.0802  0.2453  0.2273
13501SOL    HW242436   5.523   8.058   0.705  2.0508 -0.4189  0.5907
13502SOL     OW42437   1.641   1.956   2.951 -0.6197  0.1536  0.2221
13502SOL    HW142438   1.672   1.932   2.864  2.3497 -1.2654  1.5204
13502SOL    HW242439   1.703   2.022   2.982 -1.6267  0.6481  1.2795
13503SOL     OW42440   8.047   0.388   5.925  0.2806  0.4301 -0.2315
13503SOL    HW142441   8.018   0.317   5.983  0.1872 -0.2215 -1.0569
13503SOL    HW242442   8.113   0.348   5.869  0.1491  0.9657 -0.7848
13504SOL     OW42443   0.972   3.281   6.451  0.8445 -0.9920  0.2100
13504SOL    HW142444   0.956   3.317   6.538 -1.1183  2.2830 -1.3389
13504SOL    HW242445   0.887   3.249   6.421  1.0813 -0.4199 -1.1620
13505SOL     OW42446   0.141   8.678   3.643  0.4056 -0.1927  0.0457
13505SOL    HW142447   0.203   8.626   3.694  1.4172  1.0773  0.1624
13505SOL    HW242448   0.114   8.749   3.702  0.0757  0.1695 -0.5243
13506SOL     OW42449   0.191   8.013   6.696 -0.2935  0.1775 -0.5243
13506SOL    HW142450   0.228   8.100   6.681 -0.2947  0.4136  0.7451
13506SOL    HW242451   0.104   8.029   6.731 -0.4302 -0.3403 -0.6105
13507SOL     OW42452   8.138   5.876   1.859 -0.5026  0.0160  0.1514
13507SOL    HW142453   8.103   5.834   1.937 -1.4003  1.3666  0.5089
13507SOL    HW242454   8.202   5.939   1.893 -0.0972 -0.1477 -0.2931
13508SOL     OW42455   8.803   6.996   6.878 -0.0402 -0.1364 -0.1579
13508SOL    HW142456   8.805   6.971   6.970  0.7335 -1.1764 -0.4374
13508SOL    HW242457   8.710   7.010   6.860 -0.2391 -0.2791  0.6929
13509SOL     OW42458   1.748   8.321   6.627  0.4597 -0.4713 -0.2126
13509SOL    HW142459   1.711   8.240   6.662 -0.8230 -0.0124 -0.4738
13509SOL    HW242460   1.739   8.312   6.532  0.6243 -0.1619 -0.2599
13510SOL     OW42461   4.826   2.347   8.108  0.2297 -0.0273 -0.2152
13510SOL    HW142462   4.860   2.257   8.100 -0.1472 -0.0605 -1.8689
13510SOL    HW242463   4.866   2.381   8.188 -0.8973 -2.2176  1.3823
13511SOL     OW42464   4.107   1.172   8.314 -0.2094  0.1015  0.1975
13511SOL    HW142465   4.166   1.243   8.342 -0.0935  0.2120 -0.3266
13511SOL    HW242466   4.154   1.129   8.243 -0.3767 -0.3723  0.3696
13512SOL     OW42467   6.049   1.348   4.310 -0.8012  0.1270 -0.1922
13512SOL    HW142468   6.005   1.429   4.284 -0.4981  0.2717 -0.2645
13512SOL    HW242469   6.142   1.371   4.312 -0.5703 -0.5684 -1.5478
13513SOL     OW42470   5.930   6.623   6.505  0.2653  0.6112 -0.2300
13513SOL    HW142471   5.977   6.591   6.581 -1.3708 -0.3838  0.4245
13513SOL    HW242472   5.975   6.583   6.430  1.9071  1.6338  0.1648
13514SOL     OW42473   8.050   5.836   0.688 -0.4108 -0.8595  0.3401
13514SOL    HW142474   8.010   5.908   0.639 -3.3659 -2.7423 -0.2944
13514SOL    HW242475   8.116   5.800   0.629  0.6123  0.8343  0.3946
13515SOL     OW42476   8.665   0.904   0.071 -0.0015  0.0802 -0.3858
13515SOL    HW142477   8.592   0.890   0.131 -0.3249  0.7567 -0.6143
13515SOL    HW242478   8.641   0.982   0.021  1.0867  0.5908 -0.1532
13516SOL     OW42479   3.701   2.714   2.230 -0.8051  0.4551 -0.3940
13516SOL    HW142480   3.649   2.663   2.292  2.3432 -2.3600  0.2480
13516SOL    HW242481   3.753   2.772   2.285  0.7452 -0.8201 -0.4442
13517SOL     OW42482   1.126   1.460   2.514 -0.3730  0.9429 -0.8871
13517SOL    HW142483   1.195   1.486   2.575 -0.3333 -0.6410 -0.1906
13517SOL    HW242484   1.101   1.541   2.469 -0.0617  2.0769  0.8826
13518SOL     OW42485   8.644   1.843   6.963  0.3934 -0.2110  0.0682
13518SOL    HW142486   8.717   1.794   7.000  0.6112  0.1418  0.1098
13518SOL    HW242487   8.675   1.933   6.958 -0.9876  0.5435  2.7766
13519SOL     OW42488   3.437   7.695   0.241  0.4886  0.1859  0.3254
13519SOL    HW142489   3.509   7.633   0.228  1.3184  1.0640  0.6331
13519SOL    HW242490   3.461   7.743   0.321 -0.7245  0.1080  0.7645
13520SOL     OW42491   1.950   3.594   5.316  0.4407  0.0602  0.1644
13520SOL    HW142492   1.950   3.665   5.252  1.5287  0.6749  0.8253
13520SOL    HW242493   1.858   3.577   5.333  0.1073 -0.3971 -1.8603
13521SOL     OW42494   8.641   2.099   5.707  0.3179 -0.6336  0.4716
13521SOL    HW142495   8.628   2.168   5.642 -0.4907 -0.3902  0.8820
13521SOL    HW242496   8.609   2.020   5.664  0.5001 -0.6145  0.2964
13522SOL     OW42497   7.185   3.694   2.238 -0.3918  0.2974  0.1275
13522SOL    HW142498   7.228   3.778   2.225  0.6023  0.1031  1.8364
13522SOL    HW242499   7.250   3.629   2.209 -1.0299  0.0779 -0.8796
13523SOL     OW42500   1.580   8.058   2.504 -0.3502  0.5446  0.1421
13523SOL    HW142501   1.558   7.993   2.437 -0.2144  0.3746  0.2608
13523SOL    HW242502   1.546   8.141   2.470  0.1090  0.5373 -0.3483
13524SOL     OW42503   0.863   0.885   1.133 -0.2309 -0.1728  0.0742
13524SOL    HW142504   0.874   0.976   1.160 -0.5931  0.3962 -1.5577
13524SOL    HW242505   0.907   0.834   1.201 -0.7809  1.1555  1.4693
13525SOL     OW42506   8.507   8.078   1.113  0.1441  0.3041  0.3441
13525SOL    HW142507   8.416   8.051   1.097  0.1535  1.1002 -1.2981
13525SOL    HW242508   8.524   8.053   1.203 -1.0648 -1.6780  0.0743
13526SOL     OW42509   4.868   5.806   1.730  0.2625 -0.1235 -0.2534
13526SOL    HW142510   4.900   5.863   1.800 -0.0743 -0.0612 -0.1451
13526SOL    HW242511   4.774   5.825   1.725  0.4102  0.4037 -1.2245
13527SOL     OW42512   7.160   1.054   7.613  0.0753 -0.0186 -0.2335
13527SOL    HW142513   7.070   1.086   7.606 -0.6083 -1.9645 -1.0585
13527SOL    HW242514   7.193   1.053   7.523  0.8122  0.3445  0.0239
13528SOL     OW42515   2.060   0.469   2.672  0.0498 -0.3757  0.7345
13528SOL    HW142516   1.999   0.529   2.715 -0.8690  0.3226 -1.4176
13528SOL    HW242517   2.024   0.382   2.690 -0.4787 -0.0896  1.1148
13529SOL     OW42518   6.919   4.707   6.116  0.0713 -0.5004 -0.4638
13529SOL    HW142519   6.844   4.679   6.169 -0.2476 -0.6535 -0.9956
13529SOL    HW242520   6.937   4.633   6.058  2.3054 -1.5776  1.4029
13530SOL     OW42521   1.177   8.416   6.598 -0.0696 -0.2294 -0.3387
13530SOL    HW142522   1.113   8.353   6.563 -0.0532 -1.2840  1.3961
13530SOL    HW242523   1.125   8.474   6.654  0.2746 -0.2319 -0.0124
13531SOL     OW42524   5.507   3.133   0.398  0.2396  0.1799 -0.0343
13531SOL    HW142525   5.488   3.063   0.461 -2.9949  1.1216  0.2280
13531SOL    HW242526   5.500   3.213   0.449  2.7732  0.8464 -0.5818
13532SOL     OW42527   3.141   6.786   5.664 -0.2198 -0.6507 -0.1345
13532SOL    HW142528   3.191   6.717   5.618  0.2842 -0.1199 -0.3984
13532SOL    HW242529   3.183   6.867   5.637 -0.1594 -0.2961  0.9779
13533SOL     OW42530   7.624   4.259   2.196 -0.0259  0.0362  0.1018
13533SOL    HW142531   7.707   4.212   2.186  0.1336  0.0693  1.1839
13533SOL    HW242532   7.630   4.331   2.133  1.4572  0.9567  1.2094
13534SOL     OW42533   3.424   1.297   6.440 -0.5607  0.3682  0.6259
13534SOL    HW142534   3.422   1.315   6.346 -0.4068  0.2566  0.6011
13534SOL    HW242535   3.394   1.207   6.448 -0.5878  0.3822  0.6854
13535SOL     OW42536   6.147   7.734   0.612 -0.7127  0.1981 -0.2079
13535SOL    HW142537   6.136   7.819   0.655  1.2064  0.5527 -0.3601
13535SOL    HW242538   6.230   7.740   0.565 -0.9379 -1.4797 -0.9167
13536SOL     OW42539   0.700   4.082   7.308 -0.1744 -0.2151 -0.5370
13536SOL    HW142540   0.670   3.997   7.274  0.8505 -0.6080 -0.4840
13536SOL    HW242541   0.795   4.074   7.313 -0.2047  0.1517  1.5861
13537SOL     OW42542   2.645   6.816   7.976  0.2725 -0.1646 -0.0474
13537SOL    HW142543   2.574   6.789   7.917 -1.0651 -0.7976  1.7676
13537SOL    HW242544   2.617   6.902   8.009  0.8332  0.0241 -0.0500
13538SOL     OW42545   5.215   5.151   4.278 -0.0299  0.1900 -0.8965
13538SOL    HW142546   5.200   5.138   4.371 -2.4057 -2.4042 -1.4760
13538SOL    HW242547   5.230   5.245   4.268 -1.2169  0.7673  1.9080
13539SOL     OW42548   6.364   6.947   6.078 -0.2895  0.6438 -0.0027
13539SOL    HW142549   6.379   6.957   5.983  0.1017  1.1302  0.1065
13539SOL    HW242550   6.327   7.031   6.105 -0.7903  0.3595  0.2080
13540SOL     OW42551   1.162   0.287   6.836 -0.0328 -0.5889  0.6293
13540SOL    HW142552   1.196   0.376   6.843 -0.3715 -0.3673 -0.4022
13540SOL    HW242553   1.115   0.286   6.753 -0.8779 -1.4458  1.0957
13541SOL     OW42554   2.921   8.235   8.712 -0.1584  0.4363 -0.4546
13541SOL    HW142555   2.945   8.303   8.774 -0.7888  0.5646 -0.3421
13541SOL    HW242556   2.922   8.278   8.626  1.6160  0.0424 -0.6781
13542SOL     OW42557   0.128   6.474   0.447  0.2403  0.1873  0.5428
13542SOL    HW142558   0.088   6.409   0.390 -1.5175  0.8843  0.9029
13542SOL    HW242559   0.220   6.449   0.452 -0.1205 -1.4589 -0.3980
13543SOL     OW42560   7.340   2.235   3.242 -0.1753  0.2107 -0.4733
13543SOL    HW142561   7.410   2.278   3.192 -1.2702  1.2458 -1.1750
13543SOL    HW242562   7.283   2.307   3.269 -0.7386 -0.5722  0.4644
13544SOL     OW42563   1.790   2.986   8.219  0.2997  0.3869 -0.4214
13544SOL    HW142564   1.886   2.986   8.213  0.3307  0.5438  0.0257
13544SOL    HW242565   1.762   2.924   8.152  0.6606  1.2249 -1.3801
13545SOL     OW42566   7.261   6.597   0.783 -0.0471 -0.1892  0.1538
13545SOL    HW142567   7.208   6.561   0.854  0.1947 -1.6455 -0.3761
13545SOL    HW242568   7.352   6.589   0.813  0.0716 -1.0424 -0.4082
13546SOL     OW42569   2.914   1.470   4.608  0.2203  0.1681 -0.3591
13546SOL    HW142570   2.848   1.469   4.539  1.6456  0.4504 -1.8029
13546SOL    HW242571   2.960   1.386   4.598  0.3296  0.1338  0.3662
13547SOL     OW42572   1.679   0.643   3.159  0.0298  0.0781  0.7784
13547SOL    HW142573   1.637   0.604   3.082 -1.0023 -2.3746  2.4648
13547SOL    HW242574   1.763   0.598   3.167 -0.4182 -0.5942  1.7869
13548SOL     OW42575   4.105   2.006   1.282 -0.1472  0.2169  0.3513
13548SOL    HW142576   4.054   2.058   1.343  0.9121 -0.2252  1.6626
13548SOL    HW242577   4.140   1.934   1.334  0.6922 -0.2492 -0.7992
13549SOL     OW42578   8.179   2.327   4.783 -0.1529 -0.1371  0.1437
13549SOL    HW142579   8.094   2.329   4.827  0.0480 -0.5992  0.5761
13549SOL    HW242580   8.239   2.367   4.846  0.1220 -0.7230  0.2628
13550SOL     OW42581   6.719   5.384   2.059 -0.6134  0.3353 -0.0124
13550SOL    HW142582   6.680   5.407   1.975  0.2071 -0.2643 -0.5730
13550SOL    HW242583   6.808   5.356   2.037 -0.8558 -1.2345  0.8828
13551SOL     OW42584   1.750   1.892   6.829  0.0926  1.0177  0.2530
13551SOL    HW142585   1.749   1.988   6.834  2.7684  1.0910  1.4122
13551SOL    HW242586   1.835   1.871   6.790 -0.5550 -0.8920 -0.2315
13552SOL     OW42587   6.609   8.379   1.711  0.2278  0.0466  0.0874
13552SOL    HW142588   6.565   8.462   1.692  0.7134  0.0176 -1.2357
13552SOL    HW242589   6.623   8.381   1.806 -0.1492  1.2857  0.1368
13553SOL     OW42590   4.900   0.567   6.264  0.3125 -0.0795 -0.1331
13553SOL    HW142591   4.857   0.563   6.179  0.3443 -1.9602 -0.1147
13553SOL    HW242592   4.852   0.503   6.318 -0.1518  1.5752  1.4959
13554SOL     OW42593   0.815   1.204   2.005 -0.0446 -0.4656  0.1967
13554SOL    HW142594   0.734   1.159   1.981 -0.1147 -0.7950  1.0002
13554SOL    HW242595   0.881   1.135   2.007 -0.3213 -0.7466  2.2673
13555SOL     OW42596   2.975   4.750   2.150  0.4563  0.3591  0.0334
13555SOL    HW142597   2.887   4.720   2.128  0.5633 -1.1007  1.3752
13555SOL    HW242598   2.978   4.746   2.245  1.6206  1.4737  0.0593
13556SOL     OW42599   8.391   3.164   6.357 -0.2715  0.1905  0.1110
13556SOL    HW142600   8.306   3.154   6.400 -0.6405 -0.9805 -0.8403
13556SOL    HW242601   8.404   3.258   6.350 -1.4162  0.3775  0.4044
13557SOL     OW42602   0.593   4.631   8.520  0.6487  0.0016  0.0034
13557SOL    HW142603   0.573   4.549   8.564  2.6771 -0.4069  0.2840
13557SOL    HW242604   0.561   4.618   8.430  0.5934 -0.9450  0.1471
13558SOL     OW42605   1.474   2.822   0.603 -0.1177  0.7624 -0.1581
13558SOL    HW142606   1.546   2.822   0.540  2.1032 -1.7903  2.1307
13558SOL    HW242607   1.444   2.731   0.604  0.4809  0.5026  2.9345
13559SOL     OW42608   8.781   2.055   0.996  0.2700  0.6037 -0.0800
13559SOL    HW142609   8.874   2.073   1.013  0.6860 -1.1316 -0.3440
13559SOL    HW242610   8.761   1.979   1.051 -0.6708  0.2139 -0.9272
13560SOL     OW42611   6.493   8.415   0.402 -0.1614 -0.1003  0.2062
13560SOL    HW142612   6.562   8.446   0.460 -0.3395 -1.9194  1.4787
13560SOL    HW242613   6.505   8.465   0.321  2.5758 -0.2730  0.4224
13561SOL     OW42614   7.243   2.346   2.129  0.6859 -0.2826  0.4379
13561SOL    HW142615   7.163   2.304   2.159  1.0280 -0.4252  1.1632
13561SOL    HW242616   7.311   2.280   2.141  0.9813 -0.0263  0.2033
13562SOL     OW42617   7.694   2.114   2.628  0.1343  0.3228 -0.1256
13562SOL    HW142618   7.744   2.120   2.547 -1.1483  2.5395 -0.8356
13562SOL    HW242619   7.709   2.025   2.659  0.2299 -0.7926 -3.0726
13563SOL     OW42620   6.719   2.860   0.191  0.3020 -0.0772  0.0757
13563SOL    HW142621   6.703   2.896   0.278  0.1867  0.4276 -0.1458
13563SOL    HW242622   6.647   2.895   0.138  0.2482 -0.5639 -0.1687
13564SOL     OW42623   2.104   0.507   4.179 -0.6561 -0.1827  0.3355
13564SOL    HW142624   2.093   0.472   4.268 -2.0223 -1.2072 -0.2045
13564SOL    HW242625   2.036   0.574   4.172  0.3803  0.9148  0.5329
13565SOL     OW42626   5.455   6.130   0.546 -0.1433  0.1876  0.0361
13565SOL    HW142627   5.446   6.062   0.613  2.2313 -0.8018 -0.5370
13565SOL    HW242628   5.514   6.194   0.585 -0.3642  0.6526 -0.3758
13566SOL     OW42629   2.548   2.936   3.914 -0.2844  0.1515  0.0286
13566SOL    HW142630   2.465   2.896   3.887 -0.3932  1.0095 -0.9299
13566SOL    HW242631   2.598   2.944   3.833  1.0399 -0.9901  0.6869
13567SOL     OW42632   0.636   3.215   4.710  0.2928 -0.2129  0.4346
13567SOL    HW142633   0.541   3.218   4.699  0.5467  0.1696 -2.5934
13567SOL    HW242634   0.656   3.125   4.735 -0.7810 -0.7236 -0.4900
13568SOL     OW42635   1.281   8.078   0.182  0.2178  0.0542  0.2418
13568SOL    HW142636   1.264   8.011   0.247  2.5426 -0.4671  0.3783
13568SOL    HW242637   1.268   8.161   0.228 -1.8210 -0.2503  0.2977
13569SOL     OW42638   5.249   0.113   3.130 -0.2696  0.4645 -0.0342
13569SOL    HW142639   5.275   0.050   3.063 -0.8146 -0.9053  1.0055
13569SOL    HW242640   5.199   0.179   3.082  1.8475  1.1652 -1.4538
13570SOL     OW42641   4.432   5.331   3.581 -0.7643 -0.0883  0.0652
13570SOL    HW142642   4.496   5.291   3.640 -1.4889 -1.1806  0.1277
13570SOL    HW242643   4.485   5.376   3.515  0.0819 -1.3833 -0.1667
13571SOL     OW42644   0.345   5.395   7.637  0.2870  0.1231 -0.0781
13571SOL    HW142645   0.398   5.330   7.684  0.4696  0.5833  0.3599
13571SOL    HW242646   0.300   5.444   7.706 -0.0260  0.3125 -0.4153
13572SOL     OW42647   2.703   8.771   8.042 -0.0798  0.6031  0.2714
13572SOL    HW142648   2.782   8.808   8.081  0.1580  0.5151 -0.1236
13572SOL    HW242649   2.705   8.802   7.951 -0.3835  0.4140  0.2000
13573SOL     OW42650   4.906   5.371   8.086  0.6401  0.2506  0.9340
13573SOL    HW142651   4.830   5.338   8.134 -0.9133  0.3593 -1.3265
13573SOL    HW242652   4.971   5.302   8.095  0.0557 -0.1701  2.3081
13574SOL     OW42653   8.641   4.598   6.818 -0.1235  0.4834  0.4946
13574SOL    HW142654   8.559   4.646   6.828  0.5855  1.4538  1.8900
13574SOL    HW242655   8.629   4.518   6.869 -0.2873  0.5250  0.5189
13575SOL     OW42656   3.946   1.929   7.444  0.0595 -0.0684  0.1270
13575SOL    HW142657   3.914   1.954   7.357 -0.4777 -0.1462  0.3026
13575SOL    HW242658   3.996   1.848   7.428 -0.8067 -0.5947  0.0223
13576SOL     OW42659   5.750   5.084   2.437  0.5206  0.4634 -0.2001
13576SOL    HW142660   5.689   5.133   2.490 -0.8356 -0.3226 -0.9626
13576SOL    HW242661   5.825   5.142   2.425 -0.9294  2.2529 -0.9085
13577SOL     OW42662   5.096   1.398   6.290  0.6000  0.3710  0.0636
13577SOL    HW142663   5.018   1.452   6.272  0.2160  0.0516  0.7284
13577SOL    HW242664   5.112   1.351   6.208  1.1058  1.6872 -0.6238
13578SOL     OW42665   6.259   8.529   3.022  0.7510 -0.2297  0.3788
13578SOL    HW142666   6.295   8.606   3.067 -0.5502  0.3504  0.4644
13578SOL    HW242667   6.186   8.564   2.971  1.3497 -1.0943 -1.1517
13579SOL     OW42668   0.851   7.472   5.120 -0.3594 -0.1016  0.0773
13579SOL    HW142669   0.775   7.519   5.086 -0.2306  0.9276  1.1239
13579SOL    HW242670   0.850   7.491   5.214 -0.2610 -2.1821  0.5450
13580SOL     OW42671   3.502   7.476   8.605 -0.2829  0.1656  0.0835
13580SOL    HW142672   3.424   7.481   8.549  0.3349  0.2011 -0.8073
13580SOL    HW242673   3.484   7.405   8.666 -0.1939 -1.2437 -1.4426
13581SOL     OW42674   2.952   3.118   5.768 -0.0700  0.2629 -0.3540
13581SOL    HW142675   2.957   3.047   5.704 -1.8890  0.0781 -0.3307
13581SOL    HW242676   2.899   3.185   5.726 -0.2125  0.6843  0.4721
13582SOL     OW42677   0.404   4.930   5.880  0.1187 -0.2809  0.1409
13582SOL    HW142678   0.465   4.904   5.811  0.3630 -2.4539  1.0926
13582SOL    HW242679   0.442   4.895   5.961 -0.9984  0.7482  1.1539
13583SOL     OW42680   3.334   4.197   4.438  0.2292  0.1401 -0.0198
13583SOL    HW142681   3.244   4.221   4.419 -0.2819 -0.8071  1.0750
13583SOL    HW242682   3.333   4.101   4.441  1.5007  0.0529 -1.0039
13584SOL     OW42683   2.669   6.623   0.466 -0.1516  0.1019 -0.2163
13584SOL    HW142684   2.697   6.711   0.492  2.6668 -0.6928 -0.2608
13584SOL    HW242685   2.647   6.580   0.549  1.3057 -0.0179  0.1367
13585SOL     OW42686   1.093   0.400   4.453 -0.5888 -0.2428 -0.1993
13585SOL    HW142687   1.000   0.421   4.463  0.1045  2.8400  0.5942
13585SOL    HW242688   1.093   0.320   4.400 -3.6714  0.2245 -1.1345
13586SOL     OW42689   8.745   7.445   6.156 -0.0845 -0.4253 -0.8439
13586SOL    HW142690   8.694   7.367   6.133 -1.8730  0.4481 -0.0351
13586SOL    HW242691   8.741   7.500   6.078  1.9377 -1.4407 -1.7497
13587SOL     OW42692   6.898   6.423   6.146 -0.1520  0.2904  0.3187
13587SOL    HW142693   6.885   6.518   6.152  0.4057  0.4410 -0.6046
13587SOL    HW242694   6.845   6.397   6.070 -0.5756 -0.1930  0.7799
13588SOL     OW42695   0.210   7.144   4.181  0.3042 -0.8116  0.1495
13588SOL    HW142696   0.135   7.193   4.148  1.1042 -0.4937 -1.2893
13588SOL    HW242697   0.284   7.176   4.130  1.4260 -1.1691  1.4865
13589SOL     OW42698   6.267   4.019   7.803  0.7194 -0.2947 -0.0058
13589SOL    HW142699   6.237   3.953   7.865 -0.6259  0.1110 -0.1893
13589SOL    HW242700   6.189   4.040   7.751  1.4736  0.3908 -0.8996
13590SOL     OW42701   5.958   3.945   8.212 -0.0647  0.1161 -0.1503
13590SOL    HW142702   5.982   3.939   8.304 -1.6434 -0.2707  0.2739
13590SOL    HW242703   5.999   3.868   8.171 -0.8471 -0.7429  0.6168
13591SOL     OW42704   0.130   2.773   2.288  0.2125 -0.7770  0.1701
13591SOL    HW142705   0.140   2.862   2.321 -1.1589 -1.3325  2.2774
13591SOL    HW242706   0.103   2.722   2.365 -0.3019 -2.7602 -1.2547
13592SOL     OW42707   2.050   6.586   7.894  0.3125 -0.0107  0.0412
13592SOL    HW142708   2.001   6.594   7.976 -0.3371 -1.1612 -0.2156
13592SOL    HW242709   2.010   6.649   7.835  0.7125  0.7467  0.5626
13593SOL     OW42710   1.104   2.644   5.308  0.1993 -0.3577  0.3350
13593SOL    HW142711   1.070   2.683   5.228  1.1942  0.3583  0.2514
13593SOL    HW242712   1.188   2.606   5.283  0.7061  0.2170  1.1148
13594SOL     OW42713   7.375   8.788   3.728 -0.1582  0.5556 -0.1144
13594SOL    HW142714   7.329   8.872   3.731  0.0722  0.6595  0.6637
13594SOL    HW242715   7.306   8.723   3.741 -0.1868  0.6784  0.3716
13595SOL     OW42716   1.603   7.617   2.136 -0.0503  0.2860 -0.1112
13595SOL    HW142717   1.604   7.696   2.083 -0.6425  1.2200  1.2182
13595SOL    HW242718   1.587   7.546   2.074 -0.1221  1.2691 -1.2449
13596SOL     OW42719   3.655   1.608   0.648  0.3676 -0.2682  0.5379
13596SOL    HW142720   3.718   1.560   0.595  1.0786 -0.6578  1.6830
13596SOL    HW242721   3.570   1.578   0.618  0.7623 -0.7208 -0.1479
13597SOL     OW42722   0.686   5.238   0.463  0.3292 -0.1527 -0.2018
13597SOL    HW142723   0.596   5.241   0.429  0.6516  0.1075 -1.0523
13597SOL    HW242724   0.681   5.282   0.548 -0.4016 -0.3795 -0.1181
13598SOL     OW42725   2.446   1.244   1.133  0.3326 -0.1684 -0.0798
13598SOL    HW142726   2.415   1.288   1.213  0.3812 -0.2087 -0.0391
13598SOL    HW242727   2.399   1.288   1.062  0.8103  0.3448 -0.0850
13599SOL     OW42728   2.216   7.232   8.812  0.5687  0.0637 -0.2438
13599SOL    HW142729   2.214   7.307   8.872 -1.4813  0.7376 -1.0702
13599SOL    HW242730   2.308   7.220   8.791  0.9103  2.9228 -0.7525
13600SOL     OW42731   2.621   7.440   7.018 -0.2825  0.4764  0.6560
13600SOL    HW142732   2.664   7.361   7.051 -1.2019  0.1215  1.0699
13600SOL    HW242733   2.665   7.512   7.062 -0.7799  0.0643  1.8774
13601SOL     OW42734   1.276   7.457   7.419 -0.2954  0.0973  0.3943
13601SOL    HW142735   1.294   7.363   7.430 -1.3647 -0.2314 -0.4939
13601SOL    HW242736   1.226   7.462   7.337  2.1509  1.7394 -1.1278
13602SOL     OW42737   0.525   4.681   7.758  0.2473 -0.0108  0.1157
13602SOL    HW142738   0.570   4.615   7.811 -0.7384 -1.2088 -0.4852
13602SOL    HW242739   0.478   4.630   7.691 -0.7636  1.2902 -0.2061
13603SOL     OW42740   3.012   1.584   1.277 -0.7770 -0.3435  0.2937
13603SOL    HW142741   3.055   1.668   1.294  0.1493 -0.9390  0.9741
13603SOL    HW242742   2.955   1.571   1.352 -0.8898 -0.3443  0.2076
13604SOL     OW42743   5.310   1.531   0.667 -0.0027 -0.2465  0.9175
13604SOL    HW142744   5.397   1.557   0.697  0.4083 -1.1488  0.5372
13604SOL    HW242745   5.301   1.440   0.695  0.5653 -1.2911 -1.9174
13605SOL     OW42746   1.130   8.810   5.641 -0.3097  0.5878  0.3636
13605SOL    HW142747   1.119   8.890   5.589 -3.1255  0.5263  0.6887
13605SOL    HW242748   1.077   8.744   5.596  0.6891 -0.6823  0.9706
13606SOL     OW42749   7.226   2.886   5.934 -0.0353  0.1493 -0.3760
13606SOL    HW142750   7.180   2.817   5.981 -1.1171  0.4314 -0.9790
13606SOL    HW242751   7.297   2.841   5.888 -1.2968 -0.7452 -1.5282
13607SOL     OW42752   1.493   7.472   0.503  0.1733 -0.0971  0.1501
13607SOL    HW142753   1.488   7.526   0.582  1.1520  0.7643 -0.3607
13607SOL    HW242754   1.520   7.386   0.534  0.6131  0.2532  0.7474
13608SOL     OW42755   2.248   8.228   3.628  0.1631 -0.2414 -0.2588
13608SOL    HW142756   2.237   8.202   3.720  0.2139  0.5928 -0.0086
13608SOL    HW242757   2.215   8.153   3.578  1.4955 -1.3444  0.4070
13609SOL     OW42758   0.686   0.935   0.303 -0.5021 -0.2986  0.4418
13609SOL    HW142759   0.678   0.876   0.377 -0.9204  0.6624  1.1877
13609SOL    HW242760   0.601   0.980   0.299 -0.2699  0.1001 -0.2404
13610SOL     OW42761   1.778   1.679   1.293 -0.1134 -0.3438 -0.4357
13610SOL    HW142762   1.799   1.758   1.244 -2.1461  0.0668 -0.7451
13610SOL    HW242763   1.782   1.706   1.385  0.2390 -0.1698 -0.5003
13611SOL     OW42764   0.475   5.482   2.623 -0.2356  0.6369  0.4008
13611SOL    HW142765   0.493   5.432   2.543 -0.4264  0.7013  0.3163
13611SOL    HW242766   0.530   5.441   2.690 -3.0349 -2.0867  1.2345
13612SOL     OW42767   6.077   1.886   5.405 -0.1423 -0.1482 -0.3519
13612SOL    HW142768   6.113   1.818   5.347  1.2761 -0.6362  1.0097
13612SOL    HW242769   6.056   1.959   5.347 -0.9848 -1.4450 -1.7621
13613SOL     OW42770   5.670   0.648   2.089 -0.1148  0.3582 -0.5506
13613SOL    HW142771   5.637   0.614   2.172 -1.0212 -0.0579 -1.0670
13613SOL    HW242772   5.616   0.605   2.022  0.4848  0.8171 -1.3466
13614SOL     OW42773   8.383   3.424   5.212  0.4135 -0.1152  0.6414
13614SOL    HW142774   8.381   3.520   5.210  0.8889 -0.1096 -0.0486
13614SOL    HW242775   8.296   3.398   5.182  0.4778  0.1052  0.2520
13615SOL     OW42776   8.251   0.261   3.609  0.5277  0.2570  0.5612
13615SOL    HW142777   8.330   0.209   3.592  1.8021  1.7903  1.5081
13615SOL    HW242778   8.220   0.228   3.694  0.4185 -0.0312  0.4102
13616SOL     OW42779   2.077   2.820   4.560  0.2042 -0.0617  0.5196
13616SOL    HW142780   2.028   2.757   4.508  1.5466 -0.0885 -0.8018
13616SOL    HW242781   2.012   2.863   4.615 -1.0417 -1.1034 -0.0997
13617SOL     OW42782   3.490   4.914   7.721 -0.2017  0.2093 -0.7460
13617SOL    HW142783   3.549   4.933   7.648  0.3548  0.9132 -0.1253
13617SOL    HW242784   3.444   4.996   7.737  1.1656  0.7174  1.0024
13618SOL     OW42785   3.654   7.102   7.027 -0.2798 -0.3122  0.2470
13618SOL    HW142786   3.733   7.057   6.996  0.0463  0.3567  0.0823
13618SOL    HW242787   3.582   7.055   6.986  0.0315 -0.9485  0.4204
13619SOL     OW42788   4.396   8.794   5.967  0.1855 -0.2524 -0.3328
13619SOL    HW142789   4.459   8.813   6.036 -0.9280  0.5500  0.4963
13619SOL    HW242790   4.378   8.700   5.977  3.0427 -1.1189 -2.1752
13620SOL     OW42791   7.295   5.540   8.302  0.3022 -0.3062  0.3215
13620SOL    HW142792   7.382   5.523   8.338 -0.4919 -1.9856  1.5554
13620SOL    HW242793   7.235   5.491   8.359 -1.4562  0.7405 -0.5446
13621SOL     OW42794   8.724   1.970   6.066  0.1940 -0.0504 -0.4971
13621SOL    HW142795   8.667   1.924   6.004  0.3618 -0.6582 -0.2121
13621SOL    HW242796   8.665   1.996   6.137 -0.0499  0.8935 -1.0277
13622SOL     OW42797   1.604   1.610   6.224  0.0135 -0.3794 -0.5988
13622SOL    HW142798   1.695   1.616   6.194  0.5421 -0.3845  0.9392
13622SOL    HW242799   1.604   1.655   6.308 -1.2265 -1.1706 -0.1631
13623SOL     OW42800   3.087   6.180   1.217  0.0726 -0.3527  0.7512
13623SOL    HW142801   3.115   6.245   1.281  0.4795  0.4796 -0.2511
13623SOL    HW242802   3.165   6.126   1.202 -0.1017 -0.7197  1.1591
13624SOL     OW42803   3.928   0.793   5.126 -0.1380  0.1179  0.0454
13624SOL    HW142804   4.018   0.766   5.145  0.2560  0.1072 -1.6558
13624SOL    HW242805   3.898   0.836   5.206  0.8034 -1.3030  1.2041
13625SOL     OW42806   4.136   7.825   1.848 -0.0383  0.2451  0.2365
13625SOL    HW142807   4.048   7.795   1.829 -0.3211  1.3700 -0.3165
13625SOL    HW242808   4.189   7.746   1.848 -0.8605 -0.3209 -0.5107
13626SOL     OW42809   4.100   4.026   5.439 -0.1420 -0.1627 -0.0243
13626SOL    HW142810   4.175   3.977   5.472 -0.7700  0.0908  1.8818
13626SOL    HW242811   4.029   3.963   5.435 -0.1853 -0.0884 -0.5110
13627SOL     OW42812   8.041   3.192   7.168 -0.0441 -0.4156 -0.1414
13627SOL    HW142813   8.056   3.149   7.084 -0.9956 -1.7615  0.3388
13627SOL    HW242814   8.104   3.150   7.228  0.7185  0.6235 -0.1771
13628SOL     OW42815   7.699   4.313   7.003  0.4694  0.1651 -0.4975
13628SOL    HW142816   7.661   4.234   6.964  0.3319  0.4495 -0.9433
13628SOL    HW242817   7.770   4.280   7.058  2.1570 -0.1291 -2.6927
13629SOL     OW42818   6.567   1.176   1.221  0.0219  0.3487  0.2983
13629SOL    HW142819   6.492   1.232   1.199 -1.7107 -1.6363  0.8212
13629SOL    HW242820   6.537   1.088   1.202  2.1025 -0.5682  0.9852
13630SOL     OW42821   5.100   3.290   6.341 -0.3274 -0.1882 -0.3281
13630SOL    HW142822   5.090   3.338   6.423  1.2416 -0.0174 -0.2092
13630SOL    HW242823   5.188   3.312   6.311 -1.0260  0.1248 -2.3022
13631SOL     OW42824   1.538   5.235   4.695  0.2816 -0.5087 -0.2180
13631SOL    HW142825   1.593   5.252   4.619 -0.4931  0.0782 -0.6564
13631SOL    HW242826   1.592   5.179   4.751  1.5543  0.5358 -0.3533
13632SOL     OW42827   3.644   6.987   5.119  0.2531  0.1515  0.1182
13632SOL    HW142828   3.636   6.895   5.145  0.8746 -0.2821 -1.1479
13632SOL    HW242829   3.726   7.017   5.157  0.5264 -0.1059 -0.2648
13633SOL     OW42830   3.944   8.002   5.871  0.1233 -0.2241  0.1507
13633SOL    HW142831   3.937   7.984   5.777 -1.1031  3.4986 -0.6483
13633SOL    HW242832   4.010   8.071   5.877  0.7811 -0.9530  2.1922
13634SOL     OW42833   3.679   8.555   0.290 -0.2705  0.3780 -0.2878
13634SOL    HW142834   3.668   8.618   0.218 -0.1225 -0.1473 -0.7755
13634SOL    HW242835   3.724   8.481   0.250  1.4407  0.7994  0.7367
13635SOL     OW42836   3.870   0.541   3.103 -0.0199  0.0929  0.3739
13635SOL    HW142837   3.815   0.617   3.081  2.2718  1.3308 -1.5429
13635SOL    HW242838   3.918   0.568   3.181  1.2155  0.9403 -0.6315
13636SOL     OW42839   0.382   2.440   6.961 -0.2222  0.0751 -0.7370
13636SOL    HW142840   0.410   2.530   6.979  2.5497 -0.4462 -1.9626
13636SOL    HW242841   0.408   2.390   7.039 -0.8536  0.1202 -0.4839
13637SOL     OW42842   3.195   0.672   5.220  0.2578  0.0999  0.4369
13637SOL    HW142843   3.186   0.676   5.315  0.0070  2.9246  0.3816
13637SOL    HW242844   3.106   0.656   5.188  0.3058 -0.6172  0.6350
13638SOL     OW42845   4.305   0.612   3.425 -0.0401 -0.3661 -0.2131
13638SOL    HW142846   4.324   0.684   3.485  0.5358 -0.6056 -0.0989
13638SOL    HW242847   4.327   0.533   3.475 -0.5451 -0.6160 -0.3812
13639SOL     OW42848   1.958   8.536   4.034  0.6517  0.3329 -0.5170
13639SOL    HW142849   1.930   8.621   4.069 -0.8771  0.3488 -1.6398
13639SOL    HW242850   1.893   8.516   3.967  0.9754 -1.7424 -0.2780
13640SOL     OW42851   4.947   0.835   1.656  0.1401  0.1804 -0.0085
13640SOL    HW142852   4.955   0.889   1.734 -0.5625  1.0221 -0.4951
13640SOL    HW242853   5.003   0.878   1.591  1.1020 -0.7831  0.1484
13641SOL     OW42854   2.970   0.315   8.505 -0.0546  0.1414  0.8849
13641SOL    HW142855   2.994   0.407   8.515 -0.0026  0.0660  1.5253
13641SOL    HW242856   2.923   0.294   8.585  0.0195 -0.4178  0.7872
13642SOL     OW42857   4.592   7.722   2.630 -0.5833 -0.1192  0.3018
13642SOL    HW142858   4.550   7.745   2.713  0.0058  0.0340  0.5619
13642SOL    HW242859   4.583   7.627   2.625 -1.2901 -0.0546  0.1688
13643SOL     OW42860   5.318   7.775   8.063  0.3143 -0.2024 -0.2867
13643SOL    HW142861   5.310   7.857   8.111 -0.4594 -0.6593  0.4000
13643SOL    HW242862   5.357   7.800   7.979  0.0579  0.8662 -0.1046
13644SOL     OW42863   0.359   4.199   7.585 -0.4053 -0.3960  0.0516
13644SOL    HW142864   0.447   4.204   7.623 -0.4162  1.6416 -0.1013
13644SOL    HW242865   0.300   4.214   7.658 -0.6235 -1.2016  0.0500
13645SOL     OW42866   8.621   5.006   3.058 -0.2916 -0.0883 -0.0922
13645SOL    HW142867   8.657   4.950   3.127 -0.0824 -0.0549 -0.1725
13645SOL    HW242868   8.570   5.072   3.104  4.6728  3.8215  0.7217
13646SOL     OW42869   8.619   6.639   8.173  0.2268 -0.0804  0.6144
13646SOL    HW142870   8.672   6.719   8.177  1.7921 -1.0925  1.2160
13646SOL    HW242871   8.576   6.643   8.088  2.0863  0.3220 -0.3610
13647SOL     OW42872   8.397   0.048   6.108  0.1761  0.5430 -0.6322
13647SOL    HW142873   8.367   0.123   6.159  0.1288  0.5621 -0.6876
13647SOL    HW242874   8.330  -0.019   6.123  1.4561 -0.3634  1.4254
13648SOL     OW42875   1.552   1.927   4.404 -0.0651 -0.4868 -0.5590
13648SOL    HW142876   1.579   2.017   4.424 -1.1272  0.1258 -1.7427
13648SOL    HW242877   1.628   1.874   4.425  0.9624  0.8208 -0.8318
13649SOL     OW42878   0.023   4.007   3.456  0.4964 -0.1999  0.0533
13649SOL    HW142879   0.039   3.924   3.502 -0.3339 -1.1385 -1.2765
13649SOL    HW242880  -0.069   4.026   3.474 -0.1554 -1.1489 -2.0144
13650SOL     OW42881   5.956   2.405   7.416 -0.0070  0.3887 -0.7793
13650SOL    HW142882   6.044   2.402   7.378  0.2390 -0.2961 -0.1886
13650SOL    HW242883   5.966   2.459   7.495 -0.4691  1.6342 -1.5512
13651SOL     OW42884   4.880   1.019   8.402 -0.2355  0.5298 -0.1451
13651SOL    HW142885   4.868   0.927   8.377 -1.9334  0.9892 -1.1757
13651SOL    HW242886   4.973   1.035   8.389  0.0268 -0.9476 -0.2820
13652SOL     OW42887   7.387   4.497   0.588  0.0491 -0.2703  0.4098
13652SOL    HW142888   7.419   4.558   0.521 -1.7610 -0.4613 -0.6765
13652SOL    HW242889   7.442   4.419   0.578 -0.5293 -0.4921 -1.2280
13653SOL     OW42890   6.774   6.946   3.468  0.2255 -0.0360 -0.1758
13653SOL    HW142891   6.756   7.025   3.417 -1.1221 -0.6349 -0.6565
13653SOL    HW242892   6.794   6.879   3.402  0.2216 -0.3819  0.1742
13654SOL     OW42893   6.341   0.402   8.105 -0.2494 -0.4386  0.2323
13654SOL    HW142894   6.290   0.482   8.114 -0.4299 -0.5866  0.5207
13654SOL    HW242895   6.386   0.392   8.189 -1.2701 -1.3625  0.6866
13655SOL     OW42896   2.158   6.433   6.624 -0.4050  0.0789 -0.5006
13655SOL    HW142897   2.133   6.499   6.560 -0.3279 -0.2602 -0.8841
13655SOL    HW242898   2.245   6.404   6.596 -0.6708 -0.5813 -0.6556
13656SOL     OW42899   7.377   3.890   2.917  0.6046 -0.1554  0.3124
13656SOL    HW142900   7.341   3.808   2.883  1.4735  0.5333 -2.5420
13656SOL    HW242901   7.471   3.882   2.905  0.6811  1.3859 -0.4375
13657SOL     OW42902   7.754   6.623   2.448 -0.1081 -0.0869  1.0631
13657SOL    HW142903   7.662   6.598   2.455 -0.0207 -1.3797 -1.1759
13657SOL    HW242904   7.803   6.543   2.468  0.4516  0.0986  0.5011
13658SOL     OW42905   5.879   1.290   2.123 -0.1539  0.1366 -0.3105
13658SOL    HW142906   5.839   1.254   2.202  2.1576 -1.2822  0.3026
13658SOL    HW242907   5.860   1.225   2.055  1.0393 -0.5327 -0.0214
13659SOL     OW42908   7.782   3.573   5.998  0.0109  0.3074  0.4913
13659SOL    HW142909   7.761   3.579   5.904 -0.3930  2.0530  0.6645
13659SOL    HW242910   7.703   3.602   6.042  1.5871  4.0876  1.2152
13660SOL     OW42911   8.443   5.253   2.690 -0.0050  0.0580  0.1880
13660SOL    HW142912   8.378   5.250   2.760  0.3073 -1.2601  0.4488
13660SOL    HW242913   8.476   5.343   2.691 -0.8787  0.3817  0.9142
13661SOL     OW42914   6.497   3.463   1.210 -0.2192 -0.7857  0.3453
13661SOL    HW142915   6.562   3.393   1.198 -1.5459 -1.7760 -1.6598
13661SOL    HW242916   6.503   3.515   1.130  0.7442  1.4861  1.8099
13662SOL     OW42917   8.260   3.142   0.474 -0.0284 -0.9596  0.0077
13662SOL    HW142918   8.216   3.086   0.538 -0.1972 -0.6306  0.1830
13662SOL    HW242919   8.311   3.203   0.527 -1.4324  0.3660 -0.1049
13663SOL     OW42920   4.749   6.415   2.730 -0.4760 -0.2499  0.1953
13663SOL    HW142921   4.718   6.453   2.648 -2.1893 -1.7520  0.0730
13663SOL    HW242922   4.672   6.371   2.766  0.3488  0.0414  2.4250
13664SOL     OW42923   7.129   4.730   4.292  0.1555 -0.5113 -0.5614
13664SOL    HW142924   7.104   4.751   4.202  0.5844 -0.3279 -0.6409
13664SOL    HW242925   7.094   4.642   4.307 -0.5370 -0.2624 -0.6613
13665SOL     OW42926   7.098   6.941   2.260  0.2734  0.0966  0.4459
13665SOL    HW142927   7.044   6.896   2.196  0.2294  1.3246 -0.4129
13665SOL    HW242928   7.080   7.034   2.246  0.2971  0.4031  2.2155
13666SOL     OW42929   3.331   7.861   4.080 -0.1987  0.4879  0.5787
13666SOL    HW142930   3.391   7.936   4.087 -1.2421  1.5346 -1.0450
13666SOL    HW242931   3.383   7.794   4.036 -0.0721  1.2452 -0.4562
13667SOL     OW42932   1.288   3.342   7.665  0.3966 -0.3073  0.0115
13667SOL    HW142933   1.200   3.306   7.677  0.2759 -0.5360 -1.3457
13667SOL    HW242934   1.323   3.350   7.753 -0.9220 -0.3759  0.5703
13668SOL     OW42935   6.486   4.530   4.312 -0.2090 -0.1151  0.0589
13668SOL    HW142936   6.416   4.530   4.377 -1.9444 -2.5134 -1.6389
13668SOL    HW242937   6.464   4.602   4.252 -1.4779 -1.0361 -0.6320
13669SOL     OW42938   0.748   3.497   2.931  0.1330 -0.5000 -0.2235
13669SOL    HW142939   0.720   3.587   2.951  2.3485 -0.0483  1.1339
13669SOL    HW242940   0.671   3.444   2.951 -0.2641  0.7936  2.1931
13670SOL     OW42941   5.495   1.452   7.267  0.0812  0.2893  0.0452
13670SOL    HW142942   5.577   1.445   7.218  0.9878 -2.1556  1.7219
13670SOL    HW242943   5.431   1.485   7.203  1.8217  0.0328 -1.9320
13671SOL     OW42944   4.772   3.791   6.252 -0.0807  0.0774  0.5454
13671SOL    HW142945   4.713   3.857   6.289 -0.5665  0.3851 -0.7183
13671SOL    HW242946   4.725   3.709   6.262  0.2841 -0.0139  1.6199
13672SOL     OW42947   6.810   3.497   8.431 -0.1028  0.4537  1.0904
13672SOL    HW142948   6.741   3.458   8.376  0.5651  0.4530  0.2299
13672SOL    HW242949   6.884   3.509   8.371  1.0221 -0.5407  2.2279
13673SOL     OW42950   3.893   2.457   1.296 -0.6399 -0.5375  0.3632
13673SOL    HW142951   3.918   2.449   1.204  2.0096 -3.9766  1.1891
13673SOL    HW242952   3.963   2.509   1.335  0.5193 -2.5100  1.0562
13674SOL     OW42953   4.844   0.175   5.546 -0.4706 -0.0180  0.0167
13674SOL    HW142954   4.848   0.111   5.617 -2.0344  0.2858  0.4263
13674SOL    HW242955   4.770   0.231   5.569 -1.8341 -0.6572 -2.4286
13675SOL     OW42956   4.300   3.400   4.018 -0.6345  0.1408  0.1009
13675SOL    HW142957   4.206   3.384   4.031 -0.0945 -2.5516  1.4275
13675SOL    HW242958   4.313   3.391   3.923 -1.5727 -0.4353  0.0125
13676SOL     OW42959   0.299   5.659   5.157 -0.0047  0.0307  0.7259
13676SOL    HW142960   0.334   5.748   5.162 -0.6125  0.4071 -1.1434
13676SOL    HW242961   0.365   5.605   5.202  1.2894  1.1732  0.2619
13677SOL     OW42962   5.817   1.027   4.316 -0.1634 -0.4477 -0.5362
13677SOL    HW142963   5.858   1.028   4.230 -0.2629 -1.6050 -0.6071
13677SOL    HW242964   5.886   1.000   4.376 -0.4932 -1.2198 -0.4881
13678SOL     OW42965   6.451   7.961   1.818 -0.2793  0.2382 -0.3311
13678SOL    HW142966   6.510   7.981   1.890  1.5215 -1.1161 -1.3406
13678SOL    HW242967   6.441   8.044   1.771 -1.5989  1.1677  1.5012
13679SOL     OW42968   7.063   8.167   2.176 -0.0213  0.1807  0.0212
13679SOL    HW142969   7.143   8.170   2.125 -0.2583 -0.3978 -0.3995
13679SOL    HW242970   7.089   8.197   2.264  0.5858  0.2669 -0.1839
13680SOL     OW42971   6.258   1.287   5.008 -0.5763 -0.0762  0.5358
13680SOL    HW142972   6.217   1.285   5.094 -1.5176  0.9727  0.1373
13680SOL    HW242973   6.224   1.209   4.963 -0.4623 -0.3594  0.9333
13681SOL     OW42974   7.634   0.412   0.176 -0.3126  0.2172  0.2706
13681SOL    HW142975   7.690   0.342   0.209 -0.3082  1.3753  2.9298
13681SOL    HW242976   7.620   0.469   0.251 -2.9697  1.3596 -0.9681
13682SOL     OW42977   4.062   6.136   8.851  0.0929 -0.5789 -0.3315
13682SOL    HW142978   4.085   6.228   8.845  0.0624 -0.5086  0.5165
13682SOL    HW242979   3.968   6.133   8.829 -0.3596 -0.1463  1.3862
13683SOL     OW42980   8.849   5.284   5.881 -0.3865  0.2060  0.0133
13683SOL    HW142981   8.905   5.262   5.955 -2.3384 -1.7983  1.0070
13683SOL    HW242982   8.821   5.199   5.846 -0.6040  1.1165 -2.2073
13684SOL     OW42983   2.224   6.938   4.094 -0.1374  0.0513 -0.5260
13684SOL    HW142984   2.193   7.029   4.086  2.0081  1.0413  1.3068
13684SOL    HW242985   2.152   6.893   4.137 -1.4132  0.7310 -1.8278
13685SOL     OW42986   1.477   1.574   8.269 -0.2083  0.4444 -0.2435
13685SOL    HW142987   1.530   1.622   8.205 -0.0685 -0.8930 -1.1801
13685SOL    HW242988   1.537   1.509   8.305 -0.6528  0.3026  0.2450
13686SOL     OW42989   8.169   0.434   1.025  0.1543 -0.2129  0.6316
13686SOL    HW142990   8.177   0.419   0.931  0.4886  1.3645  0.3919
13686SOL    HW242991   8.246   0.391   1.063 -0.3119 -1.4045  0.2736
13687SOL     OW42992   0.797   0.822   4.930 -0.8859  0.6565  0.3233
13687SOL    HW142993   0.880   0.863   4.907 -2.5976  2.9065 -2.5950
13687SOL    HW242994   0.747   0.891   4.973 -2.7982  0.8603 -2.0441
13688SOL     OW42995   4.595   6.952   6.914  0.6737  0.4664 -0.3930
13688SOL    HW142996   4.619   6.968   6.823  0.5072  1.6313 -0.2474
13688SOL    HW242997   4.510   6.995   6.924  0.1176 -0.6786  0.0022
13689SOL     OW42998   6.406   4.686   7.782 -0.1235 -0.3967  0.3072
13689SOL    HW142999   6.344   4.757   7.798 -0.3526 -0.7653  1.1412
13689SOL    HW243000   6.468   4.691   7.855 -1.2378 -2.1906  1.4777
13690SOL     OW43001   2.029   2.585   1.188 -0.1069  0.3298  0.1384
13690SOL    HW143002   2.068   2.549   1.108  1.5632  0.8450  0.6769
13690SOL    HW243003   1.981   2.512   1.227 -2.0144  0.3894 -1.9436
13691SOL     OW43004   5.503   3.546   5.609 -0.0670 -0.0294  0.2044
13691SOL    HW143005   5.525   3.627   5.563  1.0192  0.3053  1.2806
13691SOL    HW243006   5.419   3.564   5.651 -0.1144  0.3315 -0.0420
13692SOL     OW43007   3.132   7.373   4.177  0.1517  0.2077  0.0761
13692SOL    HW143008   3.159   7.386   4.268  0.4567 -1.3123  0.2265
13692SOL    HW243009   3.038   7.392   4.177  0.4383  1.7359  0.3578
13693SOL     OW43010   4.289   2.335   2.539 -0.1983  0.7246 -0.4612
13693SOL    HW143011   4.300   2.265   2.604 -0.7818  0.7116 -0.3692
13693SOL    HW243012   4.253   2.291   2.462  0.7085  0.7028 -0.8786
13694SOL     OW43013   7.448   2.364   5.439 -0.4585  0.2352  0.1208
13694SOL    HW143014   7.417   2.354   5.529 -1.1089 -0.6869 -0.1867
13694SOL    HW243015   7.437   2.277   5.400  0.9209  0.3180 -0.5208
13695SOL     OW43016   3.904   0.918   6.227  0.3993  0.0362 -0.7596
13695SOL    HW143017   3.835   0.856   6.202  0.3250 -0.2133  0.0389
13695SOL    HW243018   3.920   0.900   6.319  1.3365  0.2969 -0.8657
13696SOL     OW43019   3.903   2.287   2.025 -0.3065 -0.4956  0.5564
13696SOL    HW143020   3.993   2.317   2.012 -0.7991  0.5950 -0.6193
13696SOL    HW243021   3.872   2.339   2.100 -0.6549  0.8897 -0.4922
13697SOL     OW43022   7.712   4.174   6.332 -0.2091 -0.1668  0.3404
13697SOL    HW143023   7.640   4.112   6.347  0.1748 -0.6288  0.2962
13697SOL    HW243024   7.716   4.183   6.237  1.1727 -1.8328  0.1775
13698SOL     OW43025   3.234   8.769   2.636  0.6420  0.6746 -0.1588
13698SOL    HW143026   3.140   8.789   2.631  0.5916  0.4428 -0.1883
13698SOL    HW243027   3.277   8.854   2.646  0.2382  0.6548  2.5717
13699SOL     OW43028   4.513   8.088   1.720 -0.1402 -0.2559  0.3909
13699SOL    HW143029   4.564   8.008   1.710 -0.4110 -0.3755 -0.0472
13699SOL    HW243030   4.567   8.144   1.777 -0.5696 -1.2878  1.8797
13700SOL     OW43031   1.704   4.430   2.424  0.5517 -0.2873 -0.4833
13700SOL    HW143032   1.641   4.359   2.418 -0.3362  0.5224 -0.9390
13700SOL    HW243033   1.687   4.470   2.509  0.4642 -0.0749 -0.6018
13701SOL     OW43034   7.752   8.395   5.390  0.3777  0.3552  0.3906
13701SOL    HW143035   7.755   8.339   5.312 -0.2122  2.0264 -0.8932
13701SOL    HW243036   7.758   8.334   5.463 -1.5691 -1.5308 -0.8794
13702SOL     OW43037   4.652   2.150   3.011 -0.4159 -0.6153 -0.1073
13702SOL    HW143038   4.742   2.124   3.030  0.3729 -0.7378 -3.3805
13702SOL    HW243039   4.658   2.244   2.993 -1.5369  0.0112  2.3440
13703SOL     OW43040   6.719   3.892   0.305 -0.3221  0.4055 -0.2890
13703SOL    HW143041   6.685   3.965   0.357 -2.4347 -0.8614  0.2462
13703SOL    HW243042   6.796   3.928   0.261 -0.5072  2.5494  0.9742
13704SOL     OW43043   1.986   5.097   8.842 -0.0726 -0.1799 -0.2530
13704SOL    HW143044   2.063   5.041   8.834  0.0183  0.1059 -1.5861
13704SOL    HW243045   1.923   5.060   8.780 -0.3712  0.6116 -0.4346
13705SOL     OW43046   8.204   3.736   1.004 -0.0510 -0.2039  0.1833
13705SOL    HW143047   8.233   3.646   1.014 -0.9379 -0.4441  0.6880
13705SOL    HW243048   8.110   3.730   0.990 -0.0621  0.6219 -0.2006
13706SOL     OW43049   4.512   8.347   7.144  0.6271  0.3169 -0.0842
13706SOL    HW143050   4.472   8.405   7.079 -0.3995 -1.4088 -1.0560
13706SOL    HW243051   4.458   8.268   7.143  1.0168 -0.0576  2.3786
13707SOL     OW43052   0.471   6.639   1.160  0.2090  0.1334 -0.4056
13707SOL    HW143053   0.448   6.685   1.079 -1.3036  2.4681  1.2088
13707SOL    HW243054   0.514   6.559   1.131 -0.8572  0.5439 -3.5162
13708SOL     OW43055   6.982   3.471   0.280  0.4925  0.3854  0.0949
13708SOL    HW143056   6.983   3.381   0.247 -0.2684 -0.9909  3.4115
13708SOL    HW243057   7.073   3.487   0.306  0.5542  0.4370 -0.1507
13709SOL     OW43058   7.974   3.969   5.956 -0.2940  0.5990  0.2671
13709SOL    HW143059   8.011   3.984   5.869 -1.5744  1.1476 -0.2192
13709SOL    HW243060   8.016   3.890   5.987 -0.0696  0.1901 -1.0131
13710SOL     OW43061   1.768   2.934   0.229  0.2687  0.6087 -0.7362
13710SOL    HW143062   1.819   2.864   0.188  1.0548  0.9065 -0.2705
13710SOL    HW243063   1.714   2.889   0.294  0.5388  0.3993 -0.6585
13711SOL     OW43064   6.125   8.841   6.472 -0.5799  0.2570  0.0169
13711SOL    HW143065   6.173   8.804   6.546 -2.1044 -1.5509  0.1820
13711SOL    HW243066   6.041   8.868   6.509 -0.2229  2.2181 -0.4990
13712SOL     OW43067   8.735   7.832   0.863 -0.0604  0.0896 -0.4214
13712SOL    HW143068   8.696   7.767   0.921 -1.6913  1.7395  0.4634
13712SOL    HW243069   8.750   7.786   0.781  0.1303 -1.7232  0.5957
13713SOL     OW43070   8.010   6.803   2.313  0.8808  0.3157  0.1243
13713SOL    HW143071   8.036   6.715   2.286  0.5062  0.6525 -1.4330
13713SOL    HW243072   8.012   6.800   2.409  0.5454 -1.4840  0.1141
13714SOL     OW43073   7.257   3.082   6.505 -0.0734 -0.0845  0.0981
13714SOL    HW143074   7.304   3.154   6.547  0.8760  0.1313 -1.2614
13714SOL    HW243075   7.164   3.101   6.520  0.2267 -0.2927  2.4831
13715SOL     OW43076   5.310   4.678   1.727  0.2808  0.2688 -0.6203
13715SOL    HW143077   5.305   4.595   1.774  1.2378 -0.2311 -1.3672
13715SOL    HW243078   5.220   4.697   1.701  0.0849 -0.6210 -0.5994
13716SOL     OW43079   1.429   7.723   1.047 -0.5342  0.6789  0.4623
13716SOL    HW143080   1.403   7.632   1.035 -0.6536  0.5070  1.7959
13716SOL    HW243081   1.504   7.719   1.106 -1.3621  1.4783  1.6286
13717SOL     OW43082   7.722   2.160   1.319  0.1238 -0.2922 -0.1703
13717SOL    HW143083   7.773   2.116   1.387 -1.6923 -2.4443 -0.0815
13717SOL    HW243084   7.632   2.158   1.352 -0.2416  2.3777 -0.8007
13718SOL     OW43085   8.510   7.093   2.157  0.1860  0.8538  0.3309
13718SOL    HW143086   8.430   7.146   2.161 -0.7125 -0.3188 -1.0616
13718SOL    HW243087   8.576   7.151   2.120 -0.1347  1.6936  1.0464
13719SOL     OW43088   3.275   2.061   1.463  0.0994  0.0464 -0.7729
13719SOL    HW143089   3.242   2.098   1.545 -0.0674 -2.2309  0.2522
13719SOL    HW243090   3.338   2.126   1.431 -0.5692  1.4418  0.6079
13720SOL     OW43091   0.163   7.866   3.678  0.1603  0.1140 -0.0303
13720SOL    HW143092   0.085   7.816   3.655  1.2950 -1.7534  0.0601
13720SOL    HW243093   0.140   7.910   3.760 -0.6176 -0.8422  0.2774
13721SOL     OW43094   7.589   7.369   1.201  0.0047 -0.3674 -0.4795
13721SOL    HW143095   7.611   7.453   1.160 -1.0505 -0.5872 -1.5710
13721SOL    HW243096   7.660   7.310   1.176  0.2685 -0.0430 -0.5015
13722SOL     OW43097   5.585   6.873   1.225  0.3876 -0.1516  0.1736
13722SOL    HW143098   5.667   6.920   1.208  0.1777 -0.1019 -0.7450
13722SOL    HW243099   5.562   6.898   1.315  1.6716 -0.6329  0.6638
13723SOL     OW43100   8.681   3.345   5.639  0.3091  0.2546 -0.2091
13723SOL    HW143101   8.736   3.287   5.692  0.2121  1.4412  1.2762
13723SOL    HW243102   8.607   3.290   5.611  1.1009 -0.7720 -0.3327
13724SOL     OW43103   2.054   7.168   3.969  0.6789 -0.6281 -0.0825
13724SOL    HW143104   1.993   7.186   4.041  1.8629 -0.2188  0.8707
13724SOL    HW243105   2.124   7.233   3.981  1.9888 -1.9536 -0.2860
13725SOL     OW43106   8.614   5.086   3.694 -0.2195 -0.3774  0.5276
13725SOL    HW143107   8.551   5.037   3.642  0.2565  0.6249 -1.0628
13725SOL    HW243108   8.560   5.144   3.748 -0.7115 -1.2123  0.9500
13726SOL     OW43109   4.041   6.272   4.555  0.0048  0.4175  0.1608
13726SOL    HW143110   4.125   6.227   4.553 -0.8952 -1.3930  0.8468
13726SOL    HW243111   4.034   6.305   4.645 -0.2327  0.1106  0.2576
13727SOL     OW43112   3.917   2.148   6.346  0.0540  0.0393 -0.1796
13727SOL    HW143113   3.931   2.058   6.375 -0.6781 -0.1076 -0.2749
13727SOL    HW243114   3.843   2.179   6.398  0.9778  0.9539  0.6279
13728SOL     OW43115   8.822   2.051   6.929  0.3615  0.2407 -0.3019
13728SOL    HW143116   8.834   2.144   6.944 -1.2502  0.3206  0.7424
13728SOL    HW243117   8.813   2.042   6.834 -2.2903  1.5636 -0.2502
13729SOL     OW43118   7.833   7.493   1.715 -0.6204 -0.5367  0.0807
13729SOL    HW143119   7.804   7.522   1.629  0.1851  2.1260  0.6300
13729SOL    HW243120   7.891   7.419   1.697 -0.8105 -0.3066 -1.6200
13730SOL     OW43121   0.993   4.649   0.812 -0.2512 -0.1419  0.0619
13730SOL    HW143122   1.039   4.577   0.856 -2.7778 -0.8312  1.7887
13730SOL    HW243123   1.061   4.691   0.759  1.7698 -2.5846  0.4821
13731SOL     OW43124   4.827   7.545   8.063  0.0183  0.2568 -0.4758
13731SOL    HW143125   4.830   7.453   8.088  2.6435 -0.1079 -1.7460
13731SOL    HW243126   4.886   7.589   8.124  0.7497  0.6079 -1.4015
13732SOL     OW43127   8.073   0.213   6.660  0.5588 -1.2129 -0.3978
13732SOL    HW143128   8.000   0.207   6.721  1.0732  1.3414  0.6187
13732SOL    HW243129   8.040   0.175   6.578 -2.0308  0.0848 -0.0603
13733SOL     OW43130   8.814   5.596   0.083  0.0225 -0.0464  0.0542
13733SOL    HW143131   8.862   5.658   0.138 -0.4188 -0.9282  1.4720
13733SOL    HW243132   8.817   5.635  -0.005  0.0339  1.8239  0.8370
13734SOL     OW43133   1.283   4.764   4.188  0.2787 -1.3384 -0.0058
13734SOL    HW143134   1.279   4.814   4.106  0.4102  2.6685  2.1529
13734SOL    HW243135   1.193   4.764   4.220  0.7670  0.5268  1.5354
13735SOL     OW43136   8.444   7.426   4.504  0.2687 -0.3261  0.1942
13735SOL    HW143137   8.522   7.427   4.447  1.1709 -0.9672  1.3661
13735SOL    HW243138   8.399   7.345   4.481 -1.0902  0.9115 -1.7713
13736SOL     OW43139   3.472   2.005   6.287  0.5054 -0.0517 -0.0132
13736SOL    HW143140   3.434   1.917   6.285  0.6095 -0.0955 -1.5444
13736SOL    HW243141   3.456   2.039   6.199  1.3403  1.0871  0.2618
13737SOL     OW43142   0.233   5.006   7.375 -0.1397  0.1529 -0.5121
13737SOL    HW143143   0.225   5.038   7.465  1.9161 -0.7691  0.0596
13737SOL    HW243144   0.287   5.071   7.331 -0.3444  0.1246 -0.8022
13738SOL     OW43145   1.923   7.253   6.718 -0.5400 -0.3656 -0.1953
13738SOL    HW143146   1.841   7.296   6.695 -2.7477 -4.2574 -0.4270
13738SOL    HW243147   1.902   7.199   6.794  1.8505 -1.4137 -0.1832
13739SOL     OW43148   2.455   2.282   0.371  0.6542 -0.2060  0.5122
13739SOL    HW143149   2.483   2.209   0.317  1.3808  0.1824  0.3495
13739SOL    HW243150   2.537   2.324   0.399  0.2395  1.3620 -0.5182
13740SOL     OW43151   4.832   7.030   2.309  0.2690  0.4670 -0.5772
13740SOL    HW143152   4.889   7.094   2.267  0.4673  0.4625 -0.3200
13740SOL    HW243153   4.881   7.003   2.388 -0.5848  1.3149  0.2661
13741SOL     OW43154   7.648   8.091   7.910 -0.1566 -0.1155  0.4437
13741SOL    HW143155   7.688   8.178   7.913 -1.0879  0.3606 -0.4869
13741SOL    HW243156   7.674   8.055   7.826 -1.3004  0.0284  0.0102
13742SOL     OW43157   0.595   1.455   8.335 -0.0373 -0.6762 -0.6097
13742SOL    HW143158   0.570   1.401   8.409 -2.0491  0.4826 -0.3694
13742SOL    HW243159   0.628   1.536   8.375 -4.9923  1.7308 -0.6941
13743SOL     OW43160   3.832   0.496   0.661 -0.0569 -0.0464 -0.1888
13743SOL    HW143161   3.874   0.534   0.739 -1.0770 -1.8150  1.3105
13743SOL    HW243162   3.843   0.401   0.672 -2.8159 -0.4998 -0.6421
13744SOL     OW43163   6.120   1.670   6.957  0.5513 -0.1386  0.6552
13744SOL    HW143164   6.097   1.606   6.890 -1.4791  2.3756 -1.2240
13744SOL    HW243165   6.206   1.703   6.930  1.9254 -2.3370  1.9924
13745SOL     OW43166   4.615   2.262   3.776  0.1718 -0.3374  0.2169
13745SOL    HW143167   4.583   2.353   3.776  0.3456 -0.2507 -1.2659
13745SOL    HW243168   4.705   2.268   3.743 -0.7260 -1.2831 -2.6618
13746SOL     OW43169   0.651   4.250   6.014 -0.5068  0.1644 -0.2700
13746SOL    HW143170   0.712   4.316   5.983  1.6507 -0.7800  1.6957
13746SOL    HW243171   0.689   4.167   5.984 -1.1572 -0.4070  0.4595
13747SOL     OW43172   7.577   1.102   6.840  0.3908 -0.7014 -0.6231
13747SOL    HW143173   7.524   1.074   6.914  0.6472 -1.8794 -0.8696
13747SOL    HW243174   7.664   1.116   6.876 -0.0217  1.2080 -0.2236
13748SOL     OW43175   7.151   0.614   6.761  0.1328  0.3029  0.3846
13748SOL    HW143176   7.092   0.597   6.835 -1.0389 -0.4943 -0.6902
13748SOL    HW243177   7.134   0.706   6.739 -2.0388 -0.3521 -0.9768
13749SOL     OW43178   4.428   2.105   4.570 -0.0583 -0.5572 -0.0758
13749SOL    HW143179   4.369   2.046   4.616 -0.4131  0.2234  0.4953
13749SOL    HW243180   4.371   2.169   4.527  0.3341 -0.3061 -0.2369
13750SOL     OW43181   1.743   3.147   0.785  0.0336  0.4101 -0.7628
13750SOL    HW143182   1.826   3.117   0.821 -1.1063  0.3056  2.0205
13750SOL    HW243183   1.755   3.240   0.768  0.6103  0.4854  0.0199
13751SOL     OW43184   2.853   3.460   4.081 -0.1277 -0.0027 -0.3792
13751SOL    HW143185   2.787   3.431   4.144  0.4437  1.1282  0.8021
13751SOL    HW243186   2.804   3.480   4.002 -1.4422  2.0284  0.8566
13752SOL     OW43187   8.626   2.524   8.636 -0.2256 -0.0026 -0.1770
13752SOL    HW143188   8.658   2.614   8.640  0.0865 -0.1285  0.2091
13752SOL    HW243189   8.704   2.471   8.619  0.1227 -0.4959  2.5320
13753SOL     OW43190   7.054   2.979   1.406 -0.1734  0.4135  0.0983
13753SOL    HW143191   7.094   2.892   1.416  0.5050  0.5244 -1.3936
13753SOL    HW243192   6.960   2.962   1.400  0.0618 -0.4290 -1.9240
13754SOL     OW43193   7.821   1.561   1.950  0.0000 -0.0120 -0.0670
13754SOL    HW143194   7.751   1.624   1.935  0.8282  0.8773 -0.3428
13754SOL    HW243195   7.777   1.483   1.983 -1.0770  0.6332  0.0692
13755SOL     OW43196   3.808   5.351   4.036 -0.4459 -0.5770  0.6226
13755SOL    HW143197   3.716   5.364   4.016 -0.1814 -0.4102 -0.5343
13755SOL    HW243198   3.850   5.435   4.017  0.1337 -1.0078 -0.0777
13756SOL     OW43199   0.023   2.257   2.880 -0.0559  0.3297  0.1777
13756SOL    HW143200  -0.068   2.252   2.910 -0.0705  2.1766  0.5342
13756SOL    HW243201   0.018   2.238   2.786 -0.6120 -0.9406  0.4436
13757SOL     OW43202   7.040   6.205   6.234 -0.2117  0.0160 -0.3896
13757SOL    HW143203   7.127   6.214   6.196  0.2277 -0.7146  0.4326
13757SOL    HW243204   6.994   6.284   6.205  0.7265  0.4350 -0.7941
13758SOL     OW43205   0.734   2.911   3.608 -0.1574  0.3937 -0.3588
13758SOL    HW143206   0.826   2.935   3.609  0.7246 -2.4073 -2.1900
13758SOL    HW243207   0.733   2.819   3.634 -2.4975  0.4112 -0.1532
13759SOL     OW43208   6.981   7.712   6.218  0.1242  0.8182 -0.5570
13759SOL    HW143209   6.956   7.682   6.131  0.2655  2.4079 -1.1830
13759SOL    HW243210   6.900   7.743   6.257 -0.7222 -3.3093  1.4468
13760SOL     OW43211   1.912   7.099   7.672  0.5002 -0.1907 -0.2181
13760SOL    HW143212   1.854   7.106   7.596  2.0037 -0.5311 -1.4513
13760SOL    HW243213   1.864   7.140   7.744 -1.0815 -0.1159 -1.2861
13761SOL     OW43214   5.920   7.662   8.320  0.2681  0.0108  0.1722
13761SOL    HW143215   5.872   7.741   8.343  0.6798 -0.2756  2.2337
13761SOL    HW243216   6.011   7.684   8.337  0.5607 -0.4125 -0.7961
13762SOL     OW43217   3.811   7.735   2.166  0.3368 -0.2784  0.2321
13762SOL    HW143218   3.843   7.781   2.243  2.6109  0.8527 -1.2491
13762SOL    HW243219   3.885   7.679   2.139  0.2583  0.5852 -1.9936
13763SOL     OW43220   8.488   1.505   7.082 -0.4444 -0.6968  0.0320
13763SOL    HW143221   8.455   1.578   7.029  1.3624  0.0006 -0.2356
13763SOL    HW243222   8.536   1.451   7.020 -2.1086 -2.3917  0.1544
13764SOL     OW43223   1.827   5.813   2.492  1.1491 -0.2836  0.3748
13764SOL    HW143224   1.752   5.823   2.434  1.8995  1.4096 -0.3422
13764SOL    HW243225   1.839   5.718   2.499  0.4835 -0.5455 -1.5152
13765SOL     OW43226   7.599   5.404   2.009  0.4945  0.9719  0.3543
13765SOL    HW143227   7.587   5.312   2.033 -0.4685  0.5506 -1.5713
13765SOL    HW243228   7.520   5.447   2.043  0.6881  0.9994  0.7779
13766SOL     OW43229   6.783   1.353   5.586  0.1877  0.2733 -0.0945
13766SOL    HW143230   6.698   1.342   5.543  0.3833 -1.0359 -0.1777
13766SOL    HW243231   6.834   1.405   5.524 -0.4265  0.7676 -0.2028
13767SOL     OW43232   0.106   8.649   8.046  0.0947 -0.0322 -0.0839
13767SOL    HW143233   0.128   8.727   8.097  0.8809  0.1135 -0.6295
13767SOL    HW243234   0.013   8.660   8.025  0.2045  0.7823 -0.1835
13768SOL     OW43235   2.195   8.734   6.035  0.1824  0.2162 -0.7811
13768SOL    HW143236   2.264   8.706   5.975  0.7887  0.4114 -0.1826
13768SOL    HW243237   2.230   8.813   6.076  0.2850 -0.5704  0.7099
13769SOL     OW43238   2.722   2.272   2.668  0.1616  0.6149  0.0294
13769SOL    HW143239   2.750   2.183   2.647  2.1187  1.0455  0.5932
13769SOL    HW243240   2.764   2.327   2.602  2.4764  1.4830  2.0510
13770SOL     OW43241   0.738   3.798   0.179 -0.2272  0.4541 -0.0707
13770SOL    HW143242   0.757   3.707   0.156 -0.5849 -0.0065  1.3946
13770SOL    HW243243   0.776   3.809   0.266  1.4347  2.2688 -0.9616
13771SOL     OW43244   3.844   2.816   7.490  0.2835 -0.0428  0.1013
13771SOL    HW143245   3.823   2.726   7.515 -0.8728  0.2856  0.3877
13771SOL    HW243246   3.914   2.841   7.550  1.5759 -1.1804 -0.8801
13772SOL     OW43247   5.185   3.058   5.762  0.4277  0.1237 -0.5495
13772SOL    HW143248   5.247   3.046   5.691  0.9982 -0.1599 -0.0142
13772SOL    HW243249   5.139   2.974   5.767  0.7267 -0.0265 -0.2717
13773SOL     OW43250   6.742   7.582   3.834  0.3578  0.1038 -0.0720
13773SOL    HW143251   6.808   7.576   3.765  0.3094  0.3873 -0.1442
13773SOL    HW243252   6.740   7.495   3.873 -1.1426 -0.7317 -1.8384
13774SOL     OW43253   1.580   8.430   5.016 -0.1667 -0.4396  0.4700
13774SOL    HW143254   1.504   8.406   4.963  0.6350 -0.4148 -0.7405
13774SOL    HW243255   1.582   8.526   5.011  1.0142 -0.5107 -1.1168
13775SOL     OW43256   1.495   6.410   8.770 -0.1218  0.1605  0.1735
13775SOL    HW143257   1.492   6.407   8.865 -1.8659  0.4417  0.1516
13775SOL    HW243258   1.552   6.337   8.746 -0.7986 -0.8009  1.3806
13776SOL     OW43259   7.906   8.385   1.190  0.1641  0.0232 -0.0312
13776SOL    HW143260   7.966   8.340   1.131  0.6946 -1.1756  1.3610
13776SOL    HW243261   7.958   8.456   1.228  0.1162  0.1745 -0.2451
13777SOL     OW43262   3.736   0.829   1.388  0.4760  0.3525 -0.2959
13777SOL    HW143263   3.730   0.829   1.484  0.5039 -1.4378 -0.2514
13777SOL    HW243264   3.658   0.875   1.359  0.8464  1.5746  0.5893
13778SOL     OW43265   8.323   1.783   5.501  0.5308 -0.2811 -0.2323
13778SOL    HW143266   8.308   1.836   5.422 -0.9190  0.2382  0.3682
13778SOL    HW243267   8.283   1.833   5.571  0.9955 -1.1917  0.7020
13779SOL     OW43268   7.407   3.915   1.933  0.0780 -0.5029  0.1048
13779SOL    HW143269   7.344   3.976   1.896  1.9129  2.1215  1.0518
13779SOL    HW243270   7.370   3.893   2.019  0.7808  1.7711  1.0671
13780SOL     OW43271   4.028   0.179   7.381 -0.6402  0.1779  0.0998
13780SOL    HW143272   4.053   0.094   7.416 -2.8045 -0.9615 -0.9677
13780SOL    HW243273   3.972   0.217   7.448  1.4404  1.4847  1.2192
13781SOL     OW43274   3.301   3.739   1.410 -0.2558 -0.4363 -0.7357
13781SOL    HW143275   3.257   3.808   1.460 -0.8073  0.3978 -2.3246
13781SOL    HW243276   3.362   3.700   1.473  0.5834  1.9616  0.0320
13782SOL     OW43277   0.322   3.944   2.571  0.9215 -0.2500  1.3864
13782SOL    HW143278   0.408   3.985   2.560 -0.2215  2.2426  0.9845
13782SOL    HW243279   0.323   3.872   2.509  2.3218  0.4529  0.5124
13783SOL     OW43280   2.366   6.902   1.342 -0.7740 -0.3464  0.0169
13783SOL    HW143281   2.393   6.810   1.340  0.0930 -0.0983 -0.3253
13783SOL    HW243282   2.445   6.949   1.369 -0.9345  0.3849 -0.7460
13784SOL     OW43283   0.307   7.517   1.830 -0.3806 -0.3832  0.8342
13784SOL    HW143284   0.371   7.452   1.803 -1.3623 -0.1364 -2.5436
13784SOL    HW243285   0.227   7.467   1.845 -0.9894 -0.1193 -1.2274
13785SOL     OW43286   0.846   4.386   5.755  0.9010  0.1465  0.1816
13785SOL    HW143287   0.785   4.328   5.710  0.8514  1.3254 -1.3361
13785SOL    HW243288   0.932   4.347   5.741  0.7721 -0.0696 -0.0020
13786SOL     OW43289   0.051   1.958   3.233 -0.4453 -0.1519 -0.1462
13786SOL    HW143290  -0.022   1.952   3.171 -0.3524 -0.1447 -0.2563
13786SOL    HW243291   0.022   1.907   3.309 -0.5902 -0.0974 -0.1651
13787SOL     OW43292   4.953   7.128   2.829 -0.1759 -0.0078  0.0605
13787SOL    HW143293   5.046   7.124   2.854 -0.5418  0.5710  1.6163
13787SOL    HW243294   4.915   7.049   2.867 -0.3739 -0.1484 -0.4196
13788SOL     OW43295   7.815   8.226   5.137 -0.1673 -0.1918 -0.0458
13788SOL    HW143296   7.801   8.290   5.068 -1.7046  0.9670  1.2564
13788SOL    HW243297   7.756   8.153   5.115 -1.4066  0.6070  0.5099
13789SOL     OW43298   5.262   0.429   3.458  0.7047 -0.2429  0.0702
13789SOL    HW143299   5.292   0.514   3.426 -0.2956 -0.0909 -0.4797
13789SOL    HW243300   5.307   0.366   3.403  1.5803 -0.0970  0.5871
13790SOL     OW43301   0.202   8.697   5.121  0.4309 -0.4226  0.1188
13790SOL    HW143302   0.209   8.601   5.117 -2.1809 -0.8035  1.9558
13790SOL    HW243303   0.109   8.713   5.133  0.5480  2.5166 -1.9170
13791SOL     OW43304   2.394   5.209   3.636  0.4160  0.5075 -0.6008
13791SOL    HW143305   2.312   5.168   3.608 -0.6374  1.8933  0.3502
13791SOL    HW243306   2.449   5.208   3.557  0.3664 -2.4033 -0.7071
13792SOL     OW43307   2.087   1.170   0.853  0.1523  0.0091  0.2032
13792SOL    HW143308   2.048   1.196   0.937 -0.0071  0.0921  0.1064
13792SOL    HW243309   2.116   1.080   0.866  0.2002  0.0492  0.3722
13793SOL     OW43310   8.147   8.291   8.497 -0.2208  0.2607  0.2946
13793SOL    HW143311   8.154   8.269   8.404 -1.2227 -0.6356  0.4178
13793SOL    HW243312   8.203   8.368   8.507 -0.5354  0.7167 -1.1639
13794SOL     OW43313   2.890   7.378   1.738 -0.1643 -0.1040  0.2040
13794SOL    HW143314   2.891   7.285   1.717  0.1438 -0.1910  0.5909
13794SOL    HW243315   2.858   7.383   1.828 -0.8179  0.2166 -0.0377
13795SOL     OW43316   4.922   2.899   8.836  0.1785  0.0640 -0.6426
13795SOL    HW143317   4.958   2.822   8.880 -2.2085 -0.2892  0.8878
13795SOL    HW243318   4.990   2.966   8.845  0.1442 -0.2009  3.0696
13796SOL     OW43319   3.216   2.514   8.835 -0.2999  0.2319 -0.8395
13796SOL    HW143320   3.298   2.465   8.829  0.1338  0.8086  0.0384
13796SOL    HW243321   3.222   2.558   8.920 -2.1338 -0.8175 -0.0956
13797SOL     OW43322   3.300   5.554   4.517 -0.3012 -0.0657 -0.1954
13797SOL    HW143323   3.289   5.577   4.609  0.7594  0.3632 -0.1581
13797SOL    HW243324   3.395   5.548   4.505 -0.4243 -0.0563 -1.2749
13798SOL     OW43325   3.205   6.398   2.556  0.0338  0.6077 -0.3166
13798SOL    HW143326   3.233   6.490   2.558 -0.7680  0.8536  0.1584
13798SOL    HW243327   3.237   6.362   2.639 -1.1559  0.9404  0.3195
13799SOL     OW43328   3.549   0.146   5.370 -0.4357 -0.0257 -0.3754
13799SOL    HW143329   3.492   0.194   5.430  1.6532  0.8494  1.0100
13799SOL    HW243330   3.545   0.197   5.288 -1.2972  0.2295 -0.1944
13800SOL     OW43331   0.731   2.611   7.639 -0.1484  0.2258  0.1034
13800SOL    HW143332   0.639   2.636   7.646 -0.0345  0.6924 -0.0755
13800SOL    HW243333   0.746   2.596   7.546 -0.1031 -0.0970  0.1584
13801SOL     OW43334   1.126   3.541   2.898  0.0830  0.1507  0.5690
13801SOL    HW143335   1.079   3.618   2.931 -1.7142 -0.6243 -0.0326
13801SOL    HW243336   1.076   3.466   2.931  1.1228 -0.7365  0.1946
13802SOL     OW43337   3.915   1.360   6.931 -1.1883  0.3823 -0.1988
13802SOL    HW143338   3.898   1.417   6.856  0.1531 -0.7523 -1.4270
13802SOL    HW243339   3.947   1.279   6.892  1.5780  0.4461  1.6581
13803SOL     OW43340   1.030   6.677   2.601 -0.6222  0.2312 -0.1094
13803SOL    HW143341   1.029   6.721   2.517  1.8350  0.8084  0.1082
13803SOL    HW243342   1.033   6.584   2.580 -1.4943  0.3055 -0.6111
13804SOL     OW43343   3.863   3.344   6.057 -0.4292 -0.2854  0.0383
13804SOL    HW143344   3.897   3.332   5.968 -0.4238  1.0796 -0.1724
13804SOL    HW243345   3.772   3.314   6.053 -0.3436 -0.4971 -0.3513
13805SOL     OW43346   3.665   7.849   5.770  0.0831  0.3925  0.2959
13805SOL    HW143347   3.657   7.889   5.683 -0.8801 -1.2188 -0.4038
13805SOL    HW243348   3.747   7.801   5.767 -0.9323 -1.4339 -0.5704
13806SOL     OW43349   1.763   8.774   4.943  0.2337  0.1006 -0.2824
13806SOL    HW143350   1.675   8.744   4.966 -0.9553  2.1180 -1.9192
13806SOL    HW243351   1.749   8.855   4.894  3.1430  2.0495  1.7900
13807SOL     OW43352   1.751   5.700   1.291 -0.0939  0.4942  0.0795
13807SOL    HW143353   1.782   5.633   1.230  0.1251  0.1712  0.5372
13807SOL    HW243354   1.751   5.781   1.240  1.7788  0.5678  0.1240
13808SOL     OW43355   0.543   6.364   3.616  0.0477 -0.4409  0.3542
13808SOL    HW143356   0.467   6.410   3.652  0.3612  1.3663 -1.1499
13808SOL    HW243357   0.616   6.425   3.626  0.8457 -1.2599 -0.2246
13809SOL     OW43358   1.334   3.573   2.720  0.2502 -0.4132 -0.8733
13809SOL    HW143359   1.291   3.579   2.805  0.8390 -1.8497 -0.4336
13809SOL    HW243360   1.324   3.660   2.681 -0.5420  0.0954  0.4053
13810SOL     OW43361   5.875   6.381   8.081 -0.3582  0.6861  0.2256
13810SOL    HW143362   5.908   6.303   8.036 -1.0031  0.1895  0.5931
13810SOL    HW243363   5.901   6.454   8.025  2.2806  0.4585  1.0070
13811SOL     OW43364   2.910   5.729   1.460 -0.1098  0.0705 -0.1389
13811SOL    HW143365   2.896   5.762   1.548 -0.1730 -3.0160  1.1124
13811SOL    HW243366   2.844   5.660   1.449  0.9832 -0.7663 -1.9379
13812SOL     OW43367   3.846   4.369   7.274 -0.2328 -0.0998  0.5082
13812SOL    HW143368   3.792   4.344   7.198  0.2317 -0.1597  0.1961
13812SOL    HW243369   3.788   4.423   7.328 -0.0937  1.2803 -0.6653
13813SOL     OW43370   3.729   6.856   0.844  0.0203  0.3817 -0.2536
13813SOL    HW143371   3.820   6.869   0.871  0.3949 -0.3383 -1.1287
13813SOL    HW243372   3.734   6.796   0.770 -1.1676  0.3963 -0.3662
13814SOL     OW43373   4.311   2.069   0.410  0.5405 -0.4605 -0.1620
13814SOL    HW143374   4.267   2.130   0.469 -2.7757 -1.8740 -0.9113
13814SOL    HW243375   4.327   1.991   0.463  1.8370 -0.1001 -0.0043
13815SOL     OW43376   5.518   6.716   7.007 -0.0915  0.0068 -0.7797
13815SOL    HW143377   5.532   6.682   7.096 -0.7362  1.8740  0.0850
13815SOL    HW243378   5.427   6.696   6.988 -0.8453  2.1968  0.2323
13816SOL     OW43379   5.627   5.280   2.617  0.2814 -0.0825 -0.0296
13816SOL    HW143380   5.573   5.305   2.542  1.0312 -1.1702 -0.9517
13816SOL    HW243381   5.570   5.293   2.692 -0.6701  0.5099 -0.8274
13817SOL     OW43382   1.309   6.552   4.288 -0.8718  0.1030 -0.3389
13817SOL    HW143383   1.282   6.475   4.337  1.0881  0.4607  1.4433
13817SOL    HW243384   1.368   6.519   4.220 -1.4446 -0.1198 -0.7362
13818SOL     OW43385   7.098   4.022   6.375  0.0626  0.5818  0.6097
13818SOL    HW143386   7.070   4.075   6.301 -1.8116  1.4898  1.8740
13818SOL    HW243387   7.159   4.077   6.423  0.6504  0.3039  0.1930
13819SOL     OW43388   0.618   8.446   3.371 -0.0407 -0.5541  0.4034
13819SOL    HW143389   0.615   8.541   3.386 -0.7973 -0.6669  1.1095
13819SOL    HW243390   0.691   8.416   3.424 -0.3507 -0.4690  0.8881
13820SOL     OW43391   1.991   5.798   6.117  0.4920  0.1877  0.1396
13820SOL    HW143392   1.954   5.815   6.031  0.2250 -1.1815 -0.0316
13820SOL    HW243393   1.917   5.765   6.169  0.9574 -0.3297  0.4815
13821SOL     OW43394   0.394   1.154   3.163 -0.0637  0.3481  0.3673
13821SOL    HW143395   0.339   1.232   3.152 -0.9374 -0.1390  1.1845
13821SOL    HW243396   0.476   1.187   3.199  0.0068  1.0210 -0.3787
13822SOL     OW43397   3.939   0.821   7.745  0.0235 -0.1392  0.1171
13822SOL    HW143398   3.868   0.881   7.724 -0.2777 -0.6577 -0.3666
13822SOL    HW243399   4.019   0.872   7.728 -0.2137  0.6702  1.3253
13823SOL     OW43400   8.157   2.064   0.121  0.3887 -0.4499  0.4404
13823SOL    HW143401   8.094   2.012   0.069 -1.2641  1.5935  0.2611
13823SOL    HW243402   8.108   2.091   0.198  1.9433 -1.0169  1.6824
13824SOL     OW43403   7.313   1.251   8.728 -0.0316  0.3807 -0.2353
13824SOL    HW143404   7.338   1.257   8.636 -0.6326  2.1908 -0.3115
13824SOL    HW243405   7.307   1.342   8.758 -0.2814 -0.1546  1.4835
13825SOL     OW43406   1.578   7.662   5.443  0.2153  0.0384 -0.6323
13825SOL    HW143407   1.520   7.635   5.514  1.4542 -0.6256  0.1614
13825SOL    HW243408   1.520   7.676   5.368 -0.9693 -0.4537  0.1741
13826SOL     OW43409   6.304   6.514   7.745  1.1743  0.3171 -0.0934
13826SOL    HW143410   6.269   6.591   7.699 -1.3240  1.0385  2.6531
13826SOL    HW243411   6.386   6.545   7.783  1.0469  1.0926 -0.4142
13827SOL     OW43412   6.967   7.694   5.046 -0.9154 -0.4922 -0.3247
13827SOL    HW143413   6.991   7.604   5.066 -1.4289 -0.7333 -0.7519
13827SOL    HW243414   7.047   7.744   5.058 -1.0007 -0.7288  1.4975
13828SOL     OW43415   8.520   5.698   7.586 -0.4138 -0.3499  0.3628
13828SOL    HW143416   8.517   5.628   7.520  2.2661  2.0064 -2.5952
13828SOL    HW243417   8.608   5.692   7.623  0.0323  1.6321 -0.2691
13829SOL     OW43418   8.123   4.471   1.938  0.2977  0.2498  0.0197
13829SOL    HW143419   8.065   4.546   1.929  0.7851  0.6825  0.4847
13829SOL    HW243420   8.083   4.404   1.881 -1.3332  0.1056  1.2613
13830SOL     OW43421   5.050   2.283   2.336  0.2448  0.2915  0.2389
13830SOL    HW143422   5.116   2.319   2.395  0.4947  0.3034 -0.0427
13830SOL    HW243423   4.971   2.276   2.389  0.5975 -0.1624  0.7159
13831SOL     OW43424   6.310   5.093   7.953  0.3278 -0.4950  0.4295
13831SOL    HW143425   6.392   5.075   7.906 -0.8521 -1.3647 -1.4481
13831SOL    HW243426   6.325   5.060   8.041  2.6142  1.0733  0.7394
13832SOL     OW43427   6.557   5.637   8.731 -0.2899 -0.0694 -0.2972
13832SOL    HW143428   6.495   5.709   8.739 -0.9726 -0.6239 -0.4848
13832SOL    HW243429   6.507   5.559   8.753  0.1447 -0.6152 -1.1642
13833SOL     OW43430   4.540   6.119   5.495  0.2834 -0.7305 -0.1193
13833SOL    HW143431   4.564   6.028   5.481  2.2728  0.0851 -2.5433
13833SOL    HW243432   4.484   6.141   5.421  1.3947  0.5151 -0.6191
13834SOL     OW43433   1.553   2.432   2.896 -0.1666  0.0323 -0.2618
13834SOL    HW143434   1.578   2.524   2.889 -0.3233  0.0869 -0.1344
13834SOL    HW243435   1.620   2.384   2.848 -1.3549  0.4070 -2.4534
13835SOL     OW43436   2.123   1.602   0.839  0.0975 -0.4367  0.0751
13835SOL    HW143437   2.115   1.676   0.899  0.7445 -0.4171  0.1481
13835SOL    HW243438   2.194   1.549   0.876  0.5724 -0.3678 -0.7217
13836SOL     OW43439   3.272   0.203   6.399  0.3849  0.4701 -0.0960
13836SOL    HW143440   3.356   0.242   6.375  0.6512  0.1081  0.2388
13836SOL    HW243441   3.207   0.255   6.352  0.8984 -0.2821 -1.7342
13837SOL     OW43442   0.105   8.809   8.840 -0.0846  0.7088 -0.0931
13837SOL    HW143443   0.080   8.723   8.806  0.3269  0.8105 -0.6596
13837SOL    HW243444   0.189   8.794   8.884  0.8351  1.1318 -1.6454
13838SOL     OW43445   2.532   4.038   0.671  0.0752  0.1757 -0.6644
13838SOL    HW143446   2.533   4.121   0.718 -0.7636 -0.1438 -0.0451
13838SOL    HW243447   2.527   4.062   0.578 -1.3413  0.8332 -0.4357
13839SOL     OW43448   6.667   1.898   6.018  0.5211  0.5990  0.2249
13839SOL    HW143449   6.593   1.945   6.056  1.6642  1.2234  1.8471
13839SOL    HW243450   6.630   1.846   5.947 -1.6348  0.1391  1.5924
13840SOL     OW43451   4.307   4.927   8.303 -0.1035 -0.7837 -0.7979
13840SOL    HW143452   4.333   4.987   8.233 -0.4933 -1.6117 -1.6793
13840SOL    HW243453   4.374   4.859   8.303 -1.3664 -2.0988 -2.0450
13841SOL     OW43454   6.639   4.997   0.540 -0.2226 -0.3423 -0.1360
13841SOL    HW143455   6.723   5.042   0.539 -0.3130 -0.1740 -0.6292
13841SOL    HW243456   6.614   4.994   0.632 -0.6880  1.5101 -0.1580
13842SOL     OW43457   3.022   0.907   3.930 -0.1617 -0.1794 -0.2247
13842SOL    HW143458   2.982   0.884   4.014 -0.1143 -1.0414 -0.4260
13842SOL    HW243459   3.113   0.927   3.951 -0.6838  1.8884  0.2513
13843SOL     OW43460   5.118   1.364   1.813 -0.0562 -0.4109 -0.4462
13843SOL    HW143461   5.111   1.417   1.734  0.3218 -1.4872 -1.2140
13843SOL    HW243462   5.144   1.427   1.881 -0.6819  0.5762 -1.0956
13844SOL     OW43463   3.180   1.696   6.078 -0.0815 -1.0353  0.1376
13844SOL    HW143464   3.092   1.670   6.053 -1.4789  0.7893  2.6664
13844SOL    HW243465   3.191   1.784   6.041  0.4065 -0.9608  0.4449
13845SOL     OW43466   0.403   6.201   2.267 -0.1083  0.0628  0.1890
13845SOL    HW143467   0.434   6.252   2.193  0.3146 -0.5561 -0.0656
13845SOL    HW243468   0.418   6.257   2.343  0.3737  0.3115 -0.0882
13846SOL     OW43469   8.038   4.094   1.380 -0.8780  0.2414  0.2556
13846SOL    HW143470   8.035   4.171   1.438 -2.0836 -0.7230  1.5340
13846SOL    HW243471   7.998   4.125   1.298 -0.4315  1.2403  0.3974
13847SOL     OW43472   0.390   3.093   4.833 -0.0980 -0.2049  0.5684
13847SOL    HW143473   0.434   3.099   4.918  1.9996 -1.0337 -0.3770
13847SOL    HW243474   0.306   3.137   4.846  1.2601  2.1019  2.3310
13848SOL     OW43475   1.602   4.356   3.777 -0.1165  0.5226 -0.0302
13848SOL    HW143476   1.599   4.404   3.694  0.3122 -0.9989 -0.9674
13848SOL    HW243477   1.556   4.274   3.759 -0.5360  0.3984  1.4253
13849SOL     OW43478   3.674   0.818   7.294 -0.0596 -0.2871  0.5668
13849SOL    HW143479   3.623   0.896   7.272 -0.9271 -0.6884  1.1008
13849SOL    HW243480   3.737   0.810   7.223  0.4699  1.2644  0.8417
13850SOL     OW43481   4.924   0.263   6.890  0.8608  0.1497 -0.0347
13850SOL    HW143482   4.866   0.336   6.867 -2.6674 -2.2095  0.5927
13850SOL    HW243483   4.945   0.221   6.807  0.8307  0.4085 -0.1744
13851SOL     OW43484   1.622   3.664   0.234 -0.1881 -0.1955 -1.1051
13851SOL    HW143485   1.682   3.636   0.302 -0.7582  1.8569  0.3446
13851SOL    HW243486   1.635   3.602   0.163  2.1004 -1.0336 -0.0344
13852SOL     OW43487   0.001   1.980   1.578  0.4360  0.1674  0.2512
13852SOL    HW143488  -0.003   1.887   1.553  2.1056  0.2982 -0.6755
13852SOL    HW243489  -0.017   2.028   1.498 -0.7067  0.6836  0.7897
13853SOL     OW43490   0.098   0.926   6.479  0.1518 -0.0718  0.5683
13853SOL    HW143491   0.091   0.856   6.414 -1.1703 -0.3156  0.9494
13853SOL    HW243492   0.155   0.991   6.437  1.0637 -1.1605  0.0382
13854SOL     OW43493   1.925   7.966   5.370  0.4598 -0.4526 -0.2702
13854SOL    HW143494   2.013   8.004   5.374  0.1746  0.2674 -0.7195
13854SOL    HW243495   1.866   8.038   5.388 -0.0036 -1.3905  2.3585
13855SOL     OW43496   7.622   4.706   3.797 -0.0297 -0.0179 -0.2810
13855SOL    HW143497   7.532   4.695   3.828  1.2943 -1.7862  3.6184
13855SOL    HW243498   7.637   4.631   3.740 -0.6767 -0.4328  0.0716
13856SOL     OW43499   0.821   0.098   1.439  0.3694  0.2685 -0.2487
13856SOL    HW143500   0.892   0.149   1.400  0.4024  0.1288 -0.3735
13856SOL    HW243501   0.862   0.017   1.468  0.1002 -0.2270 -1.1854
13857SOL     OW43502   2.377   6.469   3.392  0.6673 -0.0919 -0.4008
13857SOL    HW143503   2.382   6.377   3.369  3.3306 -0.1097 -0.0784
13857SOL    HW243504   2.428   6.513   3.324  0.9776  0.9128  0.4565
13858SOL     OW43505   1.748   7.207   7.892 -0.1317 -0.4456  0.4345
13858SOL    HW143506   1.678   7.194   7.956 -1.1925 -0.7929 -0.7473
13858SOL    HW243507   1.724   7.288   7.847 -0.8587 -1.5472 -1.2645
13859SOL     OW43508   1.033   3.900   5.827 -0.2362  0.4969  0.3441
13859SOL    HW143509   1.113   3.893   5.880  0.2088  0.2638 -0.3449
13859SOL    HW243510   1.053   3.851   5.747 -0.3490  2.0664 -0.6930
13860SOL     OW43511   7.275   4.310   2.353  0.2125  0.1963  0.0349
13860SOL    HW143512   7.325   4.271   2.282 -0.4265 -0.4252 -0.0846
13860SOL    HW243513   7.244   4.393   2.317  0.3025  0.1087 -0.2512
13861SOL     OW43514   4.467   4.473   5.141 -0.9778 -0.5419  0.0037
13861SOL    HW143515   4.443   4.558   5.105  0.8596  0.8364  1.7906
13861SOL    HW243516   4.424   4.470   5.227 -0.6297 -1.2019  0.1618
13862SOL     OW43517   3.005   2.537   8.478 -0.0294  0.6401  0.0487
13862SOL    HW143518   3.064   2.596   8.525 -1.0687  0.5760  1.4833
13862SOL    HW243519   2.930   2.592   8.455  0.0113  0.4124 -0.6612
13863SOL     OW43520   2.859   3.447   0.212 -0.0395  0.0101 -0.0936
13863SOL    HW143521   2.823   3.468   0.126 -0.0672 -2.3604 -0.7260
13863SOL    HW243522   2.936   3.393   0.193  0.2165 -0.1617  1.3561
13864SOL     OW43523   5.803   7.557   7.820 -0.4107  0.4039 -0.8086
13864SOL    HW143524   5.714   7.539   7.851 -0.1203 -0.6699 -0.5558
13864SOL    HW243525   5.845   7.604   7.892  0.2345 -2.0072  0.4884
13865SOL     OW43526   5.626   7.735   5.688  0.3278 -0.4479 -0.2468
13865SOL    HW143527   5.552   7.683   5.720 -0.0322 -0.1584 -0.5873
13865SOL    HW243528   5.660   7.685   5.614  0.6172 -0.6961  0.0565
13866SOL     OW43529   5.901   0.264   8.358 -0.2289  0.2921 -1.2011
13866SOL    HW143530   5.993   0.276   8.334  0.6023  0.1144  1.5330
13866SOL    HW243531   5.900   0.182   8.408 -2.7063 -2.1071 -4.7415
13867SOL     OW43532   3.571   8.720   1.607 -0.4298  0.2761 -0.3518
13867SOL    HW143533   3.653   8.679   1.579 -0.5152 -0.9921  1.1257
13867SOL    HW243534   3.502   8.661   1.576 -0.4872 -1.8339  3.2893
13868SOL     OW43535   0.271   4.433   2.061  0.0277 -0.2970 -0.4073
13868SOL    HW143536   0.275   4.447   2.155 -1.8099 -1.6570 -0.0780
13868SOL    HW243537   0.356   4.393   2.038 -0.0294 -1.2013  0.8962
13869SOL     OW43538   4.520   3.061   7.743  0.1205  0.4573 -0.4436
13869SOL    HW143539   4.565   3.125   7.687  1.6152 -0.5268 -0.4211
13869SOL    HW243540   4.566   2.979   7.728 -0.2714 -0.1220  1.2723
13870SOL     OW43541   1.670   0.200   5.393  0.1309 -0.1508 -0.2468
13870SOL    HW143542   1.606   0.142   5.433 -1.4165  2.6973  1.7704
13870SOL    HW243543   1.637   0.216   5.305 -1.5521  0.5941  0.4798
13871SOL     OW43544   7.494   0.540   2.163  0.3876 -0.1265  0.1026
13871SOL    HW143545   7.421   0.532   2.224 -0.9051 -1.2730 -1.5175
13871SOL    HW243546   7.464   0.601   2.096  0.9271 -0.5579 -0.5516
13872SOL     OW43547   0.022   5.162   3.291 -0.1672 -0.2789 -0.5833
13872SOL    HW143548   0.025   5.106   3.214  2.1195  0.7619 -1.3598
13872SOL    HW243549   0.099   5.137   3.342 -0.1749  0.8415  0.0115
13873SOL     OW43550   6.538   2.013   2.688 -0.0256 -0.2106  0.2184
13873SOL    HW143551   6.607   1.977   2.744  0.3212  3.6570  2.6866
13873SOL    HW243552   6.457   1.986   2.729  0.1699 -0.0188  0.7369
13874SOL     OW43553   6.374   7.777   0.476  0.0257  0.3713 -0.7315
13874SOL    HW143554   6.363   7.839   0.404 -1.0758  0.0514 -0.8480
13874SOL    HW243555   6.460   7.739   0.461 -0.0064  0.6279 -1.6270
13875SOL     OW43556   4.008   0.597   7.236  0.1062 -0.1074  0.1244
13875SOL    HW143557   4.018   0.631   7.324  0.7744  2.5509 -0.9067
13875SOL    HW243558   3.964   0.512   7.248 -0.0133  0.2747  2.9475
13876SOL     OW43559   3.616   5.741   6.231  0.1018  0.2583  0.5781
13876SOL    HW143560   3.571   5.787   6.302 -1.9756 -0.8219  0.0609
13876SOL    HW243561   3.693   5.702   6.272 -0.8161  0.0318  2.1486
13877SOL     OW43562   0.749   1.257   1.521  0.8581 -0.1280 -0.1234
13877SOL    HW143563   0.772   1.325   1.585 -3.5438  1.1250  0.4408
13877SOL    HW243564   0.735   1.305   1.439 -0.2259 -0.6266 -0.2529
13878SOL     OW43565   5.107   6.235   8.025  0.8390  0.2065  0.3189
13878SOL    HW143566   5.137   6.284   8.102  1.7671 -0.2408  0.2580
13878SOL    HW243567   5.144   6.148   8.037 -0.5787 -0.4267  0.2980
13879SOL     OW43568   7.469   0.269   8.241 -0.2201  0.0740 -0.0820
13879SOL    HW143569   7.479   0.228   8.155 -0.5625 -0.2814  0.0431
13879SOL    HW243570   7.556   0.264   8.280 -0.1603 -0.1448 -0.2402
13880SOL     OW43571   4.840   8.429   8.073 -0.1569 -0.1467  0.0585
13880SOL    HW143572   4.808   8.383   7.996  0.2017  1.7837 -1.3138
13880SOL    HW243573   4.934   8.439   8.058 -0.1539  0.6267  0.5145
13881SOL     OW43574   0.285   3.461   8.683 -0.2875 -0.5184  0.5240
13881SOL    HW143575   0.251   3.483   8.597 -2.0045 -1.6211  0.8562
13881SOL    HW243576   0.372   3.501   8.686 -1.5521  2.6247 -0.3654
13882SOL     OW43577   7.302   5.059   3.881 -0.0254 -0.2085  0.0690
13882SOL    HW143578   7.218   5.019   3.902 -0.2623  0.0788 -0.3065
13882SOL    HW243579   7.301   5.069   3.786 -1.3410  3.5216  0.2978
13883SOL     OW43580   1.071   0.326   7.701 -0.4799 -0.3374  0.2525
13883SOL    HW143581   1.085   0.287   7.614 -2.0189 -2.1106  0.7433
13883SOL    HW243582   0.976   0.336   7.707 -0.3503  0.2071  1.5569
13884SOL     OW43583   7.983   0.483   2.175 -0.5303  0.0258  0.0584
13884SOL    HW143584   8.036   0.542   2.228  1.6601 -1.6821 -0.0764
13884SOL    HW243585   8.004   0.396   2.207 -1.8200 -0.8653 -1.3286
13885SOL     OW43586   3.750   6.387   0.840 -0.5783 -0.8808  0.7806
13885SOL    HW143587   3.707   6.345   0.766  0.6829 -0.6358 -0.1246
13885SOL    HW243588   3.756   6.479   0.815  0.3862 -0.9001  0.9204
13886SOL     OW43589   8.147   1.292   5.624 -0.2353 -0.3953 -0.6641
13886SOL    HW143590   8.103   1.355   5.681 -1.3976 -0.6859 -1.1902
13886SOL    HW243591   8.093   1.291   5.545  1.2683 -0.0756 -1.7431
13887SOL     OW43592   4.695   2.649   5.978  0.3573  0.0568  0.0332
13887SOL    HW143593   4.676   2.664   5.886 -1.1810  0.3711  0.3768
13887SOL    HW243594   4.620   2.599   6.011 -0.0819  1.6200  1.5465
13888SOL     OW43595   5.292   4.301   7.665  0.1826  0.1610 -0.0373
13888SOL    HW143596   5.273   4.395   7.665  2.1884  0.6174 -1.1818
13888SOL    HW243597   5.380   4.293   7.701  1.3528 -0.9203 -2.8905
13889SOL     OW43598   7.760   7.965   1.993 -0.3015 -1.0002 -0.3839
13889SOL    HW143599   7.778   8.000   1.906 -1.1420  1.1431  0.2519
13889SOL    HW243600   7.843   7.974   2.040 -0.5273  0.3639 -0.1942
13890SOL     OW43601   8.360   2.234   0.881 -0.4475 -0.6779 -0.5378
13890SOL    HW143602   8.425   2.251   0.949  0.8006 -2.9680 -1.0494
13890SOL    HW243603   8.294   2.303   0.893  1.4433  1.0301  0.7568
13891SOL     OW43604   5.478   1.285   5.451 -0.1182  0.2400 -0.3155
13891SOL    HW143605   5.553   1.301   5.509  1.0013 -0.6665 -1.4396
13891SOL    HW243606   5.447   1.373   5.427  0.2588  0.6262  0.5795
13892SOL     OW43607   3.076   7.882   6.049 -0.1272  0.3735  0.3831
13892SOL    HW143608   3.100   7.853   6.137  2.1654 -0.6895 -0.4973
13892SOL    HW243609   3.130   7.829   5.991 -1.5705  1.0514 -1.6894
13893SOL     OW43610   1.674   5.022   2.476  0.4001  0.0681  0.0463
13893SOL    HW143611   1.682   5.117   2.470  0.5610 -0.0286 -1.5209
13893SOL    HW243612   1.580   5.005   2.469  0.3587  0.1094  0.4638
13894SOL     OW43613   1.307   5.340   2.447  0.3065  0.0670  0.1208
13894SOL    HW143614   1.251   5.409   2.410 -1.8468 -0.6172  1.8445
13894SOL    HW243615   1.333   5.288   2.371  0.8540  1.9272 -1.0614
13895SOL     OW43616   6.551   6.226   0.393 -0.5387 -0.0676  0.3391
13895SOL    HW143617   6.498   6.256   0.466 -3.8040 -3.8797 -0.0960
13895SOL    HW243618   6.509   6.265   0.315  0.0955  0.3944  0.2231
13896SOL     OW43619   7.981   3.329   7.780  0.0244  0.3945  0.0542
13896SOL    HW143620   7.958   3.274   7.855  0.3480  0.1003 -0.0629
13896SOL    HW243621   8.064   3.294   7.748  0.4597  1.2295  0.2510
13897SOL     OW43622   5.092   6.156   7.141 -0.4814  0.9799 -0.3932
13897SOL    HW143623   4.998   6.164   7.129 -0.2133  1.7100 -2.5370
13897SOL    HW243624   5.103   6.085   7.204 -2.4314 -1.2475 -2.3781
13898SOL     OW43625   7.819   6.075   4.927 -0.0459  0.3310  0.8291
13898SOL    HW143626   7.901   6.125   4.927  1.3169 -1.8052  1.8815
13898SOL    HW243627   7.775   6.102   4.846  1.9477  1.1130 -0.0528
13899SOL     OW43628   5.355   3.772   8.262  0.0630 -0.1279 -0.3833
13899SOL    HW143629   5.342   3.741   8.351 -0.1501  0.8459 -0.0590
13899SOL    HW243630   5.289   3.840   8.250  0.1254 -0.2068 -1.2665
13900SOL     OW43631   1.762   8.751   3.892  0.0914 -0.2466  0.7307
13900SOL    HW143632   1.843   8.767   3.940  0.0706  1.1773  0.3264
13900SOL    HW243633   1.696   8.804   3.937 -0.6419 -1.3815  1.0523
13901SOL     OW43634   4.666   4.622   3.694  0.2430  0.8731 -0.0165
13901SOL    HW143635   4.653   4.672   3.774  1.5345 -0.6162  1.1803
13901SOL    HW243636   4.749   4.654   3.659  0.5729  0.2830  0.2163
13902SOL     OW43637   2.145   0.711   4.550 -0.4816  0.3324 -0.4614
13902SOL    HW143638   2.120   0.733   4.460 -1.8233  0.8140 -0.0007
13902SOL    HW243639   2.078   0.753   4.604 -0.3519 -0.9005  0.7072
13903SOL     OW43640   5.814   0.029   4.688  0.5202  0.6448 -0.0320
13903SOL    HW143641   5.773   0.097   4.742  1.1470  1.9693 -1.1531
13903SOL    HW243642   5.906   0.030   4.714  0.9435  1.6688 -1.4219
13904SOL     OW43643   4.799   7.364   3.633  0.1333  0.1182  0.2820
13904SOL    HW143644   4.792   7.311   3.712  1.0837  0.3452  0.5263
13904SOL    HW243645   4.748   7.315   3.567 -1.6794  0.5280  1.3066
13905SOL     OW43646   4.599   6.844   3.537 -0.9254  0.2148 -0.1378
13905SOL    HW143647   4.586   6.821   3.629  1.3019  1.3182  0.5339
13905SOL    HW243648   4.511   6.854   3.501 -1.8499  1.0082  2.2027
13906SOL     OW43649   0.471   8.103   5.991 -0.4377 -0.2958 -0.5637
13906SOL    HW143650   0.445   8.192   6.013  0.8193  0.3691 -1.6459
13906SOL    HW243651   0.564   8.110   5.969 -0.4000 -1.8237 -1.0130
13907SOL     OW43652   3.263   7.029   7.259  0.1159  0.5174 -0.3033
13907SOL    HW143653   3.342   6.984   7.228  0.3604  0.3182  0.5911
13907SOL    HW243654   3.211   7.043   7.180 -0.0301 -1.4517 -0.5893
13908SOL     OW43655   6.063   0.123   7.559 -0.0120  0.1554  0.2717
13908SOL    HW143656   5.972   0.139   7.582 -0.7934 -3.5382  0.4129
13908SOL    HW243657   6.092   0.203   7.516 -3.4093  1.3555 -0.0681
13909SOL     OW43658   8.009   2.365   2.086  0.6046  0.8359  0.0974
13909SOL    HW143659   8.002   2.443   2.030  1.2152 -0.2115 -1.5017
13909SOL    HW243660   8.099   2.336   2.074  0.4010 -0.0773  0.7378
13910SOL     OW43661   2.428   3.840   8.408  0.3814 -0.4521 -0.4346
13910SOL    HW143662   2.493   3.894   8.453  0.2896  0.0819 -0.9247
13910SOL    HW243663   2.360   3.824   8.473  1.4067 -1.7434  0.3464
13911SOL     OW43664   3.406   3.045   6.554 -0.2686  0.5531 -0.1827
13911SOL    HW143665   3.498   3.067   6.544 -0.1816 -0.4211 -1.8583
13911SOL    HW243666   3.359   3.119   6.515 -0.1716  0.6875 -0.0440
13912SOL     OW43667   6.451   7.581   7.579  0.1976 -0.1974  0.3483
13912SOL    HW143668   6.364   7.602   7.546 -0.1750  0.6283  1.7749
13912SOL    HW243669   6.508   7.645   7.536  0.2575 -1.2468 -1.2038
13913SOL     OW43670   8.024   5.266   3.304  0.6870 -0.3522 -0.3092
13913SOL    HW143671   8.022   5.352   3.264  1.4510  0.2888  0.9694
13913SOL    HW243672   8.092   5.272   3.371 -1.3102 -0.9844  1.9095
13914SOL     OW43673   3.613   3.627   8.597  0.6586  0.5304  0.6168
13914SOL    HW143674   3.550   3.699   8.594  0.0414 -0.0335 -0.5577
13914SOL    HW243675   3.695   3.669   8.626  0.5596  1.9235 -0.9346
13915SOL     OW43676   8.010   3.413   6.832  0.1238  0.5717 -0.2654
13915SOL    HW143677   7.948   3.346   6.860  0.3227 -0.3600 -1.9033
13915SOL    HW243678   7.958   3.471   6.776  0.7851 -0.6320 -2.2570
13916SOL     OW43679   8.659   5.581   4.297  0.1041  0.2286 -0.2182
13916SOL    HW143680   8.744   5.623   4.315 -0.4178  0.8324  0.9399
13916SOL    HW243681   8.676   5.488   4.308  0.3300  0.4276  1.3919
13917SOL     OW43682   3.306   6.784   0.320  0.4800  0.3774 -0.1790
13917SOL    HW143683   3.252   6.767   0.397  2.4369  0.8913  1.3891
13917SOL    HW243684   3.340   6.872   0.334 -1.0013  1.5076 -2.8857
13918SOL     OW43685   6.049   3.527   8.813 -0.2294  0.1073  0.0085
13918SOL    HW143686   6.079   3.494   8.897 -0.7212  0.0012  0.1430
13918SOL    HW243687   6.062   3.454   8.752 -0.6909 -0.1134  0.1708
13919SOL     OW43688   0.908   0.116   3.539  0.8677 -0.2671 -0.6293
13919SOL    HW143689   0.961   0.147   3.466  1.3997 -2.2924 -1.1690
13919SOL    HW243690   0.892   0.024   3.519  2.3576 -1.3504  2.5283
13920SOL     OW43691   3.942   3.049   5.091  0.2464  0.0693 -0.3095
13920SOL    HW143692   4.021   3.093   5.062  0.6402  0.1150  0.8057
13920SOL    HW243693   3.972   2.981   5.151 -0.6610  1.6273  2.0543
13921SOL     OW43694   2.176   6.377   1.088 -0.2095  0.1920  0.7325
13921SOL    HW143695   2.225   6.459   1.090  0.7182 -0.3417  0.7504
13921SOL    HW243696   2.183   6.343   1.177  0.2150 -0.3498  0.5024
13922SOL     OW43697   4.768   6.613   6.450  0.6686  0.5715  0.0125
13922SOL    HW143698   4.685   6.660   6.440  0.7417  1.0112  1.2980
13922SOL    HW243699   4.743   6.527   6.484  0.6023 -0.0556 -1.5417
13923SOL     OW43700   6.222   3.719   8.195 -0.6629  0.1333 -0.1969
13923SOL    HW143701   6.166   3.743   8.268  0.7129  1.2634  0.5464
13923SOL    HW243702   6.259   3.634   8.220 -0.3793  0.4058  0.3478
13924SOL     OW43703   3.963   3.321   5.810 -0.4854 -0.1274 -0.2958
13924SOL    HW143704   3.941   3.330   5.717  0.1066 -0.2496 -0.4516
13924SOL    HW243705   4.045   3.272   5.810  0.8853  2.0640  0.1804
13925SOL     OW43706   3.342   0.543   5.743  0.0431  0.5059 -0.7798
13925SOL    HW143707   3.369   0.569   5.831  0.2525  1.9156 -1.2364
13925SOL    HW243708   3.273   0.478   5.757  1.4787 -0.8434  0.3993
13926SOL     OW43709   3.543   5.404   5.561 -0.1797  0.3871  0.4303
13926SOL    HW143710   3.471   5.464   5.540 -0.0125  0.6505  0.6031
13926SOL    HW243711   3.582   5.439   5.641  0.2818  0.3753  0.2180
13927SOL     OW43712   5.098   3.708   7.034  0.3261  0.1466 -0.0113
13927SOL    HW143713   5.029   3.769   7.059  1.3540  1.5509 -0.4713
13927SOL    HW243714   5.180   3.756   7.049  1.1033 -0.2626 -2.4324
13928SOL     OW43715   0.634   0.767   0.082  0.7301 -0.3934  0.5684
13928SOL    HW143716   0.654   0.797  -0.007  0.2315  0.3753  0.7122
13928SOL    HW243717   0.681   0.827   0.139  1.6699 -1.3396  0.8311
13929SOL     OW43718   0.886   3.260   5.974  0.0187  0.1245 -0.1464
13929SOL    HW143719   0.947   3.245   6.047  3.1435  0.5173 -2.4695
13929SOL    HW243720   0.880   3.355   5.966 -1.2685  0.0989  0.2685
13930SOL     OW43721   0.857   7.412   7.471  0.6082 -0.7979 -0.1321
13930SOL    HW143722   0.807   7.333   7.489 -1.9872  0.7489 -0.1339
13930SOL    HW243723   0.905   7.393   7.390 -0.0851 -2.2840 -0.2178
13931SOL     OW43724   3.991   1.212   2.147 -0.2242 -0.1285  0.1736
13931SOL    HW143725   3.989   1.307   2.130  1.7619 -0.3015 -1.5234
13931SOL    HW243726   3.934   1.175   2.079 -0.6321 -0.1806  0.5439
13932SOL     OW43727   1.388   5.181   2.216  0.4366  1.1585 -0.2341
13932SOL    HW143728   1.463   5.240   2.223  2.8328 -1.8219  1.8923
13932SOL    HW243729   1.425   5.100   2.181 -2.1477 -0.0048 -0.4798
13933SOL     OW43730   7.866   8.074   3.538 -0.3101  0.4611 -0.6371
13933SOL    HW143731   7.813   8.046   3.612  0.6024  0.0901 -0.1136
13933SOL    HW243732   7.938   8.012   3.535 -0.4081  0.3831 -1.9298
13934SOL     OW43733   3.717   8.001   2.986  0.3423  0.3902  0.2936
13934SOL    HW143734   3.793   7.946   2.967  1.0484  0.9414  1.4382
13934SOL    HW243735   3.703   7.991   3.080  1.8687  3.7608  1.0348
13935SOL     OW43736   7.881   2.437   5.965 -0.1969  0.3934  0.8263
13935SOL    HW143737   7.835   2.394   5.892 -0.9746  0.8218  1.0584
13935SOL    HW243738   7.836   2.405   6.043  0.1829  0.4878  1.0841
13936SOL     OW43739   7.490   6.706   7.661 -0.2890 -0.0045  0.6775
13936SOL    HW143740   7.452   6.794   7.652 -0.8163 -0.2854  0.0020
13936SOL    HW243741   7.577   6.713   7.622 -0.1722  0.3185  0.9948
13937SOL     OW43742   4.310   6.707   0.332  0.3461  0.4776 -0.7202
13937SOL    HW143743   4.241   6.762   0.294  0.4288  1.5279  0.5674
13937SOL    HW243744   4.273   6.619   0.334 -1.2409  1.1271  0.5328
13938SOL     OW43745   2.987   1.726   5.663 -0.1962  0.2354  0.0590
13938SOL    HW143746   2.902   1.708   5.621 -0.0163  2.3345 -1.3883
13938SOL    HW243747   2.986   1.674   5.743 -2.1827 -1.0177 -0.7055
13939SOL     OW43748   3.655   8.323   3.771  0.0490 -0.6411  0.3854
13939SOL    HW143749   3.688   8.234   3.773 -0.2770 -0.7815  2.8525
13939SOL    HW243750   3.583   8.321   3.708  0.5388 -1.8954 -0.1642
13940SOL     OW43751   6.329   7.687   0.204  0.3181 -0.0431  0.1639
13940SOL    HW143752   6.424   7.675   0.202  0.5954  1.8532 -0.8489
13940SOL    HW243753   6.306   7.711   0.114 -0.9561  0.5126  0.6117
13941SOL     OW43754   4.665   3.561   5.677 -0.4648  0.1110  0.9353
13941SOL    HW143755   4.610   3.505   5.621  1.3125 -0.3276 -0.4461
13941SOL    HW243756   4.713   3.499   5.732  0.9682  0.2704 -0.0913
13942SOL     OW43757   5.518   6.108   3.089 -0.4313 -0.4438  0.5310
13942SOL    HW143758   5.426   6.084   3.098 -0.2292 -1.0933  0.8848
13942SOL    HW243759   5.523   6.154   3.005 -1.1181 -0.1823  0.6254
13943SOL     OW43760   5.240   5.031   5.850  0.2808 -0.2413 -0.3041
13943SOL    HW143761   5.174   4.965   5.873  2.5867 -2.2138  1.2519
13943SOL    HW243762   5.242   5.031   5.755 -1.7867 -0.2369 -0.3961
13944SOL     OW43763   5.219   0.479   2.060  0.0208  0.2139 -0.3418
13944SOL    HW143764   5.149   0.533   2.021  0.8641  0.3927 -1.6528
13944SOL    HW243765   5.252   0.533   2.131 -0.9411  0.2730  0.0836
13945SOL     OW43766   4.943   4.803   5.229  0.1661  0.1165  0.2601
13945SOL    HW143767   4.986   4.833   5.148  0.3680  1.8551  0.9715
13945SOL    HW243768   4.950   4.708   5.225  1.4359  0.2188 -1.0989
13946SOL     OW43769   8.754   0.401   4.898 -0.1000 -0.6560  0.1408
13946SOL    HW143770   8.802   0.465   4.950  0.8223 -1.7326  0.6627
13946SOL    HW243771   8.819   0.364   4.839 -1.4915  1.9847 -3.4106
13947SOL     OW43772   7.911   8.459   6.461 -0.1077 -0.1300  0.9478
13947SOL    HW143773   7.926   8.399   6.534  0.4270 -0.3035  0.6981
13947SOL    HW243774   7.816   8.466   6.455 -0.2826 -2.5449 -0.3061
13948SOL     OW43775   8.136   0.865   4.035 -0.0172 -0.0075 -0.0837
13948SOL    HW143776   8.094   0.863   4.121 -1.7796  0.4218 -0.8923
13948SOL    HW243777   8.064   0.859   3.973  0.8300  3.2081 -1.5816
13949SOL     OW43778   8.403   7.670   4.579 -0.5741 -0.2336  0.7468
13949SOL    HW143779   8.439   7.593   4.536 -2.3698 -0.7164 -0.0038
13949SOL    HW243780   8.470   7.738   4.568  0.8362 -1.5343  1.0175
13950SOL     OW43781   3.862   3.784   1.166 -0.0668  0.2919 -0.4699
13950SOL    HW143782   3.947   3.801   1.125  0.2918 -1.3028 -0.4602
13950SOL    HW243783   3.831   3.870   1.194  1.7939  0.8492  0.0251
13951SOL     OW43784   4.377   7.130   5.645  0.0959 -0.2052  0.1219
13951SOL    HW143785   4.341   7.151   5.732 -2.0252  2.0879 -1.1775
13951SOL    HW243786   4.316   7.066   5.610  0.3083 -0.2858 -0.0948
13952SOL     OW43787   7.766   1.640   1.315  0.2718 -0.4088 -0.1726
13952SOL    HW143788   7.682   1.619   1.357  0.0440 -1.2638 -1.0186
13952SOL    HW243789   7.808   1.555   1.302  1.0591 -0.0194 -0.2004
13953SOL     OW43790   8.341   4.773   8.120  0.4923  0.5899 -0.0941
13953SOL    HW143791   8.399   4.822   8.177 -0.3601  1.4081  0.0808
13953SOL    HW243792   8.335   4.826   8.040 -0.1216  0.5774 -0.0583
13954SOL     OW43793   7.303   8.712   4.911 -0.9678  0.3896  0.3308
13954SOL    HW143794   7.391   8.707   4.875 -1.3626 -0.4558 -0.5657
13954SOL    HW243795   7.292   8.632   4.961 -1.7152 -0.2427 -0.7818
13955SOL     OW43796   0.071   6.032   4.498 -0.2730 -0.4018  0.2654
13955SOL    HW143797   0.002   6.092   4.524 -0.5358 -0.2837 -0.6739
13955SOL    HW243798   0.139   6.042   4.565 -0.6840  0.3074  0.5808
13956SOL     OW43799   0.872   1.794   6.141  0.0704  0.0009 -0.8003
13956SOL    HW143800   0.838   1.738   6.211  1.9269 -0.7544 -0.4380
13956SOL    HW243801   0.805   1.790   6.073 -2.8976  2.5156  1.6613
13957SOL     OW43802   4.775   7.373   4.621  0.2401  0.6199 -0.3585
13957SOL    HW143803   4.711   7.308   4.593 -1.5903  2.3245 -0.3116
13957SOL    HW243804   4.857   7.346   4.579 -0.8966 -0.6328 -1.8579
13958SOL     OW43805   0.244   0.360   1.542 -0.0352 -0.0731 -0.4233
13958SOL    HW143806   0.197   0.284   1.574  0.7844 -0.6493 -0.5383
13958SOL    HW243807   0.177   0.416   1.503 -0.8010 -0.1637  0.7444
13959SOL     OW43808   2.785   2.197   3.183 -0.1993 -0.6743 -0.6423
13959SOL    HW143809   2.713   2.220   3.243 -0.0622 -1.7539 -0.0352
13959SOL    HW243810   2.830   2.124   3.227  0.4930 -0.8453 -1.6156
13960SOL     OW43811   2.494   1.142   3.165  0.1474  0.6986  0.2588
13960SOL    HW143812   2.564   1.178   3.110  0.1868  1.1600  0.6005
13960SOL    HW243813   2.500   1.047   3.152  0.9946  0.7094  0.4699
13961SOL     OW43814   2.907   4.622   1.315 -0.2416  0.4371  0.1701
13961SOL    HW143815   2.913   4.694   1.378 -0.9818 -0.4460  1.2854
13961SOL    HW243816   2.823   4.634   1.272 -0.5266  0.0375  0.6137
13962SOL     OW43817   4.594   5.024   5.349  0.0156  0.1220 -0.1155
13962SOL    HW143818   4.566   5.095   5.291 -1.2445  1.1254  1.6152
13962SOL    HW243819   4.534   4.952   5.331 -1.3945  0.9755  0.9753
13963SOL     OW43820   3.234   1.312   4.116  0.6664 -0.0856 -0.1890
13963SOL    HW143821   3.306   1.336   4.057  1.1816 -0.4458  0.2897
13963SOL    HW243822   3.274   1.253   4.179  0.3518  1.0425  1.1089
13964SOL     OW43823   5.435   4.107   8.212  0.2355  0.3738 -0.2108
13964SOL    HW143824   5.510   4.047   8.207  0.4286  0.6124 -0.1603
13964SOL    HW243825   5.404   4.099   8.303  0.3741  0.4888 -0.1535
13965SOL     OW43826   5.463   0.652   5.010 -0.2874 -0.0412  0.0373
13965SOL    HW143827   5.376   0.612   5.017 -0.2671  0.1223  1.9551
13965SOL    HW243828   5.484   0.649   4.917 -1.3068 -2.2993 -0.1786
13966SOL     OW43829   8.473   4.771   5.100 -0.2254 -0.3094 -0.1509
13966SOL    HW143830   8.471   4.854   5.052  0.7887 -1.3787 -2.1798
13966SOL    HW243831   8.400   4.721   5.063 -0.4819 -0.5398  0.6556
13967SOL     OW43832   1.938   1.190   3.676  0.3430  0.1684 -0.7354
13967SOL    HW143833   2.012   1.129   3.678 -1.5365 -2.5106 -3.3514
13967SOL    HW243834   1.970   1.265   3.626  1.2483 -1.0759 -2.1002
13968SOL     OW43835   7.924   2.138   6.395 -0.2583 -0.6813  0.0563
13968SOL    HW143836   7.977   2.058   6.389  1.2749  0.2090  1.1369
13968SOL    HW243837   7.871   2.137   6.315  1.7223 -1.3779 -1.3342
13969SOL     OW43838   1.528   3.003   8.075 -0.1187 -0.0672  0.1692
13969SOL    HW143839   1.560   2.920   8.041 -1.0293 -1.3067  2.1391
13969SOL    HW243840   1.551   3.001   8.168 -1.0030  1.4573  0.4551
13970SOL     OW43841   1.798   3.301   1.114  0.1512  0.4019 -0.6057
13970SOL    HW143842   1.731   3.236   1.094 -0.0229  0.2153  0.5216
13970SOL    HW243843   1.823   3.337   1.029  0.1065 -0.9890 -1.2285
13971SOL     OW43844   7.457   3.080   0.133  0.0496 -0.4569  0.0801
13971SOL    HW143845   7.451   2.987   0.154  2.6366 -0.9200 -0.9431
13971SOL    HW243846   7.395   3.092   0.061 -0.4028 -1.3577  0.3058
13972SOL     OW43847   0.068   0.751   4.378 -0.1660 -0.3094  0.1729
13972SOL    HW143848  -0.004   0.813   4.370 -1.8556 -2.1423  0.3194
13972SOL    HW243849   0.145   0.805   4.395 -1.7452  1.6546  1.5565
13973SOL     OW43850   3.367   1.584   3.913 -0.1217 -0.1302  0.2490
13973SOL    HW143851   3.390   1.537   3.993 -0.2136 -0.9584 -0.2013
13973SOL    HW243852   3.441   1.642   3.896 -0.2119  0.2408  1.0624
13974SOL     OW43853   5.352   2.208   1.149  0.3292  0.4258 -0.4728
13974SOL    HW143854   5.280   2.236   1.093  0.0178  1.2004  0.2839
13974SOL    HW243855   5.431   2.239   1.104  0.1208  0.5522 -0.7525
13975SOL     OW43856   3.643   5.765   2.933  0.0680  0.2240 -0.2838
13975SOL    HW143857   3.591   5.826   2.880 -0.4097  1.4522  1.4736
13975SOL    HW243858   3.625   5.679   2.896 -2.0700  0.7704 -0.6863
13976SOL     OW43859   4.551   5.540   3.429  0.0830 -1.2565 -0.3588
13976SOL    HW143860   4.492   5.603   3.387  0.4044 -0.9938 -0.4197
13976SOL    HW243861   4.573   5.579   3.513 -0.4730 -1.7333  0.0155
13977SOL     OW43862   6.895   5.800   3.398  0.3058 -0.1233 -0.8395
13977SOL    HW143863   6.972   5.743   3.396 -1.2112 -2.3154 -0.8789
13977SOL    HW243864   6.859   5.789   3.486 -1.6445 -1.7011 -1.7302
13978SOL     OW43865   6.592   8.753   4.192  0.5505  0.8057 -0.1946
13978SOL    HW143866   6.623   8.832   4.236  0.4058  0.8755 -0.2178
13978SOL    HW243867   6.507   8.735   4.232  0.9322  0.2167  0.3694
13979SOL     OW43868   3.380   7.575   3.404  0.9669  0.4397  0.0246
13979SOL    HW143869   3.388   7.485   3.372  0.8573  0.5091 -0.1958
13979SOL    HW243870   3.388   7.567   3.499  0.4000  0.1301  0.0477
13980SOL     OW43871   6.569   4.354   4.886 -0.0508 -0.5588  0.4708
13980SOL    HW143872   6.575   4.317   4.797 -0.5093  0.2093  0.1112
13980SOL    HW243873   6.626   4.432   4.883  0.6071 -1.0026  1.1066
13981SOL     OW43874   1.845   4.101   0.149 -0.2987  0.2346 -1.0421
13981SOL    HW143875   1.920   4.061   0.106  0.1134  0.4074 -0.4962
13981SOL    HW243876   1.883   4.160   0.214 -0.9024  0.3209 -0.7568
13982SOL     OW43877   0.234   8.221   4.295 -0.3615  0.3699  0.3516
13982SOL    HW143878   0.257   8.190   4.208  2.3044  2.2948  0.2241
13982SOL    HW243879   0.307   8.192   4.351 -0.7333  1.3398  1.3842
13983SOL     OW43880   5.070   7.979   2.901 -0.0062 -0.5823  0.7502
13983SOL    HW143881   5.033   8.067   2.896  0.1501 -0.4902  1.1587
13983SOL    HW243882   5.095   7.959   2.811  1.6533  0.5371  0.9121
13984SOL     OW43883   3.365   2.764   0.846 -0.1676 -0.2821  0.0431
13984SOL    HW143884   3.385   2.748   0.754 -0.3533  0.0040 -0.0491
13984SOL    HW243885   3.432   2.825   0.874  1.3325 -2.1542  0.7441
13985SOL     OW43886   8.071   4.123   0.135  0.0756  0.8720  0.0431
13985SOL    HW143887   8.058   4.165   0.220  0.8230  0.0657  0.5787
13985SOL    HW243888   7.988   4.079   0.117  0.7792 -1.3273  1.7480
13986SOL     OW43889   0.107   0.829   8.022 -0.0627 -0.2656  0.2171
13986SOL    HW143890   0.185   0.800   7.974  0.6461 -0.7743  1.6172
13986SOL    HW243891   0.096   0.921   7.996  2.0735  0.3642  1.2718
13987SOL     OW43892   3.461   1.687   0.272 -0.0685  0.5532 -0.2732
13987SOL    HW143893   3.522   1.670   0.200  0.0336  1.2031 -0.3436
13987SOL    HW243894   3.397   1.615   0.266  0.1915  0.3557 -0.7348
13988SOL     OW43895   2.360   8.499   2.070  0.2340 -0.0688 -0.4718
13988SOL    HW143896   2.410   8.470   1.994  0.4618  0.0424 -0.3636
13988SOL    HW243897   2.283   8.542   2.032  1.2536  1.6571 -0.6800
13989SOL     OW43898   0.455   2.282   6.027 -0.4089 -0.2590 -0.4628
13989SOL    HW143899   0.547   2.290   6.002 -0.8469  2.1113 -1.6137
13989SOL    HW243900   0.408   2.277   5.944 -1.4582  0.9767  0.0232
13990SOL     OW43901   8.080   5.897   4.618  0.1057  0.1670  0.0676
13990SOL    HW143902   8.069   5.873   4.710 -0.6979 -0.6761 -0.2324
13990SOL    HW243903   7.990   5.904   4.585  0.3717 -1.4160 -1.1142
13991SOL     OW43904   2.404   4.155   5.565  0.4628 -0.1365 -0.2137
13991SOL    HW143905   2.419   4.061   5.571  0.5622 -0.0629  0.7423
13991SOL    HW243906   2.340   4.174   5.633 -0.9235  0.2223 -1.5461
13992SOL     OW43907   2.645   7.075   2.717 -0.3630  0.8872 -0.7167
13992SOL    HW143908   2.629   7.166   2.741  0.3252  0.9471 -0.4603
13992SOL    HW243909   2.635   7.073   2.622  0.9555  1.5258 -0.8845
13993SOL     OW43910   3.960   0.390   1.402  0.1504 -0.3994 -0.1943
13993SOL    HW143911   3.951   0.418   1.310 -0.0682 -0.1777 -0.1083
13993SOL    HW243912   4.035   0.439   1.435 -1.3699  1.6254  0.5083
13994SOL     OW43913   7.833   6.647   4.882 -0.7391 -0.0513 -0.3679
13994SOL    HW143914   7.775   6.710   4.927 -1.7723 -0.2409 -1.3742
13994SOL    HW243915   7.799   6.561   4.907 -0.7108 -0.1712 -0.7400
13995SOL     OW43916   6.453   3.108   2.459 -0.2048 -0.1577 -0.3314
13995SOL    HW143917   6.447   3.156   2.541  1.1957 -0.8368  0.1978
13995SOL    HW243918   6.420   3.020   2.479  1.5876 -0.8030 -0.0436
13996SOL     OW43919   1.095   7.796   2.853  0.2732 -0.2693 -0.0064
13996SOL    HW143920   1.012   7.843   2.845  0.2091 -0.4447 -0.4069
13996SOL    HW243921   1.079   7.731   2.922 -0.4750 -1.4298 -1.2076
13997SOL     OW43922   8.242   1.323   3.664 -0.1630  0.1774 -0.7214
13997SOL    HW143923   8.260   1.229   3.676  0.8137  0.3992 -0.4110
13997SOL    HW243924   8.235   1.358   3.752 -1.5183  0.2321 -0.8291
13998SOL     OW43925   2.084   0.680   3.015 -0.5966  0.6631  0.1888
13998SOL    HW143926   2.018   0.682   2.945 -0.6737 -0.0143  0.2397
13998SOL    HW243927   2.106   0.772   3.029  0.8251  0.7414 -2.0508
13999SOL     OW43928   8.321   0.397   1.663 -0.0086 -0.0859 -0.3299
13999SOL    HW143929   8.268   0.357   1.732  1.6236 -1.2894  0.3053
13999SOL    HW243930   8.368   0.468   1.708 -0.2102  0.2277 -0.6123
14000SOL     OW43931   1.032   2.510   1.672 -0.1163  0.1961 -0.6584
14000SOL    HW143932   1.080   2.523   1.590  0.6395  0.3254 -0.2056
14000SOL    HW243933   1.048   2.590   1.722  0.4757 -0.3990  0.1282
14001SOL     OW43934   2.975   6.556   6.799 -0.3519 -0.8998 -0.2693
14001SOL    HW143935   2.937   6.641   6.773  2.5853  0.7626  0.4609
14001SOL    HW243936   2.938   6.540   6.886  1.2126  1.1994  0.8758
14002SOL     OW43937   5.920   6.603   4.006 -0.4965 -0.1695 -0.1567
14002SOL    HW143938   5.898   6.534   4.068 -1.3099  0.5286  0.3741
14002SOL    HW243939   5.835   6.644   3.985  0.1253  1.8455  0.9833
14003SOL     OW43940   0.848   4.961   7.740  0.0057  0.1166 -0.0137
14003SOL    HW143941   0.773   4.934   7.687  0.2067 -0.0968 -0.1942
14003SOL    HW243942   0.845   5.056   7.740 -0.0987  0.1134 -0.2609
14004SOL     OW43943   2.564   7.389   1.629 -0.5875 -0.3512  0.2717
14004SOL    HW143944   2.567   7.316   1.568 -1.4563  1.4788 -2.1416
14004SOL    HW243945   2.635   7.372   1.691 -0.2770 -2.8032 -0.6628
14005SOL     OW43946   8.411   2.670   2.189  0.5035 -0.1220  0.4146
14005SOL    HW143947   8.444   2.720   2.264  0.1248  2.3681 -0.9901
14005SOL    HW243948   8.342   2.725   2.152  0.9483 -1.0943 -2.0050
14006SOL     OW43949   3.565   0.709   4.023 -0.7669 -0.2756  0.3500
14006SOL    HW143950   3.618   0.631   4.037 -0.0868  0.2426  0.7299
14006SOL    HW243951   3.564   0.754   4.107  3.3692  2.8658 -0.9006
14007SOL     OW43952   4.235   4.806   3.729 -0.3329  0.0946 -0.6377
14007SOL    HW143953   4.312   4.861   3.743 -0.0162 -0.0334 -1.8143
14007SOL    HW243954   4.181   4.855   3.668 -0.1347 -0.7961 -1.5547
14008SOL     OW43955   0.171   1.231   0.904 -0.6937 -0.3272  0.3466
14008SOL    HW143956   0.176   1.302   0.968  4.2018 -1.4224  1.6108
14008SOL    HW243957   0.133   1.158   0.952 -0.3309 -0.1576  0.9034
14009SOL     OW43958   2.301   4.442   4.095 -0.5888  0.0870  0.1040
14009SOL    HW143959   2.383   4.427   4.049 -0.7577 -1.4187  0.2553
14009SOL    HW243960   2.237   4.386   4.051 -1.5895  1.3293 -0.0935
14010SOL     OW43961   5.327   6.457   5.603 -0.0909  0.1132 -0.1077
14010SOL    HW143962   5.308   6.512   5.678  1.0710  0.2518  0.1040
14010SOL    HW243963   5.270   6.381   5.614 -1.0601  0.8451  0.0681
14011SOL     OW43964   7.060   5.860   0.294 -0.2071 -0.4792 -0.4252
14011SOL    HW143965   7.112   5.870   0.374  0.1989 -0.9470 -0.6311
14011SOL    HW243966   7.103   5.790   0.246 -0.1692  0.1247 -1.2814
14012SOL     OW43967   7.259   8.835   1.722 -0.2530 -0.2791 -0.4095
14012SOL    HW143968   7.222   8.900   1.663  2.9527  2.3672  0.1767
14012SOL    HW243969   7.243   8.869   1.809  2.1861  0.2894 -0.1154
14013SOL     OW43970   3.528   0.433   4.237 -0.0315 -0.0192 -0.3801
14013SOL    HW143971   3.545   0.413   4.145 -1.1930  1.2011 -0.8976
14013SOL    HW243972   3.615   0.445   4.275  0.5263 -1.8358 -0.9669
14014SOL     OW43973   4.329   3.396   3.727  0.3801 -0.0898 -0.2677
14014SOL    HW143974   4.310   3.459   3.658 -1.6230  0.5854  0.8372
14014SOL    HW243975   4.280   3.317   3.702  0.7019 -0.2966 -0.2624
14015SOL     OW43976   2.541   4.290   1.734 -0.3376 -0.2767  0.7410
14015SOL    HW143977   2.635   4.290   1.754 -0.2154  2.2412  0.4963
14015SOL    HW243978   2.506   4.218   1.786  1.3268  0.5176  3.2034
14016SOL     OW43979   5.518   0.524   0.653 -0.0247 -0.2548  0.4361
14016SOL    HW143980   5.523   0.616   0.678  0.1409  0.1242 -0.9068
14016SOL    HW243981   5.601   0.486   0.682 -0.0033  0.0694  0.7996
14017SOL     OW43982   8.161   5.611   2.363 -0.2750  0.1999 -0.1017
14017SOL    HW143983   8.127   5.691   2.404 -0.1103  0.1859  0.0668
14017SOL    HW243984   8.083   5.556   2.350 -0.6093  1.0103 -1.6589
14018SOL     OW43985   6.212   5.520   7.538 -0.2226  0.6500  0.3982
14018SOL    HW143986   6.150   5.531   7.466 -3.2586 -0.6395  2.6192
14018SOL    HW243987   6.219   5.607   7.577 -0.3983  0.8600 -0.0298
14019SOL     OW43988   7.573   4.716   1.960  0.1612  0.1816  0.6145
14019SOL    HW143989   7.485   4.741   1.931  0.8172  0.8741 -0.8639
14019SOL    HW243990   7.632   4.767   1.905  1.5235 -1.7864  0.1457
14020SOL     OW43991   4.655   2.134   7.771 -0.4348 -0.2875 -0.1483
14020SOL    HW143992   4.745   2.108   7.791 -0.3090  1.3736  1.6879
14020SOL    HW243993   4.606   2.111   7.850 -1.3424  0.1802 -0.5674
14021SOL     OW43994   4.914   0.867   0.840  0.2786 -0.5397 -0.0643
14021SOL    HW143995   4.939   0.803   0.906 -0.3704 -0.3343  0.3962
14021SOL    HW243996   4.920   0.952   0.886 -0.2890 -0.4069 -0.2259
14022SOL     OW43997   3.623   4.715   4.449 -0.1874  0.2631  0.1190
14022SOL    HW143998   3.630   4.808   4.470 -2.1036  0.7047 -0.9638
14022SOL    HW243999   3.530   4.702   4.428 -0.2922 -2.2216  1.6879
14023SOL     OW44000   6.862   8.160   8.220 -0.3581  0.0290  0.4950
14023SOL    HW144001   6.832   8.232   8.164 -1.3372 -0.6617  0.1289
14023SOL    HW244002   6.844   8.190   8.309 -0.7236  0.2557  0.3458
14024SOL     OW44003   0.348   5.739   2.854  0.2473  0.1267  0.4092
14024SOL    HW144004   0.284   5.672   2.833  0.5397 -0.1186  0.2933
14024SOL    HW244005   0.388   5.761   2.769  0.2523  0.3429  0.4665
14025SOL     OW44006   6.206   0.946   2.605  0.2648 -0.1084  0.3315
14025SOL    HW144007   6.134   1.002   2.633 -0.1344 -0.8422  0.8077
14025SOL    HW244008   6.260   0.936   2.683  0.0404 -0.8190  0.4024
14026SOL     OW44009   6.508   5.791   3.642 -0.6267 -0.3499  0.0781
14026SOL    HW144010   6.533   5.718   3.585 -0.6820  0.3937 -0.9273
14026SOL    HW244011   6.450   5.845   3.588  0.2389  0.9942  0.4309
14027SOL     OW44012   7.376   5.899   3.117  0.6590  0.2508  0.0607
14027SOL    HW144013   7.292   5.928   3.081  0.2716 -1.1744 -0.2311
14027SOL    HW244014   7.367   5.910   3.211 -0.0416 -0.3507  0.0677
14028SOL     OW44015   2.059   1.981   0.404 -0.3529 -0.0701 -0.0817
14028SOL    HW144016   2.142   2.000   0.448  0.1849 -1.6466 -0.3633
14028SOL    HW244017   2.084   1.939   0.322 -1.4084 -3.0215  1.0049
14029SOL     OW44018   6.849   7.716   0.975  0.4340 -0.3014 -0.7408
14029SOL    HW144019   6.788   7.765   0.921 -0.5951  0.8535  1.3688
14029SOL    HW244020   6.840   7.625   0.945 -1.5620  0.0038 -1.1878
14030SOL     OW44021   5.131   0.299   8.293  0.2696  0.0975 -0.1778
14030SOL    HW144022   5.150   0.238   8.222 -0.4609  0.4431 -0.6775
14030SOL    HW244023   5.105   0.243   8.366  0.7555 -0.2440 -0.2581
14031SOL     OW44024   3.305   5.324   4.239  0.4926 -0.0921 -0.3841
14031SOL    HW144025   3.387   5.314   4.287  0.5183 -1.3280 -0.6479
14031SOL    HW244026   3.319   5.277   4.157 -0.0397  0.7805 -0.9914
14032SOL     OW44027   1.911   3.557   5.754  0.2343 -0.4515  0.0651
14032SOL    HW144028   1.842   3.611   5.715  0.4466 -0.6339 -0.5739
14032SOL    HW244029   1.907   3.475   5.705 -0.4539 -1.2442  1.3767
14033SOL     OW44030   0.040   4.790   2.614  0.1042  0.0520 -0.6918
14033SOL    HW144031   0.039   4.848   2.690 -0.1371 -1.5401  0.5762
14033SOL    HW244032   0.132   4.781   2.591  0.2809 -0.3688  0.1574
14034SOL     OW44033   6.364   0.363   0.890 -0.3551 -0.1224 -0.3573
14034SOL    HW144034   6.370   0.293   0.824 -0.1138 -0.5438  0.1043
14034SOL    HW244035   6.293   0.334   0.948 -1.3987  0.8413 -1.1166
14035SOL     OW44036   4.961   8.223   1.270 -1.0115  0.1150 -0.6408
14035SOL    HW144037   4.971   8.293   1.335 -0.9263 -0.3301 -0.1637
14035SOL    HW244038   4.878   8.242   1.227 -0.3207  1.3201 -1.5169
14036SOL     OW44039   7.195   5.349   5.386  0.3082  0.6329 -0.2467
14036SOL    HW144040   7.189   5.255   5.402 -0.3148  0.1310 -2.9839
14036SOL    HW244041   7.128   5.387   5.444  0.1226 -0.6508  0.4311
14037SOL     OW44042   3.801   3.830   3.667  0.3403  0.5688  0.1698
14037SOL    HW144043   3.720   3.877   3.684 -0.6700 -0.5883 -1.1848
14037SOL    HW244044   3.848   3.885   3.604  0.0466  0.6815  0.0471
14038SOL     OW44045   0.186   7.166   8.003 -0.1747 -0.2673 -0.2861
14038SOL    HW144046   0.160   7.126   7.921  0.6746 -0.9334 -0.2431
14038SOL    HW244047   0.218   7.253   7.978 -0.9747 -0.0376 -0.5161
14039SOL     OW44048   7.040   2.112   3.539  0.0006  0.0399  0.2516
14039SOL    HW144049   6.997   2.147   3.461  1.0131 -0.0783 -0.3716
14039SOL    HW244050   7.076   2.028   3.512  1.3044  0.4876  0.5288
14040SOL     OW44051   6.773   0.438   4.193 -0.1007  0.0575 -0.6189
14040SOL    HW144052   6.748   0.513   4.247  0.6542 -0.2844  0.2217
14040SOL    HW244053   6.743   0.462   4.105  0.0773  1.3235 -0.3603
14041SOL     OW44054   2.803   7.338   6.215  0.0689 -0.4689 -0.1676
14041SOL    HW144055   2.814   7.365   6.306  0.6828  1.6218 -0.8129
14041SOL    HW244056   2.864   7.265   6.204  1.5347  0.5978  0.5724
14042SOL     OW44057   7.141   7.482   5.395  0.1267 -0.4348 -0.1053
14042SOL    HW144058   7.207   7.547   5.369 -0.6051  0.1749 -0.4741
14042SOL    HW244059   7.102   7.453   5.312 -0.5964 -0.2201  0.1530
14043SOL     OW44060   0.180   4.505   3.683 -0.0162 -0.1350 -0.0574
14043SOL    HW144061   0.237   4.580   3.700 -1.4726  1.0155 -0.0500
14043SOL    HW244062   0.209   4.439   3.746  2.9596 -0.5789 -1.7160
14044SOL     OW44063   0.870   0.312   2.164 -0.1944 -0.1290 -0.1052
14044SOL    HW144064   0.784   0.337   2.197  1.1527  2.6855  1.7186
14044SOL    HW244065   0.931   0.345   2.230  2.3273 -1.8950 -1.3882
14045SOL     OW44066   5.010   4.707   1.645  0.2124 -0.2727 -0.0603
14045SOL    HW144067   5.002   4.694   1.740 -0.2447  0.5090  0.0211
14045SOL    HW244068   4.930   4.669   1.609  0.0147  0.1373 -0.0547
14046SOL     OW44069   7.053   1.377   4.775 -0.5151  0.0831 -0.2024
14046SOL    HW144070   7.064   1.470   4.754 -0.5069  0.1456  0.0714
14046SOL    HW244071   7.129   1.335   4.735  0.9859  0.5659  1.9779
14047SOL     OW44072   5.185   8.079   1.135 -0.4682  0.3876 -0.1702
14047SOL    HW144073   5.117   8.129   1.180 -1.1468 -1.6504  1.2120
14047SOL    HW244074   5.176   8.102   1.043 -1.7131  1.6531  0.2464
14048SOL     OW44075   4.919   0.972   0.555 -0.3746  0.7693 -0.3975
14048SOL    HW144076   4.955   1.061   0.559 -1.1446  1.0900 -0.4368
14048SOL    HW244077   4.909   0.947   0.647  1.4348  0.0456 -0.3598
14049SOL     OW44078   1.476   8.505   6.621 -0.3169  0.3133 -0.2931
14049SOL    HW144079   1.406   8.450   6.586  0.6886  0.2487 -2.3232
14049SOL    HW244080   1.546   8.444   6.644 -0.5441  0.4628  0.8768
14050SOL     OW44081   4.542   0.003   7.971  0.1693  0.4433 -0.2648
14050SOL    HW144082   4.495  -0.080   7.958  0.3877  0.2760  0.0111
14050SOL    HW244083   4.608   0.004   7.903  2.0161 -0.9277  1.3810
14051SOL     OW44084   0.066   3.314   4.696 -0.5487 -0.0587 -0.3880
14051SOL    HW144085   0.013   3.300   4.617  0.2825 -1.1621 -0.7844
14051SOL    HW244086   0.079   3.226   4.731  0.7440  0.2225 -0.1279
14052SOL     OW44087   7.009   6.699   4.840 -0.5082 -0.1756  0.5849
14052SOL    HW144088   6.970   6.785   4.824 -0.2296 -0.1188  0.1959
14052SOL    HW244089   7.072   6.714   4.911 -0.5634 -0.0884  0.6161
14053SOL     OW44090   2.935   6.560   0.958 -0.5382  0.0984 -0.1509
14053SOL    HW144091   2.967   6.612   1.032 -0.5385 -0.9412  0.6016
14053SOL    HW244092   2.843   6.544   0.978 -0.3325 -0.8795  0.0404
14054SOL     OW44093   2.770   2.386   8.481  0.3403  0.0807 -0.0743
14054SOL    HW144094   2.772   2.314   8.417  0.3753  0.8143 -0.9240
14054SOL    HW244095   2.859   2.422   8.479 -0.1571  1.3265 -1.0645
14055SOL     OW44096   3.341   0.785   8.815 -0.0521 -0.0517  0.4568
14055SOL    HW144097   3.378   0.866   8.850 -1.4941  0.5356  0.6819
14055SOL    HW244098   3.278   0.757   8.882  0.8149 -1.6929  0.6627
14056SOL     OW44099   3.661   3.424   3.949 -0.0403  0.1829 -0.0916
14056SOL    HW144100   3.583   3.447   3.999 -0.6070 -0.8106 -0.5050
14056SOL    HW244101   3.650   3.467   3.865 -0.7489 -0.9397 -0.5961
14057SOL     OW44102   2.033   6.606   7.229 -0.1365 -0.2584  0.1122
14057SOL    HW144103   2.066   6.519   7.206  0.6316  0.3898 -1.3978
14057SOL    HW244104   2.091   6.636   7.299  0.7990 -0.2266 -0.6599
14058SOL     OW44105   0.111   8.470   4.548 -0.0663 -0.5787 -0.3374
14058SOL    HW144106   0.141   8.518   4.625  0.5667 -2.9237  0.9680
14058SOL    HW244107   0.114   8.534   4.477  0.7341  1.2739  1.2851
14059SOL     OW44108   5.340   7.567   8.694  0.4403 -0.6915  0.2693
14059SOL    HW144109   5.413   7.505   8.695 -0.0232 -1.2533 -0.0779
14059SOL    HW244110   5.266   7.518   8.731 -0.2051 -0.7028 -0.9721
14060SOL     OW44111   3.116   6.072   5.764  0.7839 -0.1577 -0.1271
14060SOL    HW144112   3.096   6.144   5.824  0.0672  0.3380 -0.9539
14060SOL    HW244113   3.170   6.012   5.817 -0.0646  0.1229  1.1049
14061SOL     OW44114   0.033   7.494   3.586  0.7657 -0.3279 -0.4488
14061SOL    HW144115   0.036   7.560   3.517 -1.0245  0.3499  0.0749
14061SOL    HW244116  -0.053   7.454   3.578  0.3607  0.0201  1.6053
14062SOL     OW44117   0.463   2.620   8.835 -0.0164  0.0240  0.1794
14062SOL    HW144118   0.543   2.599   8.786 -0.9050 -0.8746 -0.9353
14062SOL    HW244119   0.481   2.704   8.875  1.6878 -0.4009  0.3709
14063SOL     OW44120   4.869   3.506   2.349  0.0691 -0.1734 -0.2811
14063SOL    HW144121   4.862   3.456   2.430  0.8816 -0.2858 -0.2712
14063SOL    HW244122   4.960   3.534   2.346 -0.1444  0.4857 -0.7733
14064SOL     OW44123   2.937   2.787   6.686 -0.4519  0.6821 -0.1524
14064SOL    HW144124   2.854   2.828   6.664 -0.4626  0.7733  0.0498
14064SOL    HW244125   2.947   2.717   6.622 -0.8024  0.5158 -0.0290
14065SOL     OW44126   2.314   3.733   2.044 -0.1088 -0.9631  0.3638
14065SOL    HW144127   2.278   3.651   2.079  0.9185 -0.8078  1.8881
14065SOL    HW244128   2.373   3.764   2.113 -0.2608  0.9155 -0.3077
14066SOL     OW44129   6.762   8.387   5.877  0.0773 -0.5099  0.5169
14066SOL    HW144130   6.767   8.462   5.816 -1.8728 -0.0218  0.8615
14066SOL    HW244131   6.845   8.342   5.866  1.4293  1.8204  0.4346
14067SOL     OW44132   1.917   2.133   2.350 -0.3174  0.2627 -0.3263
14067SOL    HW144133   1.878   2.046   2.342 -2.2461  1.0983 -0.5736
14067SOL    HW244134   2.002   2.126   2.307 -0.9768 -1.1852 -1.4539
14068SOL     OW44135   3.510   4.346   1.727  0.3504  0.4877  0.2567
14068SOL    HW144136   3.493   4.397   1.806  1.1803  1.6485 -0.2868
14068SOL    HW244137   3.444   4.276   1.729 -1.6343  2.2704  0.4005
14069SOL     OW44138   1.275   2.023   0.941  0.1540  0.2095 -0.1304
14069SOL    HW144139   1.289   2.117   0.930  1.9284 -0.0528 -0.5558
14069SOL    HW244140   1.183   2.014   0.963 -0.0021  2.0635  0.1183
14070SOL     OW44141   2.131   3.350   0.280 -0.1406  0.2108  0.5312
14070SOL    HW144142   2.085   3.310   0.206 -2.1777  0.3240  1.6530
14070SOL    HW244143   2.139   3.280   0.344  1.7056  0.0843  0.2137
14071SOL     OW44144   1.173   1.970   7.973 -0.4620  0.2812  0.0807
14071SOL    HW144145   1.152   1.933   7.887 -2.5853  1.9977 -0.2228
14071SOL    HW244146   1.236   2.039   7.955  2.2679 -1.9440  0.4683
14072SOL     OW44147   7.127   8.807   0.410  0.2595  1.2384  0.0497
14072SOL    HW144148   7.037   8.786   0.385  0.4646 -4.0458  2.5640
14072SOL    HW244149   7.179   8.784   0.333 -0.2411 -0.9314  0.2932
14073SOL     OW44150   3.577   7.650   3.801  0.0415 -0.6779  0.1518
14073SOL    HW144151   3.555   7.625   3.891 -1.1844  1.8985  0.6707
14073SOL    HW244152   3.502   7.623   3.749 -1.3610  1.8323  0.7381
14074SOL     OW44153   1.602   2.106   2.202  0.2627 -0.2118 -0.3855
14074SOL    HW144154   1.655   2.068   2.272  0.2556  0.8497  0.2086
14074SOL    HW244155   1.629   2.058   2.123  2.1013  0.2729 -0.1016
14075SOL     OW44156   8.386   5.717   0.289  0.3529 -0.2690 -0.2764
14075SOL    HW144157   8.421   5.798   0.251  0.4467  0.0646  0.5095
14075SOL    HW244158   8.455   5.653   0.277  0.9149  0.1767  0.5342
14076SOL     OW44159   2.390   3.548   7.326  0.0665 -0.3841 -0.5009
14076SOL    HW144160   2.382   3.456   7.301  1.0290 -0.7976  0.6151
14076SOL    HW244161   2.449   3.548   7.402 -0.2678  1.1078 -0.1947
14077SOL     OW44162   5.120   4.095   6.486 -0.0329  0.6314  0.1488
14077SOL    HW144163   5.112   4.057   6.574 -2.1875  2.7725  1.0127
14077SOL    HW244164   5.045   4.060   6.438 -1.3640  2.6733  0.5970
14078SOL     OW44165   7.849   6.401   8.749  0.1131 -0.4381 -0.5792
14078SOL    HW144166   7.899   6.398   8.667  1.3819 -0.3355  0.1746
14078SOL    HW244167   7.913   6.386   8.817 -1.1117 -1.6516  0.3581
14079SOL     OW44168   2.771   6.643   5.159  0.0125 -0.0146 -0.0351
14079SOL    HW144169   2.831   6.659   5.086  0.9010 -0.0416  0.6678
14079SOL    HW244170   2.717   6.721   5.163 -0.5693 -0.3383 -1.1989
14080SOL     OW44171   6.165   4.054   4.259 -0.1468 -0.0835  0.6212
14080SOL    HW144172   6.141   4.133   4.307  0.2130  0.9480 -0.8374
14080SOL    HW244173   6.194   3.993   4.327 -0.8747  0.8573  1.8209
14081SOL     OW44174   3.375   0.757   7.079 -0.0550 -0.2838  0.0985
14081SOL    HW144175   3.390   0.842   7.120  2.3991 -0.1382 -0.9218
14081SOL    HW244176   3.364   0.697   7.153 -0.0354  0.6322  0.8718
14082SOL     OW44177   6.580   2.040   4.570 -0.2127 -0.2810 -0.2743
14082SOL    HW144178   6.491   2.075   4.564  0.3555  1.0360 -1.7255
14082SOL    HW244179   6.571   1.947   4.550 -1.3461 -0.3539  0.4554
14083SOL     OW44180   0.351   2.606   4.598  0.1420 -0.0786  0.1413
14083SOL    HW144181   0.371   2.541   4.531  2.2985 -0.4930  1.0848
14083SOL    HW244182   0.284   2.564   4.652 -0.2150 -0.5280 -0.6377
14084SOL     OW44183   3.097   2.699   0.626  0.1948  0.3548  0.1246
14084SOL    HW144184   3.185   2.718   0.660 -0.1590  3.1357 -0.2806
14084SOL    HW244185   3.038   2.727   0.696 -0.4346  2.4292 -1.1675
14085SOL     OW44186   1.566   8.466   0.213 -0.0415  0.3348 -0.1984
14085SOL    HW144187   1.485   8.508   0.184  0.3410  2.2814  1.3105
14085SOL    HW244188   1.581   8.502   0.301  2.1638 -0.4096 -0.2125
14086SOL     OW44189   6.364   1.566   7.817 -0.4924  0.1189  0.0004
14086SOL    HW144190   6.327   1.604   7.738 -0.6011  0.4278  0.1982
14086SOL    HW244191   6.291   1.566   7.880 -0.7029 -1.0919 -0.2252
14087SOL     OW44192   7.711   4.421   2.881  0.0819  0.0424  0.3021
14087SOL    HW144193   7.636   4.443   2.936  0.3188  0.7862  0.3413
14087SOL    HW244194   7.673   4.391   2.799 -0.2609  0.3986  0.3281
14088SOL     OW44195   3.387   1.924   4.043  0.1990 -0.0577 -0.0218
14088SOL    HW144196   3.441   1.857   4.002  0.7909  1.2648 -1.5044
14088SOL    HW244197   3.423   1.934   4.131 -0.4848 -2.2830  0.5603
14089SOL     OW44198   3.521   4.028   6.431  0.2174  0.2442 -0.5122
14089SOL    HW144199   3.582   3.966   6.470 -0.7951 -0.5335 -0.1389
14089SOL    HW244200   3.492   4.083   6.504 -2.0926 -1.5552  0.0498
14090SOL     OW44201   3.718   7.363   7.153 -0.0102 -0.4703 -0.5767
14090SOL    HW144202   3.796   7.339   7.203  0.6942  0.7680 -1.0481
14090SOL    HW244203   3.704   7.289   7.094  1.5912 -0.1730 -1.3968
14091SOL     OW44204   0.230   2.729   1.000  0.0036  0.2604 -0.2858
14091SOL    HW144205   0.216   2.747   0.907 -0.8725 -0.1901 -0.2471
14091SOL    HW244206   0.194   2.806   1.044 -0.2713  0.1361 -0.2903
14092SOL     OW44207   4.749   3.876   7.098 -0.4417  0.3999 -0.4568
14092SOL    HW144208   4.780   3.839   7.015  0.6770 -0.5981  0.3596
14092SOL    HW244209   4.656   3.853   7.102 -0.0941 -1.1729 -0.6280
14093SOL     OW44210   4.996   7.656   2.459  0.1635  0.2978  0.0837
14093SOL    HW144211   4.960   7.586   2.514 -1.0303  1.7293  1.1794
14093SOL    HW244212   4.946   7.650   2.378 -0.0222 -0.0301  0.2184
14094SOL     OW44213   8.284   4.696   7.145  0.2508  0.2865  0.1714
14094SOL    HW144214   8.361   4.647   7.117 -0.4385 -1.3074  0.9471
14094SOL    HW244215   8.278   4.681   7.239 -0.5505  1.0575  0.2626
14095SOL     OW44216   0.309   2.906   1.766 -0.4148 -0.0379 -0.7467
14095SOL    HW144217   0.337   2.818   1.794 -1.4365 -0.1238  0.1142
14095SOL    HW244218   0.365   2.966   1.814 -0.0802 -0.2190 -0.9118
14096SOL     OW44219   6.298   6.236   2.181  0.1377  0.1597 -0.1289
14096SOL    HW144220   6.218   6.221   2.231 -0.0478  0.5689 -0.2970
14096SOL    HW244221   6.350   6.296   2.235  0.5855 -0.5466  0.2408
14097SOL     OW44222   5.944   6.002   3.292  0.1292 -0.3593 -0.5948
14097SOL    HW144223   5.925   5.914   3.258 -0.9017  0.2264 -1.6330
14097SOL    HW244224   5.857   6.037   3.316  0.4912  0.4994 -0.5064
14098SOL     OW44225   3.612   5.742   2.537  0.2618  0.4131 -0.2158
14098SOL    HW144226   3.666   5.776   2.466  3.6780 -1.6873  1.1501
14098SOL    HW244227   3.606   5.815   2.600 -0.1454  1.2592 -1.1997
14099SOL     OW44228   8.525   4.558   1.503 -0.4424 -0.0787 -0.7851
14099SOL    HW144229   8.468   4.603   1.442  0.7640  0.4508 -1.5567
14099SOL    HW244230   8.587   4.511   1.447 -0.1412 -0.6635  0.0276
14100SOL     OW44231   8.627   7.895   4.607  0.1096 -0.0601  0.1171
14100SOL    HW144232   8.615   7.978   4.562  0.8168  1.2684  2.2482
14100SOL    HW244233   8.594   7.910   4.696  2.8513 -1.0647  1.4436
14101SOL     OW44234   7.444   7.603   6.319  0.2582  0.5173 -0.2511
14101SOL    HW144235   7.440   7.524   6.266  0.4827  0.8704 -0.7956
14101SOL    HW244236   7.425   7.572   6.408  2.8401 -0.6135  0.0338
14102SOL     OW44237   3.389   5.135   8.556  0.5761  0.2350  0.3084
14102SOL    HW144238   3.373   5.211   8.611  0.2223 -0.6686  1.4863
14102SOL    HW244239   3.370   5.166   8.467  0.1868  1.4378  0.7843
14103SOL     OW44240   6.675   1.492   1.228 -0.0804 -0.0622 -0.0072
14103SOL    HW144241   6.678   1.443   1.311 -1.6631 -0.4080 -0.1334
14103SOL    HW244242   6.731   1.568   1.244 -0.4531 -0.0560  1.4336
14104SOL     OW44243   8.094   3.215   1.813  0.4968 -0.0998 -0.2178
14104SOL    HW144244   8.007   3.177   1.811 -0.1599  1.1636  1.6980
14104SOL    HW244245   8.146   3.161   1.753 -1.4792 -1.1146 -1.0817
14105SOL     OW44246   1.940   2.984   4.381  0.1418 -0.0307  0.4155
14105SOL    HW144247   1.862   2.956   4.428  0.7494 -2.5401  0.0565
14105SOL    HW244248   2.010   2.929   4.416  1.1007 -0.1449 -1.5678
14106SOL     OW44249   4.813   8.128   6.625 -0.3064  0.3284 -0.1158
14106SOL    HW144250   4.832   8.204   6.570  0.7606  1.4099  1.6545
14106SOL    HW244251   4.894   8.077   6.626 -1.1750 -1.1976 -1.7323
14107SOL     OW44252   5.650   5.101   1.111 -0.5066  0.7276  0.1352
14107SOL    HW144253   5.603   5.176   1.077  0.7642  0.6160 -2.0343
14107SOL    HW244254   5.674   5.050   1.034 -0.3957 -1.3693  1.4604
14108SOL     OW44255   6.731   5.229   2.907  0.0937 -0.0403 -0.3239
14108SOL    HW144256   6.699   5.140   2.925 -1.9992  0.6971 -0.1127
14108SOL    HW244257   6.719   5.276   2.990 -1.9744  1.2585 -1.2714
14109SOL     OW44258   4.742   4.798   5.918  0.6243  0.3421  0.1017
14109SOL    HW144259   4.750   4.792   5.823  1.2522  0.7913  0.1222
14109SOL    HW244260   4.733   4.707   5.947 -2.0809  0.3118 -0.5679
14110SOL     OW44261   4.928   2.611   5.725 -0.2125 -0.4109  0.6205
14110SOL    HW144262   4.834   2.597   5.735 -0.5851 -1.5319 -2.8105
14110SOL    HW244263   4.961   2.527   5.693  1.7168  0.3551  0.4461
14111SOL     OW44264   3.511   8.702   6.545 -0.4222 -0.0799  0.3280
14111SOL    HW144265   3.485   8.691   6.637 -2.0750 -1.1293 -0.2108
14111SOL    HW244266   3.550   8.618   6.521 -0.9403 -0.1699 -0.2095
14112SOL     OW44267   7.154   3.398   6.404  0.2011 -0.4704  0.0839
14112SOL    HW144268   7.118   3.459   6.468  0.8909 -1.2732  1.2767
14112SOL    HW244269   7.079   3.343   6.380  0.0649 -0.5491  0.6714
14113SOL     OW44270   2.668   1.498   8.045 -0.7878 -0.4365 -0.0496
14113SOL    HW144271   2.666   1.459   7.958  0.6852 -0.5957 -0.0441
14113SOL    HW244272   2.719   1.436   8.098 -0.8407  0.1243  0.6758
14114SOL     OW44273   6.513   5.808   0.317  0.1574 -0.3661 -0.3561
14114SOL    HW144274   6.471   5.806   0.231  0.6791 -1.4840 -0.6084
14114SOL    HW244275   6.502   5.719   0.350 -0.6297  0.2292  1.0396
14115SOL     OW44276   2.259   4.593   8.206 -0.8090  0.3325 -0.2783
14115SOL    HW144277   2.237   4.667   8.263 -0.1697  1.0461 -0.9339
14115SOL    HW244278   2.201   4.523   8.235 -1.1164  0.9487  0.6584
14116SOL     OW44279   5.206   8.591   1.992 -0.3344  0.1295  0.3195
14116SOL    HW144280   5.116   8.586   2.024 -0.0999  1.2238  1.1833
14116SOL    HW244281   5.253   8.525   2.043 -0.9537 -1.7187 -1.3617
14117SOL     OW44282   5.981   2.830   3.667  0.8560  0.1859  0.0731
14117SOL    HW144283   5.975   2.806   3.575  0.6008  1.2418 -0.2047
14117SOL    HW244284   5.895   2.868   3.687  0.8421 -0.2074  0.8002
14118SOL     OW44285   0.653   4.517   7.198  0.1122 -1.2144  0.1801
14118SOL    HW144286   0.736   4.563   7.194 -0.9017  0.6860 -0.4758
14118SOL    HW244287   0.653   4.473   7.283  2.0088 -1.7663 -0.0773
14119SOL     OW44288   6.535   8.421   2.014  0.3501  0.0821  0.6042
14119SOL    HW144289   6.511   8.363   2.086  0.2519  0.9989  1.3357
14119SOL    HW244290   6.451   8.449   1.977  0.3159  1.4027  1.6204
14120SOL     OW44291   7.747   0.621   0.453 -0.5802 -0.2435 -0.0536
14120SOL    HW144292   7.820   0.657   0.403 -1.0006  0.4584 -0.1795
14120SOL    HW244293   7.778   0.535   0.483 -0.0285 -0.3269 -0.8352
14121SOL     OW44294   0.066   4.266   5.447 -0.1644 -0.7714 -0.0903
14121SOL    HW144295   0.044   4.250   5.539 -0.9014  2.5944  0.4551
14121SOL    HW244296  -0.011   4.236   5.399 -1.3332  0.6593  0.7896
14122SOL     OW44297   1.807   4.485   7.181  0.1299 -0.3828 -0.0720
14122SOL    HW144298   1.757   4.564   7.202 -1.2869 -1.1930 -0.2416
14122SOL    HW244299   1.847   4.460   7.264  0.2247  0.2588  0.0856
14123SOL     OW44300   7.543   2.348   0.948 -0.5091  0.1063  0.3882
14123SOL    HW144301   7.494   2.382   1.022 -0.5171 -1.5779  1.1870
14123SOL    HW244302   7.477   2.328   0.882 -0.4998  1.6203 -0.1274
14124SOL     OW44303   6.172   3.651   7.564  0.1486  0.2533 -0.2549
14124SOL    HW144304   6.149   3.707   7.490  1.1750  0.2307 -0.6002
14124SOL    HW244305   6.088   3.622   7.599 -0.3698  1.1705 -0.7132
14125SOL     OW44306   1.663   8.453   1.948  0.7148  0.2903 -0.1926
14125SOL    HW144307   1.585   8.416   1.991  0.0698  1.7793 -0.0264
14125SOL    HW244308   1.730   8.385   1.958 -0.6938 -1.2467 -0.7994
14126SOL     OW44309   0.798   3.989   2.334 -0.2888  0.0119 -0.6956
14126SOL    HW144310   0.856   4.030   2.398 -0.4681 -0.7873 -0.0135
14126SOL    HW244311   0.739   4.059   2.307 -0.0072  0.4369 -0.2258
14127SOL     OW44312   7.213   4.335   7.632 -0.2463  0.0085  0.0922
14127SOL    HW144313   7.119   4.326   7.649 -0.5962  1.2385 -1.0414
14127SOL    HW244314   7.237   4.419   7.670  0.5454 -0.5555  0.8887
14128SOL     OW44315   7.112   8.673   8.223  0.4397 -0.3994 -0.1558
14128SOL    HW144316   7.075   8.690   8.136 -0.4155  0.1033  0.2962
14128SOL    HW244317   7.155   8.754   8.248 -2.1167  0.6497  1.2424
14129SOL     OW44318   3.951   5.272   0.863  0.2204 -0.2448  0.0491
14129SOL    HW144319   4.001   5.272   0.944  2.1597 -4.0861 -0.8809
14129SOL    HW244320   4.015   5.294   0.795 -0.2011 -1.4852 -0.8038
14130SOL     OW44321   5.807   7.412   7.255  0.3283 -0.0227  0.3835
14130SOL    HW144322   5.772   7.339   7.306 -1.9000 -0.9981 -2.2728
14130SOL    HW244323   5.739   7.478   7.257  0.7072  0.4085 -0.3294
14131SOL     OW44324   1.701   6.299   6.935 -0.3346 -0.3199 -0.2107
14131SOL    HW144325   1.765   6.362   6.968 -0.7341  0.1652 -0.3595
14131SOL    HW244326   1.650   6.348   6.870 -1.2690 -0.5291  0.3510
14132SOL     OW44327   3.295   3.739   0.983 -0.1597  0.1846  0.3695
14132SOL    HW144328   3.239   3.694   1.046  3.1523 -1.7785  2.1885
14132SOL    HW244329   3.312   3.824   1.023  0.3850 -0.3153  1.2359
14133SOL     OW44330   2.903   6.354   6.180  0.1972  0.3921  0.0619
14133SOL    HW144331   2.827   6.367   6.237  0.9900  1.9832  0.8224
14133SOL    HW244332   2.970   6.413   6.216  1.1809  0.4130 -1.7045
14134SOL     OW44333   0.209   8.504   1.241  0.3140 -0.8084  0.3445
14134SOL    HW144334   0.208   8.564   1.166 -1.5525 -2.4281 -1.0393
14134SOL    HW244335   0.151   8.432   1.215 -0.3332 -1.5022  3.3325
14135SOL     OW44336   0.198   6.297   4.290 -0.1761 -0.5829  0.5032
14135SOL    HW144337   0.190   6.321   4.383 -1.2931  2.0060 -0.1796
14135SOL    HW244338   0.108   6.304   4.256  0.1754 -1.7611 -0.7373
14136SOL     OW44339   7.071   3.534   8.336 -0.1864 -0.3772 -0.3000
14136SOL    HW144340   7.077   3.448   8.294 -2.5735  0.2458 -2.1444
14136SOL    HW244341   7.127   3.591   8.283 -0.2439 -0.3542 -0.3354
14137SOL     OW44342   4.203   8.425   5.931  0.0296  0.3387  0.2718
14137SOL    HW144343   4.294   8.454   5.929 -0.3236  1.4657 -0.3691
14137SOL    HW244344   4.160   8.486   5.991 -0.3537 -0.0617  0.4137
14138SOL     OW44345   0.241   6.811   0.436  0.2398 -0.0966  0.7404
14138SOL    HW144346   0.178   6.881   0.421 -0.6746 -0.9258  0.5491
14138SOL    HW244347   0.291   6.839   0.512 -1.4809 -0.1183  1.9490
14139SOL     OW44348   7.043   2.661   3.539 -0.0790 -0.2088 -0.1268
14139SOL    HW144349   7.094   2.730   3.495  0.0419  0.0160  0.3572
14139SOL    HW244350   7.004   2.611   3.467 -1.3209  1.2115 -0.4930
14140SOL     OW44351   0.085   8.281   3.867  0.8215  0.2410 -0.0993
14140SOL    HW144352   0.094   8.309   3.776  2.2204 -0.4118 -0.1855
14140SOL    HW244353   0.173   8.289   3.904  0.3797  0.0227  1.0598
14141SOL     OW44354   5.124   4.802   3.284 -0.3687  0.4452  0.0050
14141SOL    HW144355   5.080   4.717   3.287  0.3919 -0.0979 -2.1741
14141SOL    HW244356   5.092   4.843   3.204  1.1346  1.1138 -0.3001
14142SOL     OW44357   8.517   5.460   7.443 -0.2865 -0.4291 -0.1701
14142SOL    HW144358   8.613   5.464   7.440 -0.1925  1.6007  2.1388
14142SOL    HW244359   8.498   5.422   7.529 -1.5621 -0.4378 -0.4309
14143SOL     OW44360   8.154   4.436   5.635  0.2016 -0.4807 -0.1756
14143SOL    HW144361   8.180   4.408   5.723 -0.9430  0.0342  0.3496
14143SOL    HW244362   8.070   4.480   5.648  0.8128  1.1199 -1.2863
14144SOL     OW44363   1.147   0.174   3.368  0.2125  0.0695  0.0378
14144SOL    HW144364   1.167   0.085   3.396  0.4484  0.4145  1.0006
14144SOL    HW244365   1.110   0.163   3.280  1.2235 -0.8851 -0.3006
14145SOL     OW44366   8.785   4.664   3.812 -0.4687  0.5236 -0.4899
14145SOL    HW144367   8.866   4.690   3.856 -0.1769 -0.2107 -0.5820
14145SOL    HW244368   8.725   4.737   3.829  0.1587  1.0091 -0.2956
14146SOL     OW44369   2.982   4.122   7.499 -0.0732 -0.0653 -0.5687
14146SOL    HW144370   3.013   4.056   7.562 -0.8032 -1.1185 -1.2805
14146SOL    HW244371   2.890   4.135   7.523 -0.1843 -0.0149 -1.0241
14147SOL     OW44372   2.233   8.860   4.824 -0.3624 -0.1191 -0.1040
14147SOL    HW144373   2.159   8.921   4.828 -1.0050 -0.6159 -2.5501
14147SOL    HW244374   2.309   8.914   4.849 -1.2422  0.9913  0.2869
14148SOL     OW44375   3.257   7.624   7.139 -0.6225  0.1808 -1.0241
14148SOL    HW144376   3.350   7.605   7.125 -0.4390 -2.9973  2.6332
14148SOL    HW244377   3.256   7.699   7.199 -0.4046  0.1953 -1.0389
14149SOL     OW44378   5.724   7.280   2.433 -0.0821 -0.8883  0.2280
14149SOL    HW144379   5.674   7.351   2.392  2.8188 -0.1842 -2.4941
14149SOL    HW244380   5.684   7.200   2.401 -0.7988 -0.4031 -0.1052
14150SOL     OW44381   2.010   2.828   5.976 -0.5956 -0.0001  0.4075
14150SOL    HW144382   2.045   2.911   6.007  1.1641 -0.5819  0.0819
14150SOL    HW244383   2.033   2.826   5.883 -0.8992 -0.7112  0.3430
14151SOL     OW44384   5.975   4.389   7.075 -0.1673 -0.1692 -0.5352
14151SOL    HW144385   6.064   4.386   7.040  0.1738 -0.8175  0.3594
14151SOL    HW244386   5.948   4.480   7.065  0.6281  0.0477 -0.7344
14152SOL     OW44387   0.434   5.383   0.559 -0.0998  0.1594  0.2287
14152SOL    HW144388   0.411   5.303   0.511 -0.0201 -0.0127  0.4746
14152SOL    HW244389   0.452   5.353   0.648 -0.5765  0.5242  0.4526
14153SOL     OW44390   4.991   4.736   4.124  0.2470  0.1076  0.2120
14153SOL    HW144391   5.043   4.705   4.198 -0.6979 -0.4905  0.6486
14153SOL    HW244392   5.000   4.831   4.127  1.5427  0.0013  0.0954
14154SOL     OW44393   5.127   5.804   8.288  0.0529  0.6795 -0.5073
14154SOL    HW144394   5.144   5.886   8.242 -0.9767  1.2042  0.0058
14154SOL    HW244395   5.151   5.823   8.379  1.6054 -0.1931 -0.6966
14155SOL     OW44396   7.376   6.519   7.515 -0.3360 -0.1464 -0.1725
14155SOL    HW144397   7.295   6.496   7.559 -0.8963  1.5110 -0.2499
14155SOL    HW244398   7.418   6.583   7.572  0.0469  0.3222 -0.9478
14156SOL     OW44399   2.277   5.092   1.534 -0.3515 -1.2944 -0.0691
14156SOL    HW144400   2.363   5.126   1.509 -0.8544  1.8623  1.9036
14156SOL    HW244401   2.222   5.109   1.457  0.0814 -0.0674 -0.1391
14157SOL     OW44402   2.296   7.474   2.973  0.1150  0.2501 -0.0139
14157SOL    HW144403   2.277   7.506   3.062 -0.3036 -0.5767  0.2004
14157SOL    HW244404   2.390   7.456   2.974  0.6353  2.5933 -0.5097
14158SOL     OW44405   3.863   3.989   5.748  0.1214  0.3139 -0.0308
14158SOL    HW144406   3.811   4.028   5.818 -1.2854  0.2486 -1.0074
14158SOL    HW244407   3.899   3.910   5.787 -0.6445  0.2748  0.6341
14159SOL     OW44408   2.157   8.260   0.263  0.1368  0.4215 -0.5118
14159SOL    HW144409   2.220   8.204   0.308  0.6109  0.2378 -1.3763
14159SOL    HW244410   2.091   8.199   0.230 -0.0869  0.5275 -0.2579
14160SOL     OW44411   8.622   7.309   0.995  0.0396  0.0373  0.2143
14160SOL    HW144412   8.557   7.327   0.927  0.9014  0.5043 -0.4938
14160SOL    HW244413   8.589   7.356   1.072 -0.9612 -0.5370  0.1517
14161SOL     OW44414   1.187   2.538   4.732  0.7303  0.1867  0.2466
14161SOL    HW144415   1.221   2.457   4.771 -0.0566 -0.2559  0.0306
14161SOL    HW244416   1.093   2.536   4.749  0.3093 -0.1359 -1.8436
14162SOL     OW44417   2.087   1.049   2.414 -0.2063  0.0577  0.3365
14162SOL    HW144418   2.160   1.033   2.474  0.4562  0.0692 -0.4660
14162SOL    HW244419   2.017   1.081   2.471 -0.1165 -1.4334  1.3553
14163SOL     OW44420   4.159   2.779   0.366 -1.0064 -0.1592 -0.1588
14163SOL    HW144421   4.140   2.732   0.446 -0.9380 -0.5949 -0.3969
14163SOL    HW244422   4.168   2.711   0.299  3.0788 -0.2299  0.2009
14164SOL     OW44423   6.385   8.240   2.154  0.9633 -0.3567 -0.2159
14164SOL    HW144424   6.317   8.271   2.093 -0.4256 -0.3977  1.2396
14164SOL    HW244425   6.403   8.150   2.126  0.5248 -0.2917 -0.7248
14165SOL     OW44426   8.042   8.813   4.674 -0.0785  0.4391  0.4206
14165SOL    HW144427   8.060   8.879   4.741 -0.1707  0.8726  0.0198
14165SOL    HW244428   8.075   8.851   4.593 -0.7808  0.2936  0.0660
14166SOL     OW44429   2.219   8.157   8.647  0.0146 -0.2457  0.4860
14166SOL    HW144430   2.223   8.178   8.553 -4.0737  1.8874  0.5612
14166SOL    HW244431   2.199   8.063   8.649  0.0608 -0.3041 -0.7728
14167SOL     OW44432   5.443   2.198   6.284 -0.4416 -1.1281  0.1156
14167SOL    HW144433   5.491   2.278   6.307 -1.4156  0.3509 -2.6252
14167SOL    HW244434   5.511   2.134   6.265  0.4310  0.0783 -0.9402
14168SOL     OW44435   5.189   5.602   6.185 -0.2858  0.1354 -0.1214
14168SOL    HW144436   5.200   5.657   6.107 -0.5783 -2.8198 -2.3991
14168SOL    HW244437   5.262   5.541   6.182 -0.9289 -0.7466  1.2816
14169SOL     OW44438   1.339   2.341   7.559 -0.0057 -0.2843  0.1669
14169SOL    HW144439   1.271   2.406   7.544  0.6596  0.5762  0.7051
14169SOL    HW244440   1.414   2.392   7.589  0.9111 -1.1936 -0.4994
14170SOL     OW44441   1.572   5.285   0.999 -0.4515  0.4164 -0.5595
14170SOL    HW144442   1.579   5.296   1.093  0.2498  0.8403 -0.6528
14170SOL    HW244443   1.500   5.223   0.987  0.3304 -0.7080  0.3183
14171SOL     OW44444   8.240   3.135   4.416 -0.7444 -0.8374 -0.4451
14171SOL    HW144445   8.159   3.186   4.414 -1.6513 -2.2497 -1.4074
14171SOL    HW244446   8.238   3.090   4.501  0.0147  0.5828  0.3666
14172SOL     OW44447   0.772   3.122   8.568  0.0962  0.5980  0.0933
14172SOL    HW144448   0.750   3.188   8.634 -0.1306  0.8672 -0.2424
14172SOL    HW244449   0.797   3.045   8.618 -4.3615 -0.7793  0.6716
14173SOL     OW44450   7.312   4.704   1.036 -0.5562 -0.0771 -0.5248
14173SOL    HW144451   7.238   4.651   1.008 -0.2147 -2.4536  2.4808
14173SOL    HW244452   7.387   4.645   1.031  0.7670  1.6084 -1.4250
14174SOL     OW44453   7.068   0.857   3.814 -0.1509  0.1734  0.5143
14174SOL    HW144454   7.040   0.927   3.755 -1.0857  0.0682  0.8177
14174SOL    HW244455   7.038   0.776   3.771  0.3532  0.0054  0.4771
14175SOL     OW44456   6.228   3.040   2.106  0.0932 -0.0422  0.1566
14175SOL    HW144457   6.311   2.993   2.101 -0.9763 -1.9359 -0.4912
14175SOL    HW244458   6.172   2.986   2.161 -1.1488  0.5255 -0.5048
14176SOL     OW44459   7.846   3.821   7.021 -0.1598  0.1648  0.1576
14176SOL    HW144460   7.867   3.835   6.928  0.5265 -0.3082  0.2369
14176SOL    HW244461   7.815   3.731   7.026  1.2966 -0.3403  0.6204
14177SOL     OW44462   7.152   2.139   1.650  0.1134 -0.1756  0.2247
14177SOL    HW144463   7.187   2.197   1.718 -0.0028  2.0993 -1.5103
14177SOL    HW244464   7.229   2.115   1.597 -0.0266 -0.5885  0.2040
14178SOL     OW44465   2.175   7.644   7.648 -0.6086 -0.0851 -0.1498
14178SOL    HW144466   2.180   7.657   7.743  0.6532 -0.0775 -0.1995
14178SOL    HW244467   2.234   7.570   7.631 -2.0194 -1.1124 -0.7537
14179SOL     OW44468   3.949   3.045   3.817 -0.4804  0.2825  0.4802
14179SOL    HW144469   3.893   3.000   3.754 -1.4549  0.9838  0.8309
14179SOL    HW244470   3.890   3.103   3.865  0.5995  1.3080  0.6164
14180SOL     OW44471   1.857   4.033   5.893 -0.1667 -0.9259 -0.0416
14180SOL    HW144472   1.776   4.025   5.842  0.3633 -1.2187 -0.8677
14180SOL    HW244473   1.844   4.109   5.949 -0.6741 -0.4416 -0.8089
14181SOL     OW44474   8.865   3.361   6.925 -0.2334 -0.1298 -0.1155
14181SOL    HW144475   8.797   3.294   6.935 -1.2781  1.0931  1.3152
14181SOL    HW244476   8.915   3.356   7.007  0.2861  0.1898 -0.4083
14182SOL     OW44477   7.044   0.583   6.320 -0.2691 -0.1985  0.3023
14182SOL    HW144478   7.099   0.527   6.375  1.4312 -0.7783 -1.8117
14182SOL    HW244479   7.002   0.523   6.259 -0.1245  0.6040 -0.6200
14183SOL     OW44480   1.758   7.106   1.308 -0.5959  0.6444 -0.0678
14183SOL    HW144481   1.784   7.187   1.264 -2.0478  0.2115 -1.7880
14183SOL    HW244482   1.671   7.124   1.343 -0.2778  0.3108  0.9555
14184SOL     OW44483   7.363   2.075   1.826 -0.2436  0.3652  0.3972
14184SOL    HW144484   7.338   2.003   1.883  0.7898 -0.7089 -0.4587
14184SOL    HW244485   7.388   2.033   1.744  0.0735  1.7304 -0.2327
14185SOL     OW44486   4.395   0.570   7.120  0.1653  0.8444 -0.7522
14185SOL    HW144487   4.372   0.479   7.139  2.2739  0.0408 -1.7536
14185SOL    HW244488   4.466   0.590   7.180 -2.7040  3.2579  2.2486
14186SOL     OW44489   5.533   2.289   5.276  0.2223  0.6565  0.0209
14186SOL    HW144490   5.517   2.374   5.235  0.2165 -0.0626 -1.5762
14186SOL    HW244491   5.457   2.236   5.251  1.5182 -0.6219 -1.4259
14187SOL     OW44492   3.608   6.420   1.799  0.1484 -0.0853 -0.3152
14187SOL    HW144493   3.648   6.436   1.884  0.2639  3.2225 -0.8872
14187SOL    HW244494   3.529   6.370   1.819 -1.2652  2.8024  2.1577
14188SOL     OW44495   4.658   8.820   2.854 -0.0804 -0.5813  0.0266
14188SOL    HW144496   4.712   8.865   2.919 -0.3794 -0.1336 -0.0282
14188SOL    HW244497   4.597   8.767   2.905 -0.9772  0.5357  0.1514
14189SOL     OW44498   7.403   6.593   2.673  0.2285 -0.1002 -0.5019
14189SOL    HW144499   7.311   6.603   2.646  0.3133 -0.4093 -0.9148
14189SOL    HW244500   7.449   6.568   2.593  0.4188 -1.4409 -0.0059
14190SOL     OW44501   6.596   6.083   3.522 -0.3363  0.1304 -0.3475
14190SOL    HW144502   6.642   6.033   3.589 -0.4292  0.3838 -0.0927
14190SOL    HW244503   6.530   6.023   3.488  0.3554 -0.3287 -0.9113
14191SOL     OW44504   6.541   8.156   4.088  0.0386  0.2462 -0.2047
14191SOL    HW144505   6.535   8.221   4.158  1.3889 -0.3313  0.4909
14191SOL    HW244506   6.521   8.073   4.131  1.3237 -0.1745 -0.3748
14192SOL     OW44507   7.673   5.609   3.439 -0.2022  0.4508 -0.2543
14192SOL    HW144508   7.592   5.655   3.461 -1.0300 -0.9301 -0.3037
14192SOL    HW244509   7.645   5.533   3.389  0.6731 -2.3083  3.0688
14193SOL     OW44510   3.670   0.956   0.169 -0.0974 -0.5442 -0.2757
14193SOL    HW144511   3.587   0.965   0.215 -0.1025 -0.2478 -0.3394
14193SOL    HW244512   3.652   0.891   0.101  0.6543 -3.0907  1.8267
14194SOL     OW44513   8.790   0.565   8.251 -0.2775 -0.6086  0.1292
14194SOL    HW144514   8.700   0.534   8.245  0.3229 -2.1937 -1.5843
14194SOL    HW244515   8.806   0.577   8.345 -2.5696  0.7683  0.4180
14195SOL     OW44516   3.472   7.421   0.457  0.1623 -0.5055  0.6305
14195SOL    HW144517   3.525   7.494   0.427 -0.8318  0.5461  1.3485
14195SOL    HW244518   3.500   7.347   0.403  1.3332  0.3444  0.0335
14196SOL     OW44519   6.611   1.962   5.624  0.9158 -0.1878  0.2396
14196SOL    HW144520   6.655   1.922   5.548  0.9717  1.9749 -0.9554
14196SOL    HW244521   6.574   1.888   5.672 -3.0016 -1.6776 -4.2461
14197SOL     OW44522   2.360   1.276   0.138 -0.0567 -0.1825  0.2543
14197SOL    HW144523   2.326   1.190   0.164  1.2200 -0.5623  0.7433
14197SOL    HW244524   2.367   1.272   0.043  1.1565 -1.0855  0.3644
14198SOL     OW44525   2.774   7.525   6.438 -0.2410  0.1299 -0.5334
14198SOL    HW144526   2.723   7.606   6.428 -0.1965 -0.0067 -2.1908
14198SOL    HW244527   2.844   7.548   6.499 -1.6087  0.6390  0.9157
14199SOL     OW44528   4.507   7.624   7.225  0.3459  0.1060 -0.1610
14199SOL    HW144529   4.495   7.585   7.311 -0.7539  1.6939  0.4711
14199SOL    HW244530   4.431   7.596   7.174 -1.2804  2.4587  0.7743
14200SOL     OW44531   3.597   1.174   3.342 -0.2621 -0.0002  0.9570
14200SOL    HW144532   3.687   1.157   3.315 -0.8376 -2.5093  0.3218
14200SOL    HW244533   3.567   1.245   3.284  1.5177  1.5108  1.7966
14201SOL     OW44534   4.878   1.199   5.167  0.5913  0.0632 -0.1983
14201SOL    HW144535   4.854   1.184   5.076  0.5338 -1.3883  0.0399
14201SOL    HW244536   4.927   1.121   5.193 -0.8272 -0.3400  1.4840
14202SOL     OW44537   0.680   1.978   1.795 -0.1200 -0.3527 -0.1531
14202SOL    HW144538   0.585   1.970   1.797 -0.1303 -1.1382 -1.9400
14202SOL    HW244539   0.710   1.901   1.746  1.3063  0.7753 -1.1522
14203SOL     OW44540   1.291   8.570   8.444 -0.3154  0.2989  0.0530
14203SOL    HW144541   1.261   8.485   8.476 -0.4159  0.9943  1.9229
14203SOL    HW244542   1.354   8.548   8.375  0.1577 -1.3241  0.9341
14204SOL     OW44543   6.893   2.973   3.850 -0.3615 -0.1635 -0.0382
14204SOL    HW144544   6.960   2.967   3.918 -1.1683 -0.1090  0.7875
14204SOL    HW244545   6.871   2.882   3.829 -0.6541 -0.1829  0.3374
14205SOL     OW44546   6.800   3.565   8.691 -0.5523 -0.1092  0.0058
14205SOL    HW144547   6.740   3.637   8.707  0.8975  1.5022 -1.4370
14205SOL    HW244548   6.801   3.555   8.596  1.4525 -0.0528 -0.0240
14206SOL     OW44549   2.193   2.359   2.743  0.7484 -0.2180  0.1396
14206SOL    HW144550   2.178   2.433   2.802  0.1826 -0.3800  0.2053
14206SOL    HW244551   2.106   2.337   2.709  1.1131  0.1648 -1.1084
14207SOL     OW44552   3.169   1.956   0.314  0.3346 -0.2198  0.4143
14207SOL    HW144553   3.093   1.993   0.358  0.4485  0.8185 -0.2398
14207SOL    HW244554   3.136   1.877   0.271 -1.0511  1.5191 -1.9882
14208SOL     OW44555   0.065   5.825   3.726 -0.3946 -0.1341 -0.2861
14208SOL    HW144556   0.138   5.771   3.758 -0.9738 -0.2433  0.9214
14208SOL    HW244557   0.090   5.848   3.637 -0.0481 -2.2704 -0.7983
14209SOL     OW44558   4.109   7.793   0.095  0.2038 -0.3112  0.1406
14209SOL    HW144559   4.069   7.720   0.046  0.8421 -0.7172  0.2211
14209SOL    HW244560   4.134   7.856   0.027  2.2298 -1.4190 -0.2122
14210SOL     OW44561   3.991   5.110   5.011  0.4553 -0.1007 -0.1553
14210SOL    HW144562   3.977   5.053   5.087 -1.3371 -0.1784 -0.5159
14210SOL    HW244563   4.062   5.168   5.038  0.7961 -1.0446  1.0541
14211SOL     OW44564   6.061   6.104   0.875 -0.1972  0.3098 -0.3917
14211SOL    HW144565   6.139   6.158   0.859 -1.2394  1.5444 -1.6066
14211SOL    HW244566   6.038   6.070   0.789 -1.2154  0.2863 -0.1205
14212SOL     OW44567   7.593   4.463   6.188 -0.1042 -0.0034 -0.4369
14212SOL    HW144568   7.561   4.489   6.274  0.7532  1.9367 -0.6548
14212SOL    HW244569   7.527   4.402   6.156 -1.0255  0.1200  1.1178
14213SOL     OW44570   2.524   5.987   3.100 -0.2271 -0.8153  0.0196
14213SOL    HW144571   2.454   5.971   3.037 -1.7311  1.0713  1.0711
14213SOL    HW244572   2.579   6.054   3.058 -2.1196  1.6317  1.1744
14214SOL     OW44573   1.323   0.555   3.091 -0.2741  0.6569  0.1372
14214SOL    HW144574   1.277   0.616   3.033  0.7894  1.6155  0.2688
14214SOL    HW244575   1.322   0.472   3.044 -0.8720  1.0166 -0.5099
14215SOL     OW44576   3.739   0.445   6.722 -0.3693  0.5707  0.0123
14215SOL    HW144577   3.647   0.427   6.746 -0.1272 -0.1644  0.4496
14215SOL    HW244578   3.734   0.495   6.641 -1.1789  1.2594  0.4712
14216SOL     OW44579   7.866   7.558   7.890 -0.2905  0.6121  0.1108
14216SOL    HW144580   7.815   7.630   7.853 -0.3089 -0.4315 -2.0361
14216SOL    HW244581   7.846   7.560   7.984 -3.1482  1.1381 -0.4236
14217SOL     OW44582   5.498   1.854   3.157  0.1558  0.1041  0.0855
14217SOL    HW144583   5.442   1.789   3.198 -1.4450  0.7107 -1.0319
14217SOL    HW244584   5.567   1.871   3.221 -0.1608 -1.6743  0.9418
14218SOL     OW44585   1.759   0.357   3.386  0.4277  0.1422  0.6191
14218SOL    HW144586   1.833   0.408   3.352  1.2811  0.1663  2.4295
14218SOL    HW244587   1.699   0.352   3.312  1.4555  1.5989 -0.3884
14219SOL     OW44588   2.654   3.301   0.928  0.2629 -0.1739  0.0016
14219SOL    HW144589   2.725   3.355   0.893 -0.3033  0.1202 -0.7147
14219SOL    HW244590   2.608   3.267   0.851  0.3175 -1.3075  0.4483
14220SOL     OW44591   5.066   3.012   4.206  0.7644  0.1596 -0.2176
14220SOL    HW144592   5.115   3.064   4.144  1.5854  0.1817  0.4292
14220SOL    HW244593   5.102   2.923   4.197  1.0521  0.2089  0.3730
14221SOL     OW44594   7.272   8.068   7.698  0.1545  0.0089  0.2409
14221SOL    HW144595   7.236   8.155   7.682 -0.3354 -0.0865  0.8006
14221SOL    HW244596   7.322   8.048   7.619  0.5415  0.9289  0.2383
14222SOL     OW44597   3.032   5.891   1.270  0.3654  0.3017  0.3896
14222SOL    HW144598   3.007   5.815   1.323 -1.0933  0.3388 -0.2073
14222SOL    HW244599   3.076   5.949   1.331 -1.2761  0.3398  1.5944
14223SOL     OW44600   6.432   2.405   2.230  0.3223  0.2287 -0.1922
14223SOL    HW144601   6.401   2.399   2.320 -1.8506 -2.1334 -0.9519
14223SOL    HW244602   6.523   2.375   2.233  0.3053  0.2838  1.2182
14224SOL     OW44603   1.818   4.250   6.056  0.2883  0.1787 -0.4639
14224SOL    HW144604   1.841   4.253   6.149 -1.3302 -0.3027 -0.0047
14224SOL    HW244605   1.817   4.342   6.029  0.9518  0.3099 -0.0572
14225SOL     OW44606   8.113   3.779   7.526 -0.1855 -0.6814  0.3437
14225SOL    HW144607   8.019   3.797   7.529 -0.1836 -0.0694 -1.8181
14225SOL    HW244608   8.152   3.862   7.497  0.8746 -1.3307 -0.1245
14226SOL     OW44609   6.066   5.543   5.937 -0.0562  0.6985  0.6061
14226SOL    HW144610   6.053   5.493   5.856 -1.6157  0.9462  0.6770
14226SOL    HW244611   6.000   5.612   5.934 -0.7157  0.2006  2.4735
14227SOL     OW44612   3.278   2.608   5.858  0.1604 -0.1730  0.1277
14227SOL    HW144613   3.275   2.558   5.940  0.0310  0.6978  0.6687
14227SOL    HW244614   3.233   2.690   5.878 -2.6676 -1.1331 -1.6589
14228SOL     OW44615   4.031   2.143   5.634  0.2305  0.1873  0.4156
14228SOL    HW144616   4.031   2.148   5.730  1.3132  1.7059  0.3717
14228SOL    HW244617   4.009   2.232   5.606  0.8923  0.0053 -0.7315
14229SOL     OW44618   8.792   5.457   7.402 -0.2901 -0.2402  0.0510
14229SOL    HW144619   8.830   5.500   7.326 -0.1412 -2.3804 -1.1763
14229SOL    HW244620   8.857   5.392   7.429 -1.9627 -2.2884 -0.5567
14230SOL     OW44621   5.837   2.073   2.315  0.3490 -0.0413 -0.9930
14230SOL    HW144622   5.887   2.041   2.390 -0.0723  1.8604  0.1663
14230SOL    HW244623   5.902   2.079   2.244  1.1428 -0.2519 -0.3069
14231SOL     OW44624   7.255   2.292   5.043  0.5125  0.1550 -0.0468
14231SOL    HW144625   7.161   2.309   5.035  0.5982  0.3447 -0.6497
14231SOL    HW244626   7.286   2.281   4.953  0.8699 -1.0051  0.1984
14232SOL     OW44627   3.852   2.282   0.434  0.0004 -0.0192  0.6360
14232SOL    HW144628   3.757   2.278   0.447 -0.0958 -0.6028 -0.2164
14232SOL    HW244629   3.881   2.351   0.494 -1.3040  2.0088 -0.9198
14233SOL     OW44630   7.578   0.676   5.724 -0.0707  0.7371  0.5591
14233SOL    HW144631   7.575   0.756   5.672  0.5755  0.4772  0.1184
14233SOL    HW244632   7.511   0.620   5.685 -0.0957  0.8216  0.4791
14234SOL     OW44633   1.938   2.576   6.114 -0.0675 -0.1573  0.1094
14234SOL    HW144634   1.945   2.604   6.205  1.8232  1.4577 -0.4737
14234SOL    HW244635   1.955   2.655   6.063 -0.0939 -1.2349 -1.6520
14235SOL     OW44636   2.493   5.656   6.874 -0.1798 -0.3337  0.2379
14235SOL    HW144637   2.465   5.658   6.966  0.9194  0.1757  0.5724
14235SOL    HW244638   2.476   5.566   6.846 -1.8159 -0.1455  0.5155
14236SOL     OW44639   4.207   5.428   5.472 -0.3848 -0.1152  0.2429
14236SOL    HW144640   4.266   5.427   5.548  0.1841  0.7080 -0.1727
14236SOL    HW244641   4.219   5.514   5.433 -1.4508 -0.1477 -0.1931
14237SOL     OW44642   0.475   4.198   8.000  0.1253  0.2205 -0.3425
14237SOL    HW144643   0.391   4.213   8.045  0.0571 -0.2927 -0.2984
14237SOL    HW244644   0.476   4.263   7.930 -0.6572 -0.2682 -0.8243
14238SOL     OW44645   2.674   4.362   0.398  0.4998  0.2051  0.2686
14238SOL    HW144646   2.744   4.297   0.395  0.3420  0.0579 -0.6035
14238SOL    HW244647   2.720   4.446   0.401  0.7984  0.2086 -2.0931
14239SOL     OW44648   7.739   3.065   1.001 -0.3356 -0.4876  0.1030
14239SOL    HW144649   7.701   3.147   0.971  1.3641 -0.4270 -2.1940
14239SOL    HW244650   7.714   3.001   0.934 -0.4645 -1.5303  1.1253
14240SOL     OW44651   8.220   6.142   3.240  0.5170 -0.4161  0.2442
14240SOL    HW144652   8.154   6.073   3.232  1.7351 -1.5569 -0.3285
14240SOL    HW244653   8.171   6.223   3.228 -0.6423 -1.2641 -1.0960
14241SOL     OW44654   1.453   7.257   7.781 -0.3152  0.1059 -0.1580
14241SOL    HW144655   1.476   7.208   7.860  2.3409  2.2979  0.5894
14241SOL    HW244656   1.496   7.341   7.792 -0.6257  0.8503 -3.5746
14242SOL     OW44657   2.747   7.837   2.161 -0.5435 -0.4583  0.8082
14242SOL    HW144658   2.765   7.880   2.245 -0.2493 -0.9928  1.0188
14242SOL    HW244659   2.712   7.907   2.106  1.5036  0.4660  0.5955
14243SOL     OW44660   5.234   8.106   1.952  0.2401 -0.0691  0.8685
14243SOL    HW144661   5.267   8.033   1.899 -1.2296 -0.8044  0.9338
14243SOL    HW244662   5.306   8.170   1.951  0.4324 -0.2245 -1.6704
14244SOL     OW44663   5.662   1.406   4.887  0.1040 -0.3176  0.7067
14244SOL    HW144664   5.673   1.323   4.842  1.8708  0.0716  0.3530
14244SOL    HW244665   5.636   1.382   4.976  0.0833 -1.2077  0.4650
14245SOL     OW44666   0.685   4.569   4.392 -0.3092 -0.2219  0.2513
14245SOL    HW144667   0.679   4.590   4.299  0.5280 -1.5520 -0.1402
14245SOL    HW244668   0.749   4.630   4.427 -0.6218  0.2795 -0.0472
14246SOL     OW44669   2.767   3.031   7.190 -0.1822  0.2833  0.3055
14246SOL    HW144670   2.832   2.969   7.158  1.0427  0.3232  2.5017
14246SOL    HW244671   2.818   3.096   7.239 -1.5759  2.2012 -0.6402
14247SOL     OW44672   6.824   6.077   1.655  0.2702  0.0057  0.2846
14247SOL    HW144673   6.798   6.029   1.577  0.2811  0.8909 -0.2807
14247SOL    HW244674   6.773   6.037   1.726 -1.9529  1.0400 -0.6274
14248SOL     OW44675   1.443   1.689   6.976 -0.4754  0.0602  0.6343
14248SOL    HW144676   1.499   1.666   7.050 -0.7702 -1.4545  0.4122
14248SOL    HW244677   1.358   1.711   7.015 -0.4258 -0.0370  0.7972
14249SOL     OW44678   1.491   8.471   5.531  0.0949  0.5505 -0.1264
14249SOL    HW144679   1.582   8.502   5.523 -0.8647  3.7488 -0.0790
14249SOL    HW244680   1.479   8.457   5.624  0.3077  0.9196 -0.0411
14250SOL     OW44681   5.902   2.864   7.320  0.2303 -0.2713 -0.5876
14250SOL    HW144682   5.890   2.952   7.354  1.7822 -0.5278  0.7155
14250SOL    HW244683   5.997   2.853   7.314  0.0449 -1.2023 -2.5233
14251SOL     OW44684   8.378   0.047   4.660 -0.1285  0.0770  0.3226
14251SOL    HW144685   8.445   0.090   4.608  0.8003  0.5839  1.8682
14251SOL    HW244686   8.304   0.038   4.601  1.2950 -0.5738 -1.4760
14252SOL     OW44687   1.401   5.994   7.096  0.0409  0.0692 -0.0240
14252SOL    HW144688   1.435   5.907   7.115 -1.0153 -0.4351 -0.3548
14252SOL    HW244689   1.454   6.026   7.023  0.4063 -0.3109  0.0722
14253SOL     OW44690   3.309   2.862   3.470  0.1126 -0.0525  0.1942
14253SOL    HW144691   3.317   2.938   3.528 -1.6693 -0.3135  0.8154
14253SOL    HW244692   3.313   2.786   3.528 -0.3975 -0.3643 -0.1750
14254SOL     OW44693   4.926   8.637   0.393 -0.2129  0.2012 -0.1387
14254SOL    HW144694   4.993   8.679   0.340 -0.8206  2.3653  0.7281
14254SOL    HW244695   4.892   8.566   0.338  0.5967  1.0533 -1.7885
14255SOL     OW44696   7.033   3.882   6.757 -0.1905 -0.1467  0.0429
14255SOL    HW144697   6.998   3.967   6.783  0.4271 -0.0794  0.6795
14255SOL    HW244698   6.997   3.867   6.669 -0.4222  0.7028 -0.0141
14256SOL     OW44699   7.449   6.219   3.083 -0.2632 -0.5057  0.0379
14256SOL    HW144700   7.478   6.147   3.026  1.9025  0.5457 -0.3108
14256SOL    HW244701   7.467   6.298   3.032 -1.2114  0.3583  0.9936
14257SOL     OW44702   3.301   8.062   1.675  0.1791 -0.4211  0.1702
14257SOL    HW144703   3.375   8.113   1.641 -0.8611  0.0100 -1.5794
14257SOL    HW244704   3.265   8.019   1.597 -0.8927 -1.3203  1.1329
14258SOL     OW44705   7.006   7.697   0.693  0.0745  0.2716  0.5363
14258SOL    HW144706   7.030   7.647   0.615  3.2833 -1.1590  2.2221
14258SOL    HW244707   6.933   7.648   0.732  1.1935 -1.4437  0.5662
14259SOL     OW44708   5.459   0.378   2.880  0.6408 -0.1964  0.8976
14259SOL    HW144709   5.484   0.288   2.900 -1.7559 -0.8275  1.3021
14259SOL    HW244710   5.464   0.384   2.785  1.1750 -0.6288  0.8934
14260SOL     OW44711   3.981   0.102   0.195 -0.8097 -0.3966  0.3655
14260SOL    HW144712   3.911   0.111   0.260 -1.6559  0.5358 -0.6352
14260SOL    HW244713   4.060   0.085   0.247 -1.1411  1.8826  1.7930
14261SOL     OW44714   0.007   2.425   0.302  0.2319 -0.1017  0.0544
14261SOL    HW144715  -0.062   2.484   0.272  1.2184  1.0250 -0.0440
14261SOL    HW244716  -0.000   2.348   0.245  0.9179  1.2296 -1.9103
14262SOL     OW44717   5.514   3.013   3.335 -0.3479  0.2877 -0.6296
14262SOL    HW144718   5.573   3.081   3.304  1.6907 -1.3635 -0.6249
14262SOL    HW244719   5.461   2.990   3.259 -1.3461  2.0679 -0.5281
14263SOL     OW44720   7.984   1.452   3.846  0.3221  0.3265  0.5098
14263SOL    HW144721   7.908   1.422   3.896  0.0912 -0.8823 -0.5137
14263SOL    HW244722   8.059   1.413   3.890  0.1783 -0.1481  0.3383
14264SOL     OW44723   0.075   4.284   8.479 -0.3064 -0.3918 -0.6425
14264SOL    HW144724   0.065   4.307   8.571  0.0233  1.5940 -1.0547
14264SOL    HW244725   0.170   4.279   8.465 -0.3483 -0.4397 -0.9238
14265SOL     OW44726   7.551   5.021   4.533  0.3359 -0.1543  0.4554
14265SOL    HW144727   7.590   4.940   4.501 -1.7986 -1.0456 -0.0323
14265SOL    HW244728   7.549   5.079   4.457 -0.6691 -0.6754  0.0640
14266SOL     OW44729   7.219   3.868   0.579 -0.4399 -0.6410  0.2813
14266SOL    HW144730   7.143   3.816   0.552 -2.5905  2.0677  0.6367
14266SOL    HW244731   7.294   3.822   0.542 -2.4194 -2.2235 -2.1064
14267SOL     OW44732   7.955   7.349   8.357 -0.1060  0.1936  0.4435
14267SOL    HW144733   7.991   7.371   8.271 -0.6744  1.2194  0.4592
14267SOL    HW244734   7.866   7.383   8.356 -0.7799 -1.4894  0.7524
14268SOL     OW44735   6.930   6.730   7.963  0.0036 -0.5887 -0.3423
14268SOL    HW144736   7.005   6.745   7.906 -0.3170  1.9410 -0.2284
14268SOL    HW244737   6.854   6.751   7.909 -0.4370 -0.3598  0.3560
14269SOL     OW44738   4.357   5.063   8.056  0.1198 -0.2563 -0.1283
14269SOL    HW144739   4.304   5.025   7.987  0.9931  1.4918 -1.8402
14269SOL    HW244740   4.447   5.060   8.023  0.7696 -0.5952  1.5199
14270SOL     OW44741   0.074   1.153   4.260  0.5191  0.2736  0.4399
14270SOL    HW144742   0.133   1.107   4.200 -0.1843 -1.2986  0.9160
14270SOL    HW244743   0.101   1.123   4.347  1.0244  1.9422  0.8983
14271SOL     OW44744   6.938   1.076   2.772  0.4789 -0.3942 -0.2462
14271SOL    HW144745   6.913   1.134   2.844  0.9955  0.0043 -0.3839
14271SOL    HW244746   6.865   1.081   2.710  0.0951 -0.6297  0.1744
14272SOL     OW44747   1.306   6.111   7.726  0.2569  0.1294 -0.3135
14272SOL    HW144748   1.259   6.029   7.741 -1.8710  1.6689  2.1767
14272SOL    HW244749   1.325   6.145   7.814  1.5383  2.0846 -1.2553
14273SOL     OW44750   3.149   6.979   6.327 -0.1963 -0.0658  0.0455
14273SOL    HW144751   3.217   6.918   6.299  0.9557  2.6589 -3.7931
14273SOL    HW244752   3.190   7.029   6.398  1.4292  0.6628 -1.3358
14274SOL     OW44753   6.402   0.308   3.141  0.0002 -0.4963 -0.3479
14274SOL    HW144754   6.399   0.399   3.113 -1.9396 -0.5864 -0.5558
14274SOL    HW244755   6.359   0.259   3.071 -0.3849 -1.3739  0.4728
14275SOL     OW44756   6.829   4.098   8.204 -0.0718 -0.5759 -0.0322
14275SOL    HW144757   6.828   4.099   8.108 -0.4076 -1.3315 -0.0442
14275SOL    HW244758   6.850   4.007   8.227  1.4942 -0.0925  0.6153
14276SOL     OW44759   0.157   1.498   1.382 -0.1594 -0.0892 -0.0951
14276SOL    HW144760   0.250   1.485   1.400 -0.2988  1.0878  1.8618
14276SOL    HW244761   0.113   1.435   1.440 -0.5790  0.6799  0.4475
14277SOL     OW44762   8.533   3.436   7.147 -0.1738  0.0001 -0.1178
14277SOL    HW144763   8.485   3.506   7.102  0.5861 -0.4282 -1.6830
14277SOL    HW244764   8.494   3.355   7.113 -0.4019 -0.3488  0.9546
14278SOL     OW44765   8.600   8.385   8.538 -0.9097  0.0042  0.3809
14278SOL    HW144766   8.533   8.451   8.559  0.4022  1.7379 -0.6080
14278SOL    HW244767   8.659   8.430   8.478  0.9934 -1.5519  0.9964
14279SOL     OW44768   7.418   6.939   4.041  0.1566  0.5240  0.0451
14279SOL    HW144769   7.326   6.957   4.023  0.0515 -0.3668 -0.3818
14279SOL    HW244770   7.416   6.867   4.104  0.5607  1.7674  1.5412
14280SOL     OW44771   0.114   3.206   6.733  0.0102  0.4274  0.5191
14280SOL    HW144772   0.157   3.265   6.794  2.6218 -0.7052 -0.0895
14280SOL    HW244773   0.034   3.252   6.708  2.0106  3.9393 -0.1917
14281SOL     OW44774   3.298   1.739   8.104  0.1005 -0.5333  0.2242
14281SOL    HW144775   3.210   1.707   8.087  0.4759 -0.8223 -1.3758
14281SOL    HW244776   3.290   1.835   8.103 -0.0017 -0.5266 -1.3294
14282SOL     OW44777   7.488   3.055   3.746 -0.1226 -0.0780  0.2358
14282SOL    HW144778   7.524   3.143   3.732  0.0056 -0.0998  0.4196
14282SOL    HW244779   7.456   3.057   3.836  0.9621 -0.5894  0.6583
14283SOL     OW44780   0.714   8.587   7.152 -0.4374 -0.1008 -0.2006
14283SOL    HW144781   0.741   8.678   7.139  1.3428 -0.2938  1.7487
14283SOL    HW244782   0.630   8.581   7.105 -0.3341  2.3666 -0.8611
14284SOL     OW44783   0.634   8.791   2.323 -0.2010  0.1916 -0.0998
14284SOL    HW144784   0.642   8.790   2.227  3.6758  1.2195  0.0502
14284SOL    HW244785   0.639   8.883   2.346  0.0702 -0.1240  1.1463
14285SOL     OW44786   7.039   7.289   0.710  0.3921 -0.1140 -0.3991
14285SOL    HW144787   6.988   7.212   0.685 -0.4645  0.3299 -0.0624
14285SOL    HW244788   7.119   7.253   0.748 -0.0588 -0.8464 -0.1193
14286SOL     OW44789   7.497   5.195   8.072 -0.0241  0.0011 -0.2407
14286SOL    HW144790   7.404   5.186   8.051 -0.0776  0.1843 -0.0832
14286SOL    HW244791   7.542   5.181   7.988 -0.1684 -0.5669 -0.2256
14287SOL     OW44792   4.914   3.747   2.836  0.0098 -0.4957 -0.2576
14287SOL    HW144793   4.879   3.704   2.758  2.5196  0.9846 -2.4054
14287SOL    HW244794   4.977   3.685   2.872 -1.1070 -1.1564  0.6053
14288SOL     OW44795   5.766   8.367   3.429  0.4109  0.4566  0.0120
14288SOL    HW144796   5.719   8.311   3.490 -0.1653 -1.5637 -2.1440
14288SOL    HW244797   5.853   8.328   3.423 -0.4771 -1.3202 -2.7098
14289SOL     OW44798   8.423   0.104   1.595 -0.2955 -0.0880 -0.2130
14289SOL    HW144799   8.447   0.127   1.505  0.0502 -1.0554 -0.3760
14289SOL    HW244800   8.395   0.187   1.634 -1.4735  0.1755 -1.5241
14290SOL     OW44801   2.140   7.853   2.410 -0.0415  0.0741  0.0673
14290SOL    HW144802   2.188   7.789   2.464  2.7040  0.2800 -1.9062
14290SOL    HW244803   2.048   7.832   2.424  0.6510 -2.1843  1.9868
14291SOL     OW44804   3.682   3.094   1.690  0.2750  0.0324 -0.0518
14291SOL    HW144805   3.719   3.066   1.606 -1.1825  2.7152 -1.7364
14291SOL    HW244806   3.718   3.181   1.704 -0.0009 -0.1105  1.8448
14292SOL     OW44807   8.437   7.156   2.464 -0.0075  0.1678  0.0324
14292SOL    HW144808   8.518   7.112   2.492  0.0430  0.1426 -0.1497
14292SOL    HW244809   8.410   7.107   2.386 -0.5980 -0.2869  0.5160
14293SOL     OW44810   2.823   1.488   1.475 -0.3108  0.4375 -0.3696
14293SOL    HW144811   2.767   1.453   1.544 -1.6207  0.6660 -1.2901
14293SOL    HW244812   2.878   1.415   1.449 -1.2390 -0.2240 -0.4987
14294SOL     OW44813   3.827   8.445   5.369 -0.3729  0.0476  0.3519
14294SOL    HW144814   3.738   8.481   5.361 -0.4176 -0.3117 -1.0041
14294SOL    HW244815   3.881   8.520   5.394 -0.6435  0.8519 -1.3879
14295SOL     OW44816   8.083   1.104   0.266 -0.0488 -0.0103 -0.3435
14295SOL    HW144817   8.171   1.105   0.226  0.1786 -0.4779  0.1323
14295SOL    HW244818   8.097   1.133   0.356 -0.3844 -0.0632 -0.2745
14296SOL     OW44819   0.199   7.546   7.292  0.5819  0.0184 -0.0947
14296SOL    HW144820   0.184   7.638   7.268  1.1323  0.3083  0.6121
14296SOL    HW244821   0.120   7.520   7.339  0.2715  0.0151 -0.6134
14297SOL     OW44822   5.587   6.655   4.301 -0.0117  0.4216  0.5868
14297SOL    HW144823   5.502   6.655   4.257  0.5411  0.9591 -0.5140
14297SOL    HW244824   5.617   6.746   4.295  0.9927  0.0829  0.2621
14298SOL     OW44825   1.669   2.641   6.390  0.1566 -0.3396 -0.2397
14298SOL    HW144826   1.604   2.708   6.411 -1.6661 -1.7485 -1.0604
14298SOL    HW244827   1.743   2.659   6.449 -1.1950  1.0077  1.1273
14299SOL     OW44828   3.199   0.532   6.813  0.0288  0.2854  0.3944
14299SOL    HW144829   3.282   0.560   6.774 -0.4959  1.0603 -0.1800
14299SOL    HW244830   3.188   0.441   6.784  0.7424  0.1175  0.6117
14300SOL     OW44831   2.121   5.218   0.414 -0.0557 -0.3029  0.4231
14300SOL    HW144832   2.137   5.311   0.402 -0.1239 -0.4312 -0.7272
14300SOL    HW244833   2.177   5.194   0.488 -1.5258  1.0375  2.0920
14301SOL     OW44834   3.482   8.344   2.423 -0.4496 -0.2929  0.0778
14301SOL    HW144835   3.463   8.434   2.397  0.5758 -0.2081 -0.4111
14301SOL    HW244836   3.496   8.298   2.341  1.5625 -0.3155  0.3970
14302SOL     OW44837   7.827   6.870   2.611  0.2242 -0.0695  0.4861
14302SOL    HW144838   7.754   6.927   2.585  1.4954  1.8071  0.8104
14302SOL    HW244839   7.800   6.782   2.584 -1.3434  0.8362 -1.0915
14303SOL     OW44840   3.221   0.862   8.306  0.1476 -0.0959  0.0370
14303SOL    HW144841   3.168   0.839   8.383 -0.0424  1.2313  0.3288
14303SOL    HW244842   3.287   0.924   8.340 -0.7313  1.5146 -1.0579
14304SOL     OW44843   3.193   1.572   5.200 -0.1930 -0.2653  0.8984
14304SOL    HW144844   3.240   1.545   5.121 -0.2597 -0.9012  1.0698
14304SOL    HW244845   3.113   1.518   5.200 -2.0583  2.2783 -0.5336
14305SOL     OW44846   1.528   1.696   0.333  0.2265 -0.5234 -0.0310
14305SOL    HW144847   1.436   1.671   0.331  0.0435  0.1084  0.2889
14305SOL    HW244848   1.533   1.775   0.280  0.5876 -0.5645 -0.0590
14306SOL     OW44849   4.231   8.370   4.066  0.4123  0.2771  0.4306
14306SOL    HW144850   4.254   8.289   4.112  0.0130  0.8776  1.7659
14306SOL    HW244851   4.240   8.438   4.133  1.8453  1.5106 -0.9486
14307SOL     OW44852   7.260   6.510   2.243 -0.7217  0.3609 -0.5575
14307SOL    HW144853   7.194   6.474   2.184  1.2650  0.8253 -3.2328
14307SOL    HW244854   7.315   6.565   2.188  1.8322  0.1465  1.5485
14308SOL     OW44855   4.666   6.777   5.082  0.2528 -0.3293  0.0023
14308SOL    HW144856   4.717   6.851   5.047 -0.3152 -0.5076 -1.2356
14308SOL    HW244857   4.636   6.808   5.167  0.6519  0.5830 -0.1699
14309SOL     OW44858   2.775   2.394   1.134  0.6958 -0.4695  0.4071
14309SOL    HW144859   2.698   2.432   1.091  0.7286 -0.5904  0.2383
14309SOL    HW244860   2.797   2.318   1.080  0.8692 -0.4971  0.5168
14310SOL     OW44861   0.401   0.933   0.988  0.2781 -0.2095 -0.6533
14310SOL    HW144862   0.488   0.915   0.951 -1.1572 -2.3084 -3.4901
14310SOL    HW244863   0.367   0.846   1.010 -1.5739  0.4378 -0.8293
14311SOL     OW44864   5.502   8.259   5.004 -0.0006  0.2434 -0.0040
14311SOL    HW144865   5.593   8.265   4.973 -0.2252  0.7138 -0.5836
14311SOL    HW244866   5.499   8.177   5.054  0.2532 -0.8092 -1.6517
14312SOL     OW44867   4.970   4.141   5.466 -0.4190 -0.3180 -0.4094
14312SOL    HW144868   4.894   4.199   5.466  0.8295  1.4099 -1.2741
14312SOL    HW244869   4.990   4.127   5.374  1.1601  0.4619 -0.2191
14313SOL     OW44870   7.329   0.885   2.229 -0.4299  0.3001  0.0566
14313SOL    HW144871   7.408   0.852   2.185 -1.1509  0.0362 -1.0803
14313SOL    HW244872   7.283   0.935   2.162 -1.2563  0.4207  0.6978
14314SOL     OW44873   3.505   8.628   2.350 -0.2174  0.0189 -0.3541
14314SOL    HW144874   3.541   8.628   2.439  0.6232 -2.7404 -0.6167
14314SOL    HW244875   3.575   8.666   2.297  0.1860 -0.4238 -0.1453
14315SOL     OW44876   7.912   3.117   7.942 -0.0558 -0.0546 -0.2581
14315SOL    HW144877   7.951   3.053   7.883  0.5025  1.7401 -1.9449
14315SOL    HW244878   7.831   3.075   7.973  0.2413 -1.5141 -1.3644
14316SOL     OW44879   2.666   2.642   6.402  0.0691  0.2916  0.0554
14316SOL    HW144880   2.668   2.551   6.429  2.1226  0.5132  0.7785
14316SOL    HW244881   2.584   2.650   6.352 -1.5195 -1.2559  2.2067
14317SOL     OW44882   1.297   7.636   7.630 -0.0159  0.0847  0.3970
14317SOL    HW144883   1.280   7.588   7.549  2.2280  1.5295 -1.0263
14317SOL    HW244884   1.351   7.576   7.682  0.9403  0.1934 -0.4376
14318SOL     OW44885   7.780   0.781   0.932 -0.0344 -0.8792  0.0536
14318SOL    HW144886   7.776   0.777   0.836  0.9623  2.4406 -0.2644
14318SOL    HW244887   7.850   0.721   0.956  0.1880 -1.2329 -1.3800
14319SOL     OW44888   0.821   4.987   3.248  0.0365 -0.0838 -0.0182
14319SOL    HW144889   0.843   5.073   3.284  0.0632  0.0736 -0.4129
14319SOL    HW244890   0.783   4.939   3.322 -0.3711  0.4132  0.0969
14320SOL     OW44891   0.444   7.225   4.442 -0.1028 -0.4899 -0.2046
14320SOL    HW144892   0.500   7.182   4.507 -0.5014  0.9058  1.1193
14320SOL    HW244893   0.503   7.287   4.397 -0.3950  0.5033  0.7358
14321SOL     OW44894   7.695   2.564   3.731 -0.2908  0.2414  0.3904
14321SOL    HW144895   7.646   2.628   3.784 -0.3331  1.3016 -0.8529
14321SOL    HW244896   7.786   2.591   3.739 -0.0687 -0.8158  1.5046
14322SOL     OW44897   0.110   6.752   6.457 -1.1500 -0.2593  0.3383
14322SOL    HW144898   0.179   6.702   6.502 -1.4286 -0.6411  0.3442
14322SOL    HW244899   0.061   6.794   6.527 -1.1294 -0.2540  0.3497
14323SOL     OW44900   5.906   1.995   8.183 -0.0739  0.1439 -0.1028
14323SOL    HW144901   5.867   2.062   8.127  0.0457  1.0086  0.8075
14323SOL    HW244902   5.949   2.045   8.253  0.2316 -0.8821  0.4633
14324SOL     OW44903   2.167   6.468   3.857 -0.1673 -0.1357  0.2670
14324SOL    HW144904   2.195   6.487   3.767 -0.5317  1.2313  0.4192
14324SOL    HW244905   2.089   6.522   3.869 -0.0780 -0.2517  1.4346
14325SOL     OW44906   4.489   4.068   5.237 -0.3126  0.1121  0.3701
14325SOL    HW144907   4.399   4.099   5.247  0.2032  1.3132  1.7149
14325SOL    HW244908   4.516   4.101   5.151 -1.0777 -0.0279  0.0746
14326SOL     OW44909   6.063   1.036   5.242  1.0755 -0.4949  0.1083
14326SOL    HW144910   6.017   0.952   5.231 -0.0767  0.4408 -3.9297
14326SOL    HW244911   6.147   1.023   5.198  1.3359  0.1893  0.3901
14327SOL     OW44912   8.064   3.083   2.573  0.6162 -0.0451  0.5716
14327SOL    HW144913   8.036   3.133   2.496  0.3365  1.8458  1.8127
14327SOL    HW244914   8.028   2.996   2.561 -2.1829  1.0855  0.0412
14328SOL     OW44915   8.569   3.499   0.009  0.0331  0.0985  0.2627
14328SOL    HW144916   8.482   3.499   0.048 -0.2176 -2.0202 -0.1783
14328SOL    HW244917   8.562   3.439  -0.066  1.6758  0.4977 -0.2592
14329SOL     OW44918   8.473   6.991   4.802  0.1341 -0.2623  0.4110
14329SOL    HW144919   8.524   7.001   4.722  0.1140 -0.5807  0.3576
14329SOL    HW244920   8.457   7.080   4.831 -0.2044 -0.1322 -0.1620
14330SOL     OW44921   2.110   3.435   4.562  0.1238 -0.4233  0.3078
14330SOL    HW144922   2.091   3.342   4.576 -1.8054 -0.0680  0.3127
14330SOL    HW244923   2.182   3.453   4.623  0.5730 -1.9071  0.2757
14331SOL     OW44924   4.024   4.772   3.135 -0.4789  0.9819 -0.1178
14331SOL    HW144925   4.094   4.803   3.193 -0.4183 -1.4578  1.2915
14331SOL    HW244926   3.959   4.843   3.135 -0.7398  0.9293  3.5044
14332SOL     OW44927   2.954   0.653   8.059  0.7630 -0.5989 -0.3330
14332SOL    HW144928   3.039   0.624   8.091  0.5436 -0.5573  0.2977
14332SOL    HW244929   2.956   0.748   8.069  0.9625 -0.5181 -1.1131
14333SOL     OW44930   7.627   4.204   6.715 -0.5593  0.1404  0.0897
14333SOL    HW144931   7.552   4.145   6.713 -1.4283  1.1735  0.9932
14333SOL    HW244932   7.656   4.203   6.807 -1.4990  2.1819  0.4619
14334SOL     OW44933   1.741   6.006   3.620  0.0463 -0.2540 -0.6180
14334SOL    HW144934   1.792   6.062   3.561 -0.1326  2.4224  1.5694
14334SOL    HW244935   1.806   5.947   3.659  1.2502  1.8937  0.7809
14335SOL     OW44936   5.875   7.744   0.563 -0.0622  0.1217 -0.3199
14335SOL    HW144937   5.824   7.753   0.644 -0.2435  1.4197 -0.5627
14335SOL    HW244938   5.963   7.771   0.587 -0.2242  0.9706 -0.6640
14336SOL     OW44939   2.687   0.368   7.068 -0.2686  0.5637  0.1113
14336SOL    HW144940   2.728   0.283   7.084  3.2414  1.9686 -0.5076
14336SOL    HW244941   2.695   0.415   7.151 -0.6948  0.8757 -0.0164
14337SOL     OW44942   0.502   7.827   6.030 -0.0733  0.5487 -0.0455
14337SOL    HW144943   0.504   7.760   5.961  0.4501  0.6682 -0.1547
14337SOL    HW244944   0.491   7.909   5.983  0.9527  0.6995 -0.0570
14338SOL     OW44945   0.505   8.088   1.030 -0.2450 -0.0056  0.2599
14338SOL    HW144946   0.590   8.046   1.045 -0.3124  0.1685  1.1882
14338SOL    HW244947   0.525   8.181   1.022 -0.5097  0.2946  2.4069
14339SOL     OW44948   5.016   0.152   6.642  0.0014 -0.0880  0.2674
14339SOL    HW144949   5.091   0.193   6.685 -0.6247  0.8361  0.5287
14339SOL    HW244950   5.023   0.180   6.550  0.5748 -0.9220  0.0431
14340SOL     OW44951   2.771   3.441   7.926 -0.0903 -0.1060 -0.5402
14340SOL    HW144952   2.811   3.448   8.013  1.6853  0.7879 -1.3878
14340SOL    HW244953   2.785   3.527   7.886 -1.0227 -0.4541 -1.6749
14341SOL     OW44954   5.694   0.874   1.405 -0.9433  0.3018  0.2226
14341SOL    HW144955   5.676   0.860   1.499 -1.2009  0.0829  0.1422
14341SOL    HW244956   5.660   0.795   1.363  0.8101 -0.4423  0.1195
14342SOL     OW44957   0.766   5.816   1.763 -0.7231 -0.0204 -0.1938
14342SOL    HW144958   0.707   5.849   1.695 -1.0272  0.5043  0.3142
14342SOL    HW244959   0.764   5.721   1.752 -1.4746  0.0055 -0.3473
14343SOL     OW44960   1.202   0.275   7.947  0.4524 -0.3759  0.8032
14343SOL    HW144961   1.147   0.252   7.872 -1.0160 -0.4402  1.8557
14343SOL    HW244962   1.222   0.368   7.934 -0.1969 -0.2606  0.5758
14344SOL     OW44963   0.197   0.536   7.910  0.3707  0.5159  0.3044
14344SOL    HW144964   0.125   0.564   7.854  0.3508  1.5014  0.7997
14344SOL    HW244965   0.276   0.563   7.864  0.4335 -0.4601 -0.1829
14345SOL     OW44966   0.575   1.545   5.080 -0.8051  0.2288  0.0114
14345SOL    HW144967   0.631   1.621   5.066 -1.0434  0.2855 -0.6363
14345SOL    HW244968   0.591   1.520   5.172  1.4617 -0.7288 -0.5853
14346SOL     OW44969   5.748   5.131   0.755  0.0046 -0.2203  0.0793
14346SOL    HW144970   5.829   5.091   0.722  0.0323  0.9265 -1.3325
14346SOL    HW244971   5.697   5.057   0.788  1.0778 -1.1155 -0.1870
14347SOL     OW44972   3.277   8.597   1.519 -0.5182 -0.4718 -0.2964
14347SOL    HW144973   3.281   8.638   1.606  4.2882 -0.2209 -0.3550
14347SOL    HW244974   3.283   8.503   1.537  1.8163 -0.3766 -0.1996
14348SOL     OW44975   3.494   4.688   5.536 -0.1910 -0.1334  0.3725
14348SOL    HW144976   3.560   4.639   5.486 -0.4023 -0.6243  0.5720
14348SOL    HW244977   3.544   4.757   5.580 -0.0959  0.7284 -1.0443
14349SOL     OW44978   3.455   3.469   2.427 -0.0675 -0.3087  0.5595
14349SOL    HW144979   3.550   3.472   2.439  0.1023  1.9236 -0.8657
14349SOL    HW244980   3.429   3.383   2.461  2.3712 -0.7670  1.4342
14350SOL     OW44981   0.345   7.049   3.242  0.6267  0.2254 -0.5805
14350SOL    HW144982   0.402   7.082   3.172  1.0808 -1.0965 -0.8679
14350SOL    HW244983   0.265   7.022   3.197  1.1174 -1.1101 -0.6974
14351SOL     OW44984   7.596   2.788   7.058  0.0587  0.2037  0.5178
14351SOL    HW144985   7.682   2.802   7.018 -0.6488  2.7163 -0.3714
14351SOL    HW244986   7.535   2.784   6.984 -0.8680  1.3068  1.1665
14352SOL     OW44987   6.826   8.568   8.191 -0.3033 -0.1643  0.1311
14352SOL    HW144988   6.911   8.611   8.181 -0.3275 -0.1435  0.0116
14352SOL    HW244989   6.762   8.637   8.171 -0.3419 -0.2702 -0.1067
14353SOL     OW44990   4.132   6.910   3.068  0.2799 -0.4935 -0.1885
14353SOL    HW144991   4.107   6.940   2.981 -0.3581 -2.0096 -0.5608
14353SOL    HW244992   4.091   6.973   3.127  1.5541  1.1409 -0.9719
14354SOL     OW44993   2.472   1.115   7.424  0.0718 -0.0911  0.1229
14354SOL    HW144994   2.466   1.074   7.510 -0.8123  1.2348  0.7191
14354SOL    HW244995   2.430   1.052   7.365  0.5589 -0.9455  0.6614
14355SOL     OW44996   4.215   2.106   1.045  0.3259  0.7198  0.2658
14355SOL    HW144997   4.268   2.030   1.021  0.1629  0.6800  0.0357
14355SOL    HW244998   4.163   2.077   1.119  0.3689  0.6527  0.2697
14356SOL     OW44999   8.772   7.898   2.529  0.0968  0.0820  0.2201
14356SOL    HW145000   8.773   7.814   2.575  0.2046 -0.2627 -0.4075
14356SOL    HW245001   8.772   7.963   2.599 -0.7605 -0.4378  0.7266
14357SOL     OW45002   8.678   0.803   8.062  0.1312 -0.4039  0.2215
14357SOL    HW145003   8.772   0.819   8.049 -0.0613  0.3821 -0.2537
14357SOL    HW245004   8.664   0.819   8.155  0.1505  1.2162 -0.0338
14358SOL     OW45005   2.611   8.211   4.552 -0.4031 -0.0651  0.4876
14358SOL    HW145006   2.552   8.138   4.569  0.1596 -0.7636 -0.4850
14358SOL    HW245007   2.554   8.286   4.540 -1.0387 -0.5223  0.6019
14359SOL     OW45008   0.985   0.388   6.591 -0.7016  0.0213 -0.1950
14359SOL    HW145009   1.046   0.460   6.572  0.8216 -0.8486  1.1325
14359SOL    HW245010   0.909   0.431   6.630  0.5908  0.8762  1.4933
14360SOL     OW45011   4.037   7.221   0.894 -0.0766  0.0424  0.2358
14360SOL    HW145012   4.037   7.316   0.887  0.1004  0.0262  0.0196
14360SOL    HW245013   4.042   7.204   0.988  1.7846  0.2341  0.2083
14361SOL     OW45014   4.643   7.079   1.694 -0.0063  0.2617  0.2870
14361SOL    HW145015   4.611   7.119   1.613  0.1003  1.4917  0.8341
14361SOL    HW245016   4.626   6.985   1.682  2.7891 -0.0341 -2.4352
14362SOL     OW45017   2.532   2.114   8.380 -0.4032  0.2447 -0.2097
14362SOL    HW145018   2.619   2.137   8.347 -0.8684 -0.9789 -2.5234
14362SOL    HW245019   2.498   2.052   8.315 -1.5114 -2.2970  2.5791
14363SOL     OW45020   0.103   3.766   8.444 -0.1418 -0.2652 -0.0238
14363SOL    HW145021   0.172   3.750   8.380 -0.8167  0.9751 -1.1265
14363SOL    HW245022   0.069   3.853   8.421 -1.8039 -0.6717  0.7219
14364SOL     OW45023   6.271   0.696   6.840 -0.1352  0.6038  0.1968
14364SOL    HW145024   6.355   0.735   6.816 -0.0279  0.9556  1.1080
14364SOL    HW245025   6.217   0.770   6.868 -0.7854  0.3901 -0.4892
14365SOL     OW45026   2.845   0.940   0.660 -0.2736 -0.0369  0.3519
14365SOL    HW145027   2.893   0.859   0.645 -1.2074 -0.3260 -1.3562
14365SOL    HW245028   2.820   0.936   0.753  0.8013 -1.0668  0.6240
14366SOL     OW45029   0.286   1.098   5.755 -0.0649  0.0885  0.0620
14366SOL    HW145030   0.221   1.156   5.716 -0.4175 -0.6928 -0.5266
14366SOL    HW245031   0.260   1.011   5.728  0.9919 -0.2726  0.1788
14367SOL     OW45032   6.368   1.279   0.985 -0.0353 -0.3287 -0.2396
14367SOL    HW145033   6.273   1.272   0.977 -0.1408 -1.4857  1.5285
14367SOL    HW245034   6.401   1.199   0.943  0.2273  0.3736 -1.4174
14368SOL     OW45035   7.328   2.454   7.175 -0.6569 -0.0111  0.1077
14368SOL    HW145036   7.423   2.452   7.167 -0.6636 -0.9057  0.1742
14368SOL    HW245037   7.298   2.497   7.095 -0.1269  1.6722  0.7826
14369SOL     OW45038   7.583   0.437   7.288  0.2163 -0.0837  0.2519
14369SOL    HW145039   7.531   0.516   7.299  1.4587  0.6299  1.2655
14369SOL    HW245040   7.522   0.366   7.308 -0.8292  0.6135 -0.3666
14370SOL     OW45041   6.894   5.051   4.913  0.9132  0.1947  0.1932
14370SOL    HW145042   6.869   5.141   4.937  0.7000  0.1929 -0.0148
14370SOL    HW245043   6.956   5.062   4.841 -1.7549  0.1420 -2.3172
14371SOL     OW45044   2.162   8.232   4.825 -0.0336  0.2720  0.0327
14371SOL    HW145045   2.160   8.159   4.886  1.9228 -1.2321 -1.5517
14371SOL    HW245046   2.255   8.246   4.806 -0.4944  1.4415 -1.6783
14372SOL     OW45047   6.307   5.136   4.254 -0.6052  0.3791 -0.1695
14372SOL    HW145048   6.376   5.186   4.297 -0.3125  0.2108 -0.4341
14372SOL    HW245049   6.245   5.114   4.323 -1.1253  1.7502 -0.1817
14373SOL     OW45050   2.379   6.135   8.704  0.4154  0.3585 -0.5490
14373SOL    HW145051   2.473   6.146   8.720  0.3211  0.4309 -0.0254
14373SOL    HW245052   2.361   6.043   8.726  0.0797  0.7406  0.8332
14374SOL     OW45053   1.619   5.466   3.748  1.0252  0.1013 -0.3535
14374SOL    HW145054   1.622   5.560   3.732  0.6083 -0.0842 -1.6252
14374SOL    HW245055   1.700   5.433   3.710  0.6309 -0.1927 -0.9489
14375SOL     OW45056   7.017   7.535   5.674  0.2520 -0.0624 -0.2564
14375SOL    HW145057   6.936   7.565   5.633  0.8653  0.2340 -1.2760
14375SOL    HW245058   7.079   7.528   5.602  0.9635 -0.9060  0.4168
14376SOL     OW45059   1.601   1.669   7.978  0.0523  0.0549 -0.5809
14376SOL    HW145060   1.656   1.713   8.043  1.9309  0.0439 -2.0662
14376SOL    HW245061   1.573   1.739   7.918 -0.8151 -0.0881 -0.3583
14377SOL     OW45062   1.757   7.951   2.798  0.3256  0.0220 -0.4091
14377SOL    HW145063   1.663   7.948   2.779  0.7741 -0.8019 -2.9074
14377SOL    HW245064   1.765   7.916   2.886 -1.6480 -0.9598 -0.5633
14378SOL     OW45065   6.057   0.920   5.894 -0.9035  0.1222  0.5908
14378SOL    HW145066   6.022   1.009   5.891 -1.8373 -0.2261 -2.4628
14378SOL    HW245067   5.980   0.863   5.902 -0.6946 -0.4832 -1.1935
14379SOL     OW45068   5.181   3.530   5.524 -0.3891  0.3833 -0.0094
14379SOL    HW145069   5.250   3.508   5.462 -2.0852 -0.3846 -1.6931
14379SOL    HW245070   5.169   3.450   5.575  1.2144  1.1053  1.6325
14380SOL     OW45071   7.047   6.649   2.795  0.6594  0.0448  0.3939
14380SOL    HW145072   7.110   6.719   2.780  1.9664 -0.7165  1.9892
14380SOL    HW245073   7.090   6.590   2.857 -1.0892 -1.2485  0.4781
14381SOL     OW45074   2.739   1.414   3.453  0.0365  0.0197  0.1306
14381SOL    HW145075   2.829   1.390   3.473 -0.3618 -0.9151  0.8466
14381SOL    HW245076   2.690   1.332   3.460 -0.7726  0.3970 -0.8612
14382SOL     OW45077   8.342   4.187   0.733  0.9390  0.7679 -0.0794
14382SOL    HW145078   8.346   4.195   0.828  1.1913 -1.3051  0.1342
14382SOL    HW245079   8.432   4.201   0.703  0.8285  1.5869 -0.0474
14383SOL     OW45080   7.648   1.030   3.118 -0.4883 -0.1092  0.3189
14383SOL    HW145081   7.723   1.086   3.138  0.1220  0.0408 -2.0893
14383SOL    HW245082   7.617   0.999   3.203  1.8002  0.4579  1.4138
14384SOL     OW45083   1.720   5.701   8.307 -0.6965  0.1858  0.3105
14384SOL    HW145084   1.793   5.725   8.364 -0.0071 -0.3955 -0.3108
14384SOL    HW245085   1.657   5.658   8.365 -0.9851  1.5046  1.0254
14385SOL     OW45086   2.892   2.579   1.911  0.2332  0.5677 -0.3919
14385SOL    HW145087   2.931   2.643   1.850 -1.3150  1.5551 -0.3957
14385SOL    HW245088   2.833   2.631   1.965 -0.6778 -0.7984 -0.0408
14386SOL     OW45089   3.757   6.932   8.703  0.5587 -0.6292  0.1843
14386SOL    HW145090   3.737   6.850   8.658 -0.6194 -0.2174 -0.0736
14386SOL    HW245091   3.745   6.912   8.796  2.0955 -1.2308  0.2787
14387SOL     OW45092   2.543   3.063   2.152  0.3140 -0.6967 -0.7935
14387SOL    HW145093   2.538   3.031   2.243  1.8523 -0.9510 -0.7684
14387SOL    HW245094   2.501   2.994   2.101 -0.5847 -0.5445 -0.2887
14388SOL     OW45095   1.878   7.521   7.579 -0.0065 -0.1824  0.0853
14388SOL    HW145096   1.956   7.496   7.629  1.1902  1.4528 -0.8410
14388SOL    HW245097   1.903   7.505   7.488 -1.0245 -0.2625 -0.1852
14389SOL     OW45098   8.689   0.786   5.537 -0.1996  0.0757 -0.2684
14389SOL    HW145099   8.701   0.852   5.606  0.7355  0.9340 -1.2236
14389SOL    HW245100   8.737   0.710   5.569  1.1589  0.8349 -0.4333
14390SOL     OW45101   6.737   1.953   4.792  0.5643  0.2858  0.0745
14390SOL    HW145102   6.830   1.952   4.769  0.5737 -1.0729  0.0861
14390SOL    HW245103   6.695   2.000   4.720  1.2074  0.4907 -0.1716
14391SOL     OW45104   8.303   0.250   6.823  0.1109  0.6990 -0.3164
14391SOL    HW145105   8.349   0.171   6.852 -2.6377 -0.3282  1.5848
14391SOL    HW245106   8.250   0.221   6.749 -0.5110  0.8681  0.0567
14392SOL     OW45107   5.267   7.360   4.011 -0.0827  0.0108 -0.7619
14392SOL    HW145108   5.189   7.412   4.027 -1.0020 -0.8688 -2.1914
14392SOL    HW245109   5.235   7.276   3.977  1.4654  0.5240 -3.9529
14393SOL     OW45110   1.056   2.252   3.326  0.0727 -0.1319 -0.1988
14393SOL    HW145111   1.044   2.206   3.244  0.0988 -0.4293 -0.0354
14393SOL    HW245112   1.150   2.243   3.346  0.2613  0.7696 -0.6292
14394SOL     OW45113   7.325   8.228   2.948  0.7094  0.6200  0.0611
14394SOL    HW145114   7.253   8.272   2.993 -0.3810 -0.9711 -0.0434
14394SOL    HW245115   7.401   8.282   2.967  0.4072 -0.0930  4.1202
14395SOL     OW45116   4.837   7.674   0.800  0.2689 -0.1079  0.4532
14395SOL    HW145117   4.891   7.638   0.730  0.0547  1.2831 -0.4908
14395SOL    HW245118   4.753   7.693   0.757  0.0526  0.5285  1.1386
14396SOL     OW45119   8.675   5.533   1.443 -0.3525 -0.7087  0.1797
14396SOL    HW145120   8.585   5.531   1.411  0.2722 -1.1377 -1.7119
14396SOL    HW245121   8.704   5.442   1.438 -0.6095 -1.0840  3.4411
14397SOL     OW45122   3.798   4.933   3.158 -0.5862  0.1951  0.1941
14397SOL    HW145123   3.757   4.855   3.120 -0.9458  0.3339  0.2859
14397SOL    HW245124   3.796   4.917   3.253  0.4226 -0.2060  0.1536
14398SOL     OW45125   6.889   8.610   7.534  0.3731  0.3658  0.3652
14398SOL    HW145126   6.956   8.647   7.592  0.4731 -0.8254  1.0570
14398SOL    HW245127   6.824   8.679   7.524  1.9417  1.7806 -0.7778
14399SOL     OW45128   4.585   8.012   8.657 -0.2344 -0.0323 -0.2412
14399SOL    HW145129   4.563   8.090   8.607 -0.0977  2.0984  2.7548
14399SOL    HW245130   4.508   7.996   8.712 -0.0222 -1.6888 -0.3567
14400SOL     OW45131   0.509   4.433   1.224 -0.0187 -0.3243  0.4044
14400SOL    HW145132   0.468   4.409   1.140  0.8355 -1.3919  0.2695
14400SOL    HW245133   0.523   4.528   1.217 -2.0882  0.0178  0.3105
14401SOL     OW45134   5.075   1.202   7.830 -0.3825  0.1765 -1.0339
14401SOL    HW145135   5.137   1.274   7.831 -0.8552  0.6767  1.8347
14401SOL    HW245136   4.989   1.244   7.822 -0.5950 -0.1091 -0.3671
14402SOL     OW45137   8.558   3.817   7.574 -0.3461 -0.1580  0.1474
14402SOL    HW145138   8.627   3.750   7.567 -0.8426 -1.0525  2.8013
14402SOL    HW245139   8.478   3.766   7.586 -1.0277  0.9129  0.1599
14403SOL     OW45140   5.574   3.237   8.409 -0.2503  0.0711  0.2001
14403SOL    HW145141   5.546   3.192   8.328  0.7191 -4.1092  1.9049
14403SOL    HW245142   5.660   3.273   8.387 -0.4846 -0.0086 -0.9384
14404SOL     OW45143   4.379   1.319   6.336  0.0786 -0.3101 -0.2235
14404SOL    HW145144   4.288   1.296   6.319 -0.4780  1.7238 -0.3199
14404SOL    HW245145   4.416   1.242   6.379 -1.1102 -1.9592 -2.0037
14405SOL     OW45146   6.593   5.078   1.935 -0.5974  0.2361 -0.2686
14405SOL    HW145147   6.570   5.171   1.933 -1.7349 -0.0252 -0.0659
14405SOL    HW245148   6.636   5.065   2.019 -0.8772  0.4849 -0.0858
14406SOL     OW45149   2.833   1.704   3.672  0.7160 -0.2935 -0.0184
14406SOL    HW145150   2.924   1.694   3.643  0.3552  0.7043 -1.5921
14406SOL    HW245151   2.785   1.732   3.594 -1.2998 -2.4171  0.3458
14407SOL     OW45152   5.002   1.734   2.600 -0.0556  0.1296 -0.5062
14407SOL    HW145153   5.064   1.738   2.527 -1.5039  0.9881 -1.7387
14407SOL    HW245154   4.917   1.757   2.561 -0.6341  2.1866  1.7380
14408SOL     OW45155   2.429   1.419   8.221 -0.4136  0.0840 -0.4677
14408SOL    HW145156   2.502   1.445   8.165 -0.7411  0.2142 -0.8436
14408SOL    HW245157   2.463   1.347   8.273 -0.6809 -1.4081 -2.2513
14409SOL     OW45158   8.579   3.309   8.336  0.9451 -0.2464  0.0899
14409SOL    HW145159   8.585   3.262   8.419 -0.3666  0.0628  0.3745
14409SOL    HW245160   8.650   3.374   8.340  1.2400 -0.6028  0.7159
14410SOL     OW45161   5.881   2.842   6.483 -0.3196  0.0216  0.0561
14410SOL    HW145162   5.860   2.835   6.576  2.4632  0.6808  0.8086
14410SOL    HW245163   5.880   2.752   6.451  0.0586 -0.3551  1.0686
14411SOL     OW45164   5.781   8.293   0.254 -0.1016 -0.6626 -0.2647
14411SOL    HW145165   5.843   8.299   0.181  0.5547 -3.5038 -0.0464
14411SOL    HW245166   5.702   8.255   0.216 -0.3766 -0.5552  0.1898
14412SOL     OW45167   3.232   7.228   0.312 -1.1870 -0.0807 -0.4213
14412SOL    HW145168   3.198   7.316   0.333 -0.2084  0.5773 -1.5030
14412SOL    HW245169   3.154   7.178   0.288 -1.9255  0.1094  1.3566
14413SOL     OW45170   5.020   4.488   5.178  0.7208  0.5290  0.0818
14413SOL    HW145171   4.964   4.415   5.204  0.5957  0.5451 -0.1431
14413SOL    HW245172   5.040   4.471   5.086  0.8577  0.6717  0.0846
14414SOL     OW45173   3.015   2.492   6.458 -0.8181  0.7232 -0.2875
14414SOL    HW145174   2.993   2.423   6.395 -0.4158  0.3841 -0.0620
14414SOL    HW245175   3.033   2.445   6.539  2.5728  0.7667 -0.8910
14415SOL     OW45176   4.268   4.363   3.027  0.7202 -0.1035 -0.0313
14415SOL    HW145177   4.282   4.300   3.097 -1.8607  1.4144  2.0372
14415SOL    HW245178   4.182   4.339   2.990  1.7568 -0.5148 -2.3777
14416SOL     OW45179   2.648   1.466   2.485 -0.3341 -0.2104  0.0881
14416SOL    HW145180   2.583   1.464   2.556 -0.7000 -1.1161 -0.2615
14416SOL    HW245181   2.660   1.559   2.467  1.5003  0.2397  2.9091
14417SOL     OW45182   6.330   5.941   7.956 -0.3943  0.4258 -0.1112
14417SOL    HW145183   6.369   5.884   7.890 -1.7870 -1.5951  0.7402
14417SOL    HW245184   6.403   5.993   7.988  1.0642 -1.2882 -0.5065
14418SOL     OW45185   6.382   1.875   1.683  0.2537  0.2823  0.4925
14418SOL    HW145186   6.317   1.883   1.753 -0.0181 -1.0311  0.4122
14418SOL    HW245187   6.433   1.798   1.707  0.6769  0.2969 -0.3475
14419SOL     OW45188   3.916   5.218   3.261 -0.5856  0.0519  0.2402
14419SOL    HW145189   3.969   5.236   3.183 -0.5564 -0.6688  0.0877
14419SOL    HW245190   3.945   5.131   3.290 -1.9128 -0.5030 -0.0336
14420SOL     OW45191   3.314   7.699   4.303  0.1012 -0.0206  0.2188
14420SOL    HW145192   3.378   7.657   4.246  0.7435  0.9859  0.1720
14420SOL    HW245193   3.291   7.781   4.258 -0.0603  0.3575  0.9607
14421SOL     OW45194   5.819   1.039   5.421  0.2528  0.1678  0.3198
14421SOL    HW145195   5.766   1.039   5.501  1.1344  0.3787  0.9203
14421SOL    HW245196   5.890   1.101   5.439  0.8341 -0.2749 -0.3807
14422SOL     OW45197   3.486   1.994   7.674 -0.4652 -0.3985  0.0016
14422SOL    HW145198   3.487   2.087   7.651  1.0772 -0.7049 -1.3317
14422SOL    HW245199   3.394   1.976   7.694 -1.0569  1.0903 -1.1388
14423SOL     OW45200   1.537   1.069   5.866  0.2011 -0.5216 -0.0243
14423SOL    HW145201   1.603   1.084   5.799  0.4593  0.0467  0.3481
14423SOL    HW245202   1.556   1.134   5.933 -1.8679  0.9590 -0.7484
14424SOL     OW45203   3.777   5.194   2.037 -0.1973 -0.7717  0.4243
14424SOL    HW145204   3.833   5.244   2.097 -1.7812  1.3836  0.2194
14424SOL    HW245205   3.706   5.162   2.092  0.8412 -2.9958  0.5659
14425SOL     OW45206   3.678   5.793   1.657  0.0410 -0.0908  0.5861
14425SOL    HW145207   3.747   5.728   1.669 -0.7490 -1.0144  0.1995
14425SOL    HW245208   3.666   5.797   1.562  0.8348  1.4399  0.5117
14426SOL     OW45209   2.204   0.859   8.863 -0.7883 -0.7430  0.2099
14426SOL    HW145210   2.115   0.894   8.853 -0.9231 -1.1930 -0.1886
14426SOL    HW245211   2.197   0.797   8.935 -0.8138 -0.8251  0.1370
14427SOL     OW45212   1.116   0.482   6.280  0.4845 -0.6933 -0.0647
14427SOL    HW145213   1.185   0.517   6.337 -0.3368  1.6633 -0.4356
14427SOL    HW245214   1.092   0.399   6.321  0.7529  0.3404  2.3702
14428SOL     OW45215   2.935   2.048   2.214 -0.0176 -0.0129 -0.0505
14428SOL    HW145216   2.886   1.987   2.160  1.1673 -0.0428 -1.1382
14428SOL    HW245217   2.886   2.130   2.207 -1.2691 -0.6292  0.9192
14429SOL     OW45218   1.145   3.560   0.126  0.3070 -0.3453 -0.6566
14429SOL    HW145219   1.221   3.611   0.152  0.2390 -0.3013 -0.5439
14429SOL    HW245220   1.164   3.471   0.157 -1.4729  0.4006  3.1789
14430SOL     OW45221   7.713   0.127   8.192 -0.2340  0.1972  0.6889
14430SOL    HW145222   7.663   0.118   8.111 -0.7437 -1.0538  1.1237
14430SOL    HW245223   7.791   0.073   8.179  0.0106  0.5157  0.7970
14431SOL     OW45224   4.186   5.640   4.258 -0.4372  0.0165 -0.4824
14431SOL    HW145225   4.196   5.641   4.162 -0.0439  1.6618 -0.4492
14431SOL    HW245226   4.272   5.665   4.291 -0.1493 -1.9835  0.3814
14432SOL     OW45227   8.109   2.480   7.198  0.2464  0.4480 -0.2629
14432SOL    HW145228   8.189   2.464   7.248  0.8118 -0.1821 -1.3492
14432SOL    HW245229   8.138   2.493   7.108 -1.0678 -3.2456 -1.3942
14433SOL     OW45230   3.071   1.307   2.584 -0.0194 -0.3162 -0.4786
14433SOL    HW145231   3.140   1.371   2.566 -0.6324  0.2589 -0.8516
14433SOL    HW245232   3.061   1.309   2.679 -0.7551  0.9463 -0.5546
14434SOL     OW45233   2.120   8.536   1.447  0.4152 -0.0895  0.3785
14434SOL    HW145234   2.074   8.597   1.505  1.8801  0.7527  0.7271
14434SOL    HW245235   2.084   8.450   1.468 -1.8223  0.6475 -0.2310
14435SOL     OW45236   2.670   8.317   3.882 -0.1722 -0.0540  0.6694
14435SOL    HW145237   2.687   8.396   3.830  0.7805 -0.7200 -0.0692
14435SOL    HW245238   2.651   8.249   3.817 -0.6585 -0.5067  1.2780
14436SOL     OW45239   4.164   0.332   2.469  0.4454 -0.0397  0.5455
14436SOL    HW145240   4.147   0.347   2.562  1.3109  0.2935  0.6650
14436SOL    HW245241   4.089   0.282   2.438 -0.3954  0.7981  1.1689
14437SOL     OW45242   8.323   2.108   1.279  0.0443 -0.5971  0.4226
14437SOL    HW145243   8.389   2.040   1.293  1.7067  0.5998 -1.0769
14437SOL    HW245244   8.263   2.070   1.214 -0.7964 -1.6839  1.7778
14438SOL     OW45245   4.757   1.772   8.675  0.5278 -0.2370  0.2895
14438SOL    HW145246   4.784   1.680   8.684  0.7675 -0.0874  1.1765
14438SOL    HW245247   4.682   1.769   8.615  1.1982 -0.8887 -0.5541
14439SOL     OW45248   3.694   0.740   6.184 -0.1959  0.0039  0.3233
14439SOL    HW145249   3.654   0.756   6.269 -1.9443 -0.7731 -0.3044
14439SOL    HW245250   3.656   0.657   6.155  1.5089 -0.5160 -0.5722
14440SOL     OW45251   4.788   7.596   4.398  0.5736 -0.2444  0.3642
14440SOL    HW145252   4.787   7.571   4.490  1.0172 -1.9737 -0.0677
14440SOL    HW245253   4.850   7.535   4.357  1.5269  1.4414 -0.8284
14441SOL     OW45254   6.663   0.441   6.115  0.2182  0.3201  0.3044
14441SOL    HW145255   6.755   0.468   6.113  0.9647 -1.9478  1.1699
14441SOL    HW245256   6.662   0.356   6.072 -1.7693  0.9483 -1.0187
14442SOL     OW45257   5.814   1.715   6.173 -0.5902  0.1435 -0.0475
14442SOL    HW145258   5.733   1.665   6.182  0.1782 -0.8119  2.2581
14442SOL    HW245259   5.882   1.649   6.159  0.4147  0.4360  2.8339
14443SOL     OW45260   4.441   0.409   6.448  0.2479 -0.5354  0.1456
14443SOL    HW145261   4.360   0.445   6.485 -0.6716 -0.0141 -2.1983
14443SOL    HW245262   4.474   0.477   6.390 -0.5632 -2.6310 -3.0500
14444SOL     OW45263   2.097   6.322   1.930 -0.4430 -0.5151 -0.0810
14444SOL    HW145264   2.129   6.383   1.996 -0.7478 -2.3594  1.8912
14444SOL    HW245265   2.090   6.374   1.850  1.7038  1.3931  0.8625
14445SOL     OW45266   5.623   6.299   5.961  0.3034  0.5357  0.8502
14445SOL    HW145267   5.582   6.266   6.041 -0.0162  0.6299  0.7265
14445SOL    HW245268   5.588   6.388   5.952 -0.6785  0.0622 -0.1102
14446SOL     OW45269   4.585   0.842   8.292  0.3415  0.7766 -0.9746
14446SOL    HW145270   4.674   0.807   8.286 -0.4368 -1.0769 -4.0927
14446SOL    HW245271   4.552   0.839   8.202 -2.5612  2.3679 -0.0957
14447SOL     OW45272   2.255   7.526   1.979  0.0099  0.3067 -0.7595
14447SOL    HW145273   2.223   7.461   2.042  2.0169 -0.6975 -0.6966
14447SOL    HW245274   2.233   7.611   2.019 -0.9507 -0.3209  0.0901
14448SOL     OW45275   2.376   1.029   2.156  0.2452 -0.5001  0.2228
14448SOL    HW145276   2.302   1.047   2.213  1.1373  0.0601  1.2357
14448SOL    HW245277   2.339   1.029   2.068 -0.8570  0.2787  0.6689
14449SOL     OW45278   7.517   8.073   3.610 -0.1780 -0.2276  0.2742
14449SOL    HW145279   7.442   8.016   3.593  0.1666  0.0030 -2.4327
14449SOL    HW245280   7.583   8.014   3.648 -1.0221 -0.8341  0.8607
14450SOL     OW45281   0.389   7.755   8.724  0.4919 -0.3487  0.5431
14450SOL    HW145282   0.321   7.740   8.790  1.2080 -0.2517  1.3248
14450SOL    HW245283   0.341   7.780   8.645 -0.3998 -0.8079  0.9312
14451SOL     OW45284   7.641   7.146   3.703  0.0908  0.3138  0.1993
14451SOL    HW145285   7.583   7.138   3.627 -0.4647  0.1843  0.6302
14451SOL    HW245286   7.702   7.216   3.679  1.4696 -1.2974 -1.3444
14452SOL     OW45287   6.906   8.398   7.003 -0.3268 -0.3609 -0.4951
14452SOL    HW145288   6.819   8.421   7.036 -0.1803 -1.6567  0.8996
14452SOL    HW245289   6.937   8.478   6.960 -2.0548  0.2327 -0.7229
14453SOL     OW45290   1.568   7.901   3.259 -0.3762 -0.4850  0.3801
14453SOL    HW145291   1.628   7.827   3.252  1.4393  0.9392  0.2921
14453SOL    HW245292   1.608   7.971   3.208 -2.5162  0.3139 -0.3400
14454SOL     OW45293   7.073   5.828   0.994 -0.0713 -0.2874 -0.4587
14454SOL    HW145294   6.989   5.864   1.023 -0.2586 -0.2225 -1.0533
14454SOL    HW245295   7.137   5.894   1.017 -0.1949 -0.2891 -0.0961
14455SOL     OW45296   1.354   3.700   7.060  0.4797 -0.1862  0.1424
14455SOL    HW145297   1.447   3.722   7.066  0.6661 -1.1011  0.7767
14455SOL    HW245298   1.340   3.681   6.968  0.7489  0.6511 -0.0833
14456SOL     OW45299   2.415   2.885   3.501  0.1443  0.0369 -0.1256
14456SOL    HW145300   2.461   2.916   3.423  0.7439 -1.3629 -0.3539
14456SOL    HW245301   2.325   2.871   3.471 -0.3708  2.2956  0.1988
14457SOL     OW45302   4.658   6.281   1.842 -0.2317 -0.0984  0.3251
14457SOL    HW145303   4.608   6.349   1.795  1.0131  0.3675 -0.3642
14457SOL    HW245304   4.694   6.326   1.918 -0.2349 -0.2469  0.4144
14458SOL     OW45305   3.707   8.392   1.752  0.0227 -0.1153 -0.0226
14458SOL    HW145306   3.774   8.328   1.774 -1.0812 -1.1663  0.4158
14458SOL    HW245307   3.629   8.361   1.798 -0.2785  2.1579  1.1346
14459SOL     OW45308   2.771   8.629   8.832 -0.1952  0.2448  0.4298
14459SOL    HW145309   2.771   8.696   8.763  0.4227 -0.4035 -0.2240
14459SOL    HW245310   2.685   8.587   8.825  0.2179 -0.4734 -0.6299
14460SOL     OW45311   0.105   7.043   5.392 -0.3928  0.7011  0.2235
14460SOL    HW145312   0.072   7.050   5.481  1.4758 -0.6846  1.0801
14460SOL    HW245313   0.080   6.955   5.363 -0.7865  1.0534 -0.5567
14461SOL     OW45314   3.286   8.663   5.571  0.4193  0.4063  0.8236
14461SOL    HW145315   3.318   8.625   5.653  0.3952 -0.0953  0.6057
14461SOL    HW245316   3.252   8.749   5.596  0.8903  0.4775  1.2490
14462SOL     OW45317   7.578   1.274   4.296 -0.7562  0.4949 -0.6438
14462SOL    HW145318   7.643   1.299   4.230 -1.7945  1.2985 -1.3730
14462SOL    HW245319   7.616   1.304   4.379  0.9879 -1.3234 -0.6844
14463SOL     OW45320   0.843   8.414   2.651  0.6140  0.2563 -0.5702
14463SOL    HW145321   0.813   8.505   2.645  0.1235  0.0013 -2.7454
14463SOL    HW245322   0.920   8.411   2.595  0.6016 -0.6841 -0.5405
14464SOL     OW45323   1.724   5.857   0.076 -0.1267 -0.4346  0.9878
14464SOL    HW145324   1.789   5.787   0.078  1.2038  0.7110  0.2010
14464SOL    HW245325   1.730   5.899   0.161 -1.1305 -1.4142  1.5668
14465SOL     OW45326   1.791   3.133   3.854  0.3283 -0.5163 -0.0998
14465SOL    HW145327   1.715   3.145   3.798  0.5276 -0.5908 -0.3892
14465SOL    HW245328   1.825   3.047   3.829 -0.3190 -1.1179  1.0207
14466SOL     OW45329   8.414   5.863   3.556 -0.1006  0.0570  0.4727
14466SOL    HW145330   8.480   5.795   3.547 -1.8541 -1.7472  0.5976
14466SOL    HW245331   8.459   5.935   3.600  1.9744 -0.7517 -0.2332
14467SOL     OW45332   5.638   1.643   4.408  0.2858  0.8307  0.4616
14467SOL    HW145333   5.589   1.632   4.327  0.3742 -0.1064  0.5312
14467SOL    HW245334   5.572   1.665   4.473 -0.0179 -0.1967  0.5086
14468SOL     OW45335   3.228   5.024   1.738  0.4751  0.0417  0.2439
14468SOL    HW145336   3.282   4.949   1.714 -1.5282 -0.8785 -1.7849
14468SOL    HW245337   3.152   4.986   1.783 -0.7366  0.7394 -1.1011
14469SOL     OW45338   5.571   3.925   5.837  0.1015 -0.5446 -0.4808
14469SOL    HW145339   5.513   3.879   5.898 -0.8111  0.0287 -0.9044
14469SOL    HW245340   5.528   3.916   5.752 -0.3910  1.5651 -0.4896
14470SOL     OW45341   2.184   6.089   7.910  0.7085 -0.6212  0.3248
14470SOL    HW145342   2.182   6.121   8.000 -0.8091 -0.4209  0.2378
14470SOL    HW245343   2.147   6.001   7.915  3.7168 -2.0282  0.3700
14471SOL     OW45344   2.908   3.135   5.232  0.0949  0.1849  0.5249
14471SOL    HW145345   2.966   3.210   5.243 -0.6361  0.9252 -0.4671
14471SOL    HW245346   2.960   3.071   5.182  0.3827  0.4406  0.4945
14472SOL     OW45347   0.169   5.278   2.982 -0.2283  0.2356  0.2188
14472SOL    HW145348   0.127   5.330   3.051 -0.4389  1.3667 -0.7229
14472SOL    HW245349   0.261   5.274   3.008 -0.2700  0.8317  0.4717
14473SOL     OW45350   1.790   5.153   7.861  0.2433  0.1264  0.1007
14473SOL    HW145351   1.744   5.148   7.945 -0.1567  0.5086 -0.0880
14473SOL    HW245352   1.865   5.094   7.870  0.7059  0.8451  1.0397
14474SOL     OW45353   5.400   5.091   8.264  0.0427  0.0616  0.2726
14474SOL    HW145354   5.437   5.120   8.347  1.1980 -0.3375 -0.0836
14474SOL    HW245355   5.350   5.012   8.285 -0.4861  0.5064  0.7265
14475SOL     OW45356   1.363   3.743   8.003 -0.2885 -0.6660  0.5123
14475SOL    HW145357   1.283   3.739   8.055 -1.8188 -0.7721 -1.7074
14475SOL    HW245358   1.389   3.835   8.005 -2.6109  0.1362 -1.6616
14476SOL     OW45359   2.243   2.572   3.170  0.1213  0.1532 -0.1493
14476SOL    HW145360   2.320   2.591   3.224 -0.2139  0.3983  0.2421
14476SOL    HW245361   2.176   2.545   3.232 -0.2231  0.3048 -0.4532
14477SOL     OW45362   2.450   3.186   0.175 -0.4541  0.1168 -0.4174
14477SOL    HW145363   2.523   3.129   0.198 -0.0831  1.7288  3.2128
14477SOL    HW245364   2.375   3.147   0.219 -1.0498  0.3459 -1.2088
14478SOL     OW45365   1.239   6.893   5.392 -0.1315 -0.1082 -0.7509
14478SOL    HW145366   1.308   6.828   5.382  0.7365  1.0160 -2.5471
14478SOL    HW245367   1.216   6.918   5.302 -0.4500  2.0285 -0.1196
14479SOL     OW45368   1.224   0.964   8.588 -0.0816  0.3298  0.0867
14479SOL    HW145369   1.157   1.017   8.630  1.3006  2.6274 -0.4569
14479SOL    HW245370   1.176   0.910   8.525 -1.5406  0.9114  0.6643
14480SOL     OW45371   1.731   0.374   5.668 -0.0537  0.2716  0.1895
14480SOL    HW145372   1.659   0.331   5.622  0.9914 -0.5807 -0.7078
14480SOL    HW245373   1.755   0.312   5.738  0.3534  0.1547 -0.0489
14481SOL     OW45374   4.281   7.252   6.236 -0.3376  0.7773 -0.2019
14481SOL    HW145375   4.357   7.288   6.282  0.5528  0.7365 -1.5902
14481SOL    HW245376   4.293   7.280   6.145 -0.2650 -1.9010 -1.1163
14482SOL     OW45377   8.690   0.147   6.146 -0.0727 -0.2959  0.4828
14482SOL    HW145378   8.750   0.210   6.106 -2.4744  2.4591  0.8647
14482SOL    HW245379   8.641   0.110   6.072  0.2256 -0.4768  0.3751
14483SOL     OW45380   2.945   0.569   7.819  0.3369  0.0915  0.3762
14483SOL    HW145381   3.008   0.497   7.828  0.2176 -0.0213  0.3135
14483SOL    HW245382   2.951   0.617   7.901 -0.4388 -0.6836  0.9070
14484SOL     OW45383   3.169   3.099   4.967 -0.1933 -0.0233  0.4579
14484SOL    HW145384   3.192   3.180   4.921 -1.9110  1.0158  1.3091
14484SOL    HW245385   3.206   3.110   5.054 -3.5149  1.6720  1.8476
14485SOL     OW45386   2.855   1.508   3.016  0.2887 -0.7688 -0.1473
14485SOL    HW145387   2.907   1.451   3.072  1.4976  0.3563 -0.0925
14485SOL    HW245388   2.904   1.590   3.011 -1.2934  0.2127 -0.3956
14486SOL     OW45389   3.241   0.333   0.940 -0.1978 -0.1672  0.3006
14486SOL    HW145390   3.225   0.244   0.909 -1.6343  0.3393 -0.5339
14486SOL    HW245391   3.217   0.389   0.865 -1.2787  0.9903  1.4610
14487SOL     OW45392   2.625   0.959   5.834  0.3738  0.3341 -0.0949
14487SOL    HW145393   2.676   0.881   5.856  1.5496  0.9343 -0.6102
14487SOL    HW245394   2.581   0.984   5.915 -0.3017 -1.0547 -0.0071
14488SOL     OW45395   8.678   8.343   1.101 -0.1847 -0.1804  0.2763
14488SOL    HW145396   8.670   8.407   1.172 -1.3632  1.3740 -1.1644
14488SOL    HW245397   8.738   8.277   1.135  1.4130  1.8734  1.7228
14489SOL     OW45398   7.664   1.462   3.662 -0.0498  0.1846  0.4987
14489SOL    HW145399   7.687   1.553   3.680  0.7548  0.2268 -0.6147
14489SOL    HW245400   7.606   1.467   3.585  1.1600 -0.3110 -0.4745
14490SOL     OW45401   1.937   0.121   5.126 -0.2015 -0.3109  0.5141
14490SOL    HW145402   1.862   0.113   5.068 -0.3640 -1.8850  0.8821
14490SOL    HW245403   1.903   0.161   5.205 -0.4712 -0.2811  0.3830
14491SOL     OW45404   5.037   4.048   8.706 -0.7810 -0.2419 -0.5486
14491SOL    HW145405   4.976   4.121   8.721  0.3527  0.7560 -0.6855
14491SOL    HW245406   5.114   4.088   8.666 -0.7102 -1.7413 -2.0452
14492SOL     OW45407   6.786   8.860   4.829 -0.4493 -0.4097  0.3582
14492SOL    HW145408   6.797   8.881   4.737  1.9304 -1.9334  0.2094
14492SOL    HW245409   6.803   8.943   4.875  1.6297 -0.2927 -0.4932
14493SOL     OW45410   7.281   6.143   6.125 -0.0767  0.7167 -0.4386
14493SOL    HW145411   7.291   6.199   6.048  2.4312 -0.8719 -1.3851
14493SOL    HW245412   7.287   6.054   6.091 -2.9228 -0.2217  1.1628
14494SOL     OW45413   2.922   1.034   7.368 -0.2756 -0.4586 -0.0447
14494SOL    HW145414   2.949   1.099   7.303  1.5768 -1.4031 -0.3196
14494SOL    HW245415   2.866   1.081   7.428 -0.8891  0.8079 -1.5281
14495SOL     OW45416   5.506   1.191   7.352  0.0792  0.0191 -0.1174
14495SOL    HW145417   5.449   1.268   7.358  0.3287  0.0774  1.9681
14495SOL    HW245418   5.480   1.149   7.269 -1.0409  1.5490 -0.5856
14496SOL     OW45419   8.775   0.219   2.111  0.2689 -0.2313 -0.2567
14496SOL    HW145420   8.698   0.162   2.116  1.7547 -2.3738 -0.1404
14496SOL    HW245421   8.788   0.233   2.017 -2.3573  3.3979 -0.3002
14497SOL     OW45422   7.786   8.205   2.962 -0.3829  0.2699  0.5366
14497SOL    HW145423   7.785   8.189   3.056 -2.2495  0.7302  0.6269
14497SOL    HW245424   7.721   8.144   2.927  1.4765 -1.1139 -0.7220
14498SOL     OW45425   3.081   7.028   1.453  0.1963 -0.3123  0.7352
14498SOL    HW145426   3.113   7.092   1.517 -0.5629  1.7500 -0.8247
14498SOL    HW245427   3.059   7.081   1.376 -0.8104 -2.4450 -0.5223
14499SOL     OW45428   2.508   3.925   5.710 -0.3568  0.2454  0.2260
14499SOL    HW145429   2.458   3.928   5.792  0.8192 -1.5621  1.0804
14499SOL    HW245430   2.459   3.865   5.654 -0.8137  0.9690 -0.1577
14500SOL     OW45431   6.616   0.820   7.126  0.5109 -0.6628 -0.5020
14500SOL    HW145432   6.678   0.871   7.177 -1.8208  0.9142  0.9591
14500SOL    HW245433   6.590   0.878   7.054 -0.1242 -0.7972 -0.3941
14501SOL     OW45434   6.346   2.054   5.647 -0.0643 -0.1822 -0.3783
14501SOL    HW145435   6.338   2.083   5.738  0.1084 -1.0042 -0.0898
14501SOL    HW245436   6.431   2.010   5.643 -1.0489 -2.2071 -0.3207
14502SOL     OW45437   0.883   7.905   2.315 -0.0878 -0.0650 -0.3945
14502SOL    HW145438   0.968   7.943   2.337 -0.1672 -1.3970  2.6329
14502SOL    HW245439   0.819   7.967   2.347 -0.2676  0.0196 -0.9041
14503SOL     OW45440   3.136   1.105   0.068 -0.3323  0.7179 -0.0516
14503SOL    HW145441   3.198   1.055   0.121 -0.3064  1.5629  0.7604
14503SOL    HW245442   3.062   1.121   0.127 -1.7405 -1.0069 -1.2681
14504SOL     OW45443   7.712   3.710   4.627 -0.1409 -0.7986 -0.1803
14504SOL    HW145444   7.782   3.645   4.619 -0.1945 -0.9760  0.6782
14504SOL    HW245445   7.733   3.759   4.706  0.1655  0.5805 -1.0940
14505SOL     OW45446   8.476   8.393   6.679  0.0030 -0.4866 -0.0769
14505SOL    HW145447   8.558   8.443   6.686 -0.5737  0.3882  0.7289
14505SOL    HW245448   8.438   8.421   6.595  0.8459 -1.4114 -0.7816
14506SOL     OW45449   0.350   8.687   2.478 -0.1684  0.5439 -0.0356
14506SOL    HW145450   0.357   8.760   2.417  1.0240 -1.0424 -1.9079
14506SOL    HW245451   0.266   8.646   2.459 -0.6864  1.1917  0.7852
14507SOL     OW45452   4.928   6.385   5.055  0.4137 -0.0899 -0.6228
14507SOL    HW145453   4.913   6.310   5.113  2.1348  0.7084  0.9675
14507SOL    HW245454   4.849   6.438   5.063  0.5424 -0.0880  0.9139
14508SOL     OW45455   4.531   4.255   5.996  0.2083  0.4000  0.3298
14508SOL    HW145456   4.559   4.164   5.982  1.9475  1.1837 -1.8154
14508SOL    HW245457   4.574   4.281   6.078 -0.1082 -0.6008  0.8341
14509SOL     OW45458   7.038   6.000   3.710 -0.4081  0.0418  0.5730
14509SOL    HW145459   6.948   6.032   3.708 -0.2791  0.4833  1.6251
14509SOL    HW245460   7.087   6.069   3.754 -0.0124 -1.3033  2.3260
14510SOL     OW45461   6.982   0.860   1.511 -0.2897 -0.1864  0.1671
14510SOL    HW145462   7.028   0.808   1.577 -0.7637  1.5903  2.0110
14510SOL    HW245463   6.971   0.801   1.437  1.3620 -1.8944  1.2038
14511SOL     OW45464   1.256   8.824   0.950 -0.1837 -0.5662 -0.0137
14511SOL    HW145465   1.335   8.817   0.897 -0.3764  0.3653 -0.4460
14511SOL    HW245466   1.254   8.743   1.002  2.4507  0.4790  1.9606
14512SOL     OW45467   7.523   8.082   5.273 -0.2381  0.1322  0.1134
14512SOL    HW145468   7.532   8.138   5.350 -1.3159 -2.1041  1.9569
14512SOL    HW245469   7.537   8.142   5.199 -2.4629  3.0938  1.8655
14513SOL     OW45470   3.418   5.051   2.019 -0.1598 -0.4355 -0.3916
14513SOL    HW145471   3.323   5.051   2.013 -0.1325 -0.4133 -0.8798
14513SOL    HW245472   3.442   5.142   2.036 -0.2504 -0.5202  0.2039
14514SOL     OW45473   8.533   8.267   0.004 -0.2226  0.4511 -0.9562
14514SOL    HW145474   8.526   8.188  -0.049 -0.7134  0.4854 -0.9458
14514SOL    HW245475   8.476   8.330  -0.039 -1.6634  0.0827  0.3067
14515SOL     OW45476   3.508   5.087   2.585 -0.1922  0.0266 -0.2865
14515SOL    HW145477   3.504   5.001   2.626 -0.2983 -0.8498 -2.0538
14515SOL    HW245478   3.494   5.071   2.492  0.2666  1.9043 -0.7377
14516SOL     OW45479   2.471   8.471   7.451  0.0278 -0.6460 -0.2705
14516SOL    HW145480   2.509   8.537   7.508 -2.0375  1.1290 -0.8100
14516SOL    HW245481   2.516   8.390   7.474  2.6823  0.9036  0.4251
14517SOL     OW45482   8.250   8.509   8.403 -0.2575  0.1470 -0.5213
14517SOL    HW145483   8.204   8.589   8.426 -1.2425 -0.4471 -0.3831
14517SOL    HW245484   8.323   8.539   8.349 -1.3657  1.0357 -1.5847
14518SOL     OW45485   2.079   2.438   4.283  0.6473  0.3547 -0.2063
14518SOL    HW145486   2.085   2.472   4.194  0.8282  0.3000 -0.2154
14518SOL    HW245487   2.021   2.362   4.276  0.0379  0.8004 -0.1453
14519SOL     OW45488   4.817   3.525   8.346 -0.6198  0.0584 -0.1719
14519SOL    HW145489   4.799   3.518   8.439  2.8009  1.9304  0.7947
14519SOL    HW245490   4.785   3.612   8.322 -0.0002  0.2560 -0.3030
14520SOL     OW45491   6.348   0.711   1.973  0.6910 -0.4851  0.4464
14520SOL    HW145492   6.366   0.628   1.928  0.9935  0.9595 -2.3296
14520SOL    HW245493   6.253   0.712   1.985  0.2363  0.0397 -2.4556
14521SOL     OW45494   6.830   4.155   5.735 -0.4881 -0.6596  0.6788
14521SOL    HW145495   6.748   4.175   5.781 -1.0200 -1.3955  0.0828
14521SOL    HW245496   6.802   4.125   5.649  0.4734  0.1942  0.0421
14522SOL     OW45497   0.407   0.486   0.268 -0.0443 -0.4471 -0.2888
14522SOL    HW145498   0.462   0.521   0.197  0.9326  0.9206  1.0786
14522SOL    HW245499   0.369   0.563   0.309 -1.3973 -1.2797  0.0702
14523SOL     OW45500   2.078   7.516   1.682  0.3802 -0.9622 -0.4233
14523SOL    HW145501   2.065   7.604   1.719 -0.0011 -0.3039 -2.0415
14523SOL    HW245502   2.159   7.485   1.722  0.6893  0.2611 -0.0557
14524SOL     OW45503   5.084   8.389   2.355  0.1222  0.3804 -0.0052
14524SOL    HW145504   5.053   8.300   2.344 -2.4761  1.1831  0.1014
14524SOL    HW245505   5.025   8.428   2.419 -0.4725  2.8722 -1.8657
14525SOL     OW45506   0.848   7.340   8.760  0.4565  0.4534  0.5072
14525SOL    HW145507   0.878   7.406   8.823  2.9548  1.0927 -1.2076
14525SOL    HW245508   0.911   7.269   8.768 -0.5841 -0.5103  0.3446
14526SOL     OW45509   1.682   5.579   0.886  0.1812  0.1323 -0.1997
14526SOL    HW145510   1.754   5.641   0.871  0.9860 -0.5871  0.6166
14526SOL    HW245511   1.667   5.539   0.800 -0.0962  1.1550 -0.6568
14527SOL     OW45512   5.134   3.470   2.322 -0.1903 -0.0517  0.2228
14527SOL    HW145513   5.223   3.442   2.346  0.4236  0.5737 -1.1613
14527SOL    HW245514   5.137   3.476   2.226 -1.3174  1.3683  0.2469
14528SOL     OW45515   1.038   7.312   7.788  0.3199 -0.2901 -0.8769
14528SOL    HW145516   0.978   7.380   7.821 -0.1532 -0.3479 -1.6043
14528SOL    HW245517   1.071   7.270   7.867  0.4562  0.6457 -0.4193
14529SOL     OW45518   7.422   6.557   1.088 -0.0116 -1.0839 -0.0847
14529SOL    HW145519   7.459   6.555   1.000 -1.5735  0.1974 -0.8255
14529SOL    HW245520   7.352   6.491   1.085 -0.9577 -0.1128 -0.2812
14530SOL     OW45521   4.259   2.548   0.931  0.0980  0.5715 -0.2981
14530SOL    HW145522   4.338   2.581   0.975  0.6010 -0.3224 -0.5165
14530SOL    HW245523   4.290   2.475   0.877 -0.9198  0.0763 -0.2300
14531SOL     OW45524   3.123   5.607   6.086 -0.7407  0.2073 -0.1636
14531SOL    HW145525   3.193   5.634   6.146 -0.1901 -1.0607 -0.1929
14531SOL    HW245526   3.055   5.573   6.144 -0.0809 -1.3074 -0.2226
14532SOL     OW45527   2.431   8.295   4.849 -0.3469  0.0830 -0.3156
14532SOL    HW145528   2.484   8.216   4.848 -0.9848 -0.4332  1.7679
14532SOL    HW245529   2.495   8.366   4.857  0.1354 -0.3908  0.1348
14533SOL     OW45530   8.643   5.046   7.170 -0.5868 -0.0680 -0.1243
14533SOL    HW145531   8.577   5.110   7.145 -1.2560 -0.5288  0.4218
14533SOL    HW245532   8.722   5.097   7.184 -0.9164  0.5385 -0.4492
14534SOL     OW45533   6.546   2.872   6.471  0.0322 -0.0537  0.6192
14534SOL    HW145534   6.529   2.795   6.526  1.7398  1.1193  2.9861
14534SOL    HW245535   6.465   2.923   6.477 -0.4052 -0.7327  0.6528
14535SOL     OW45536   6.716   7.092   3.166 -0.0977  0.1152 -0.3570
14535SOL    HW145537   6.794   7.074   3.114  0.6109  0.0652  0.7114
14535SOL    HW245538   6.657   7.019   3.148  1.5460 -1.8011  1.6114
14536SOL     OW45539   2.986   5.851   6.000  0.1906  0.1740 -0.8044
14536SOL    HW145540   2.968   5.866   5.908 -1.3969 -1.9684 -0.9152
14536SOL    HW245541   3.031   5.767   6.002 -0.0323  0.0642  0.3761
14537SOL     OW45542   0.377   1.034   7.472 -0.0477  0.4527 -0.0197
14537SOL    HW145543   0.366   1.046   7.378 -0.8383  1.3920  0.1765
14537SOL    HW245544   0.371   1.122   7.509  0.9818  0.1742  0.8510
14538SOL     OW45545   3.814   2.964   7.025 -0.1771 -0.6896  0.3746
14538SOL    HW145546   3.870   2.898   7.067 -0.6102 -0.7646  0.8449
14538SOL    HW245547   3.736   2.969   7.082 -0.4760 -0.3112 -0.0625
14539SOL     OW45548   0.617   4.493   5.507  0.0070 -0.3156  0.7514
14539SOL    HW145549   0.593   4.524   5.594 -1.1535  0.2792  0.2405
14539SOL    HW245550   0.642   4.402   5.520  1.5258  0.2327  1.9631
14540SOL     OW45551   1.515   3.693   8.298 -0.1387  0.3570  0.3816
14540SOL    HW145552   1.568   3.762   8.259 -0.3468  1.2551  1.6304
14540SOL    HW245553   1.425   3.726   8.296 -0.2641  0.0586  0.8206
14541SOL     OW45554   2.623   8.779   0.876 -0.4527  0.1192 -0.0849
14541SOL    HW145555   2.682   8.781   0.951  1.4191 -0.8288 -1.4680
14541SOL    HW245556   2.559   8.848   0.894  0.1397  0.1234  2.2027
14542SOL     OW45557   6.038   2.035   1.699 -0.3618 -0.7361 -0.3074
14542SOL    HW145558   5.997   2.102   1.643 -1.5131 -1.7282 -0.6846
14542SOL    HW245559   6.048   1.959   1.643 -0.2303 -1.2975  0.4591
14543SOL     OW45560   5.490   5.597   2.096 -0.2341 -0.0781  0.3406
14543SOL    HW145561   5.541   5.581   2.175  0.8562 -1.2868 -0.5767
14543SOL    HW245562   5.428   5.524   2.091 -1.2248  0.7101  0.7739
14544SOL     OW45563   2.209   3.211   5.074  0.8157  0.0266  0.4007
14544SOL    HW145564   2.275   3.264   5.030  1.7729 -1.1018  0.4288
14544SOL    HW245565   2.259   3.151   5.129 -0.2472 -0.7456  0.5618
14545SOL     OW45566   8.544   3.698   8.306 -0.5205 -0.2936 -0.0506
14545SOL    HW145567   8.618   3.756   8.289  0.1427 -0.4630  1.9165
14545SOL    HW245568   8.472   3.734   8.255  0.6393  0.4990 -1.1862
14546SOL     OW45569   0.894   6.076   7.938  0.1465 -0.3203  0.0790
14546SOL    HW145570   0.952   6.133   7.888  0.2542 -0.2844  0.2434
14546SOL    HW245571   0.948   6.000   7.960  0.5113  0.2677  1.2949
14547SOL     OW45572   1.646   1.210   6.210 -0.0792 -0.4731  0.1595
14547SOL    HW145573   1.727   1.261   6.212 -0.7839  0.9493 -2.6196
14547SOL    HW245574   1.675   1.120   6.202  1.2570 -0.0167 -0.4912
14548SOL     OW45575   7.876   0.413   6.198  0.1008  0.3696  0.4286
14548SOL    HW145576   7.861   0.483   6.262 -0.9864  1.7498 -1.2317
14548SOL    HW245577   7.859   0.455   6.113 -1.0234 -2.0188 -0.6153
14549SOL     OW45578   7.400   1.242   6.137  0.4026  0.3381  0.0844
14549SOL    HW145579   7.487   1.238   6.177  0.1166 -1.4881  0.5992
14549SOL    HW245580   7.417   1.236   6.043  0.8056 -1.4924  0.2398
14550SOL     OW45581   3.250   7.545   7.941 -0.0935 -0.2447 -0.4859
14550SOL    HW145582   3.204   7.603   7.881 -1.3201 -0.3503  0.3178
14550SOL    HW245583   3.341   7.549   7.913 -0.5969 -0.1324 -2.2032
14551SOL     OW45584   8.201   7.817   0.663 -0.6221 -0.3166 -0.5203
14551SOL    HW145585   8.168   7.749   0.605 -0.0715 -0.1402 -1.0497
14551SOL    HW245586   8.173   7.899   0.622  0.9429 -0.1391 -1.3044
14552SOL     OW45587   2.252   7.967   5.557 -0.2727 -0.2364 -0.3600
14552SOL    HW145588   2.331   7.941   5.512  0.2772 -0.6439  0.8016
14552SOL    HW245589   2.230   8.053   5.520  1.7046  0.7008  0.4976
14553SOL     OW45590   4.552   2.707   7.364  0.4406 -0.0667 -0.1860
14553SOL    HW145591   4.559   2.802   7.374 -1.0720  0.0364  0.0451
14553SOL    HW245592   4.532   2.676   7.452  0.8782 -0.6121 -0.2717
14554SOL     OW45593   7.071   7.486   6.373 -1.2233 -0.1477 -0.2564
14554SOL    HW145594   6.985   7.445   6.376 -1.4972  0.4472  2.4124
14554SOL    HW245595   7.054   7.577   6.348 -1.2893 -0.2080 -0.4291
14555SOL     OW45596   8.545   6.828   5.928 -0.9588 -0.4481 -0.4915
14555SOL    HW145597   8.486   6.893   5.891  0.0510 -0.9717 -3.2646
14555SOL    HW245598   8.606   6.878   5.981 -2.6408  0.3220  0.8073
14556SOL     OW45599   7.989   6.283   2.239 -0.0596  0.2141  0.4012
14556SOL    HW145600   7.901   6.284   2.201 -0.2862 -0.5836  0.8810
14556SOL    HW245601   8.013   6.191   2.243  1.2327  0.4725 -0.6803
14557SOL     OW45602   0.549   2.871   2.506 -0.5222  0.2552  0.3990
14557SOL    HW145603   0.603   2.842   2.432  0.5287 -0.3988  1.3824
14557SOL    HW245604   0.483   2.927   2.466  0.9942  1.2453 -0.8517
14558SOL     OW45605   6.328   6.855   5.407 -0.2105  0.5706  0.2377
14558SOL    HW145606   6.385   6.903   5.466  0.8294  0.1293 -0.3900
14558SOL    HW245607   6.239   6.881   5.433  0.2796  1.6495  0.8902
14559SOL     OW45608   1.705   8.186   7.875  0.4818  0.1249  0.2476
14559SOL    HW145609   1.716   8.269   7.829  0.5722  0.1766  0.3640
14559SOL    HW245610   1.760   8.124   7.828 -1.7460 -0.5818 -1.6591
14560SOL     OW45611   7.863   1.831   6.097 -0.0279 -0.0927 -0.1033
14560SOL    HW145612   7.770   1.809   6.099  0.0018 -0.2348  1.3356
14560SOL    HW245613   7.894   1.801   6.012 -1.3113  0.0402 -0.6413
14561SOL     OW45614   0.694   4.377   0.091  0.0891 -0.3368  0.1051
14561SOL    HW145615   0.771   4.394   0.037 -0.4827  2.8294  0.0818
14561SOL    HW245616   0.625   4.356   0.028 -0.0045  0.9462 -0.2421
14562SOL     OW45617   7.980   8.611   4.890 -0.3007  0.1672 -0.6788
14562SOL    HW145618   8.017   8.665   4.820 -2.0776  0.8302 -1.1636
14562SOL    HW245619   8.056   8.568   4.930  0.8264  0.2671 -2.5890
14563SOL     OW45620   1.085   5.211   2.571 -0.0894  0.1452 -0.5237
14563SOL    HW145621   1.166   5.250   2.539  0.2904 -0.6058 -0.5106
14563SOL    HW245622   1.020   5.281   2.565  0.6036  0.8164 -0.3470
14564SOL     OW45623   6.065   8.025   0.158  0.0028  0.2933  0.4173
14564SOL    HW145624   6.058   8.120   0.168  2.4545  0.4935  1.0029
14564SOL    HW245625   6.104   7.996   0.241 -1.8511 -1.4308  0.7529
14565SOL     OW45626   0.609   3.187   6.851 -0.5411  0.2826 -0.2254
14565SOL    HW145627   0.675   3.177   6.782  0.1580  3.1809 -0.1064
14565SOL    HW245628   0.660   3.202   6.931 -1.3553  0.0640  0.3422
14566SOL     OW45629   4.175   7.666   3.030 -0.8660  0.0903  0.0743
14566SOL    HW145630   4.128   7.699   3.107 -0.5121 -0.9522  0.7497
14566SOL    HW245631   4.111   7.609   2.987 -1.1610  0.8894 -0.5885
14567SOL     OW45632   7.360   1.775   4.903 -0.3564  0.5331 -0.3847
14567SOL    HW145633   7.435   1.825   4.933 -1.1304 -0.3137  3.4537
14567SOL    HW245634   7.289   1.839   4.897  0.0753  0.9186 -1.7620
14568SOL     OW45635   6.738   1.292   2.637  0.3235  0.0323 -0.4784
14568SOL    HW145636   6.674   1.225   2.612  0.6201 -0.6514  0.5357
14568SOL    HW245637   6.686   1.368   2.663 -0.1672 -0.9057  1.4710
14569SOL     OW45638   6.682   6.230   6.851 -0.3836  0.1424 -0.2555
14569SOL    HW145639   6.777   6.243   6.853 -0.3033  0.1216 -2.0154
14569SOL    HW245640   6.669   6.146   6.896  0.3627  0.3727  0.4214
14570SOL     OW45641   5.111   6.166   1.240  0.3506 -0.0739 -0.7894
14570SOL    HW145642   5.194   6.148   1.195  1.4592  0.2653  1.0390
14570SOL    HW245643   5.135   6.223   1.313 -1.5876  0.4548 -0.5135
14571SOL     OW45644   1.637   0.089   4.029  0.6979 -0.2328  0.3773
14571SOL    HW145645   1.694   0.166   4.042  0.2073 -0.0060  1.3004
14571SOL    HW245646   1.556   0.112   4.074  0.6967 -1.4619  1.0448
14572SOL     OW45647   2.955   5.106   1.712  0.8796 -0.4510  0.1981
14572SOL    HW145648   3.045   5.107   1.679  1.0407  0.2379  0.6425
14572SOL    HW245649   2.946   5.021   1.755  0.6603 -1.3883 -1.5984
14573SOL     OW45650   3.076   8.744   1.138 -0.2624  0.0957 -0.4168
14573SOL    HW145651   3.084   8.760   1.044 -0.8392  1.3991 -0.2697
14573SOL    HW245652   3.130   8.667   1.155  1.4577  1.0170 -1.4868
14574SOL     OW45653   1.044   6.124   4.606  0.2027  0.7023 -0.0688
14574SOL    HW145654   1.087   6.137   4.690 -0.7948 -0.2848  0.6166
14574SOL    HW245655   1.083   6.190   4.548  0.9328  1.3531  1.1432
14575SOL     OW45656   6.005   6.464   7.717  0.3568  0.0875  0.2265
14575SOL    HW145657   6.090   6.474   7.759  0.8959  0.3999 -0.9024
14575SOL    HW245658   5.942   6.496   7.783  0.9397 -1.5321  1.6486
14576SOL     OW45659   1.236   7.509   7.934 -0.2673  0.0146 -0.0848
14576SOL    HW145660   1.198   7.439   7.881 -0.3533 -1.1516  1.4299
14576SOL    HW245661   1.231   7.476   8.024  0.9403  1.4029  0.5350
14577SOL     OW45662   6.925   7.919   8.757  0.0689  0.3200  0.7003
14577SOL    HW145663   6.969   8.005   8.753  0.8421 -0.0960 -2.3187
14577SOL    HW245664   6.928   7.887   8.667 -3.1622 -1.4560  1.0845
14578SOL     OW45665   3.875   0.534   5.051 -0.3362 -0.3404 -0.1641
14578SOL    HW145666   3.823   0.502   5.126 -1.3846  0.8429 -0.3576
14578SOL    HW245667   3.904   0.621   5.077  0.0110 -0.2613 -0.8002
14579SOL     OW45668   7.169   1.215   2.229 -0.5519 -0.3902 -0.2057
14579SOL    HW145669   7.238   1.221   2.295 -0.9741  1.4128  0.1316
14579SOL    HW245670   7.097   1.170   2.274 -0.6456  0.3624  0.4160
14580SOL     OW45671   5.381   7.261   2.414  0.6941 -0.0121 -0.0871
14580SOL    HW145672   5.294   7.275   2.377  1.1201 -0.6519 -1.3613
14580SOL    HW245673   5.374   7.295   2.504 -0.8257  0.0464 -0.2005
14581SOL     OW45674   5.110   5.209   2.936  0.2011 -0.0395  0.0041
14581SOL    HW145675   5.161   5.134   2.967  1.9080  0.1059 -2.1623
14581SOL    HW245676   5.176   5.274   2.911 -1.1368  1.0103 -0.9316
14582SOL     OW45677   4.005   2.086   6.755 -0.4241 -0.3666 -0.4782
14582SOL    HW145678   3.915   2.117   6.742  0.1144  1.4420 -0.2465
14582SOL    HW245679   4.038   2.141   6.826  1.1338 -0.3915 -1.1577
14583SOL     OW45680   1.747   4.913   1.690 -0.8128 -0.2814  0.0541
14583SOL    HW145681   1.654   4.929   1.679 -0.3621  2.5534 -0.2680
14583SOL    HW245682   1.759   4.822   1.662 -3.2253 -0.2825 -1.2294
14584SOL     OW45683   1.526   5.000   7.804 -0.0660  0.5494 -0.0832
14584SOL    HW145684   1.567   5.021   7.720  2.4692 -0.3857  0.8433
14584SOL    HW245685   1.580   5.045   7.869 -1.9230  1.1700  1.1136
14585SOL     OW45686   5.554   3.885   1.785 -0.6863 -0.1290 -0.0375
14585SOL    HW145687   5.646   3.871   1.763  0.1906  0.1384  3.0510
14585SOL    HW245688   5.543   3.980   1.783 -0.6822 -0.1198  0.3528
14586SOL     OW45689   0.212   5.646   8.265 -0.5626 -0.3428 -0.5108
14586SOL    HW145690   0.207   5.738   8.237  1.6239 -0.0683 -0.1045
14586SOL    HW245691   0.265   5.648   8.344 -0.1727 -2.0117 -0.7130
14587SOL     OW45692   5.574   8.585   8.317 -0.4639 -0.6765  0.3575
14587SOL    HW145693   5.605   8.669   8.352  3.4314 -0.4630 -2.8927
14587SOL    HW245694   5.633   8.520   8.355  0.1252 -1.1367 -1.2530
14588SOL     OW45695   5.342   5.095   6.271  0.3540 -0.0892  0.0790
14588SOL    HW145696   5.359   5.159   6.340 -2.3191 -0.0561  0.8439
14588SOL    HW245697   5.412   5.030   6.281  0.2078  0.0206  2.7291
14589SOL     OW45698   0.420   1.854   0.777 -0.1951 -0.2919 -0.1054
14589SOL    HW145699   0.463   1.852   0.692  0.0303  2.6849 -0.1900
14589SOL    HW245700   0.420   1.947   0.801 -0.3894 -1.0169  3.0908
14590SOL     OW45701   4.138   1.998   5.183  0.4195 -0.3789 -0.0397
14590SOL    HW145702   4.078   1.984   5.109  0.4146 -0.4595 -0.0197
14590SOL    HW245703   4.210   1.937   5.168  1.6631  1.2928 -1.3162
14591SOL     OW45704   0.778   2.979   7.570 -0.2126 -0.5616 -0.2379
14591SOL    HW145705   0.693   3.022   7.566  0.6024  1.1851 -0.1112
14591SOL    HW245706   0.803   2.966   7.478 -0.8195 -1.5341 -0.2708
14592SOL     OW45707   6.802   4.541   1.760  0.0876  0.2040 -0.1973
14592SOL    HW145708   6.837   4.457   1.730  1.6460  0.7401  0.0424
14592SOL    HW245709   6.770   4.524   1.848  1.3039  0.0723  0.2285
14593SOL     OW45710   7.169   0.546   0.197 -0.4196 -0.1594 -0.1758
14593SOL    HW145711   7.139   0.469   0.246  0.9582 -0.6835 -0.1256
14593SOL    HW245712   7.220   0.597   0.260 -1.6939  1.0593 -0.0837
14594SOL     OW45713   6.867   7.498   0.195 -0.0055 -0.5780 -0.1783
14594SOL    HW145714   6.862   7.586   0.158  1.0540 -1.1510 -1.7950
14594SOL    HW245715   6.938   7.456   0.146  2.2221 -1.1260  3.1876
14595SOL     OW45716   5.383   6.418   2.200  0.1828 -0.2008  0.3987
14595SOL    HW145717   5.292   6.402   2.228 -0.5391 -1.2277 -2.2755
14595SOL    HW245718   5.428   6.335   2.215  0.6629  0.2404  1.5075
14596SOL     OW45719   4.035   0.978   5.918 -0.0110  0.2704 -1.3380
14596SOL    HW145720   3.957   1.026   5.945 -0.6621 -1.6914  0.6534
14596SOL    HW245721   4.014   0.945   5.831 -0.7723  1.0751 -1.4691
14597SOL     OW45722   0.845   2.508   1.289  0.0219 -0.0096  0.1683
14597SOL    HW145723   0.895   2.540   1.213 -0.7253 -0.2778 -0.4472
14597SOL    HW245724   0.893   2.541   1.364  1.3010 -0.5004 -0.4020
14598SOL     OW45725   7.803   3.029   0.661 -0.2648  0.0498 -0.2659
14598SOL    HW145726   7.894   3.001   0.654 -0.2939  0.2852 -1.7702
14598SOL    HW245727   7.763   2.965   0.720  0.7662 -0.2867  0.0884
14599SOL     OW45728   7.262   7.851   4.086  0.1953  0.1312 -0.4188
14599SOL    HW145729   7.235   7.761   4.069  1.0786 -0.3811  0.7337
14599SOL    HW245730   7.227   7.871   4.173  0.5493  0.6662 -0.3918
14600SOL     OW45731   3.648   1.470   3.547 -0.0512 -0.0677 -0.4314
14600SOL    HW145732   3.709   1.441   3.479  1.6188  0.9774  0.5332
14600SOL    HW245733   3.692   1.449   3.630 -0.4829  1.6792  0.3012
14601SOL     OW45734   0.107   3.918   0.686 -0.1163 -0.9185 -0.7691
14601SOL    HW145735   0.074   3.836   0.649 -2.6617  0.1349 -1.0446
14601SOL    HW245736   0.053   3.932   0.764 -0.8685  1.2285 -1.5846
14602SOL     OW45737   3.427   5.539   2.547  0.0313 -0.0826  0.1454
14602SOL    HW145738   3.505   5.595   2.548  0.4603 -0.6255 -1.1784
14602SOL    HW245739   3.420   5.509   2.457 -2.1129  0.4789  0.0587
14603SOL     OW45740   3.341   1.252   3.715  0.4045 -0.2245 -0.2882
14603SOL    HW145741   3.419   1.297   3.746  0.3590 -0.9024  0.8442
14603SOL    HW245742   3.317   1.192   3.785 -1.8227  0.7834 -0.0773
14604SOL     OW45743   8.025   0.859   1.200 -0.1171 -0.2742  0.7000
14604SOL    HW145744   8.107   0.824   1.236 -0.0729 -0.6669  0.2248
14604SOL    HW245745   7.965   0.784   1.201  0.2772 -0.6858 -1.2668
14605SOL     OW45746   2.338   5.233   7.721 -0.3316 -0.1639 -0.4939
14605SOL    HW145747   2.336   5.152   7.771 -1.5238 -0.5142 -1.0635
14605SOL    HW245748   2.262   5.282   7.753  0.3066  0.6807 -0.2408
14606SOL     OW45749   4.421   8.328   8.066 -0.0145 -0.0836  0.4119
14606SOL    HW145750   4.394   8.358   7.979  3.3465  1.5589 -0.2360
14606SOL    HW245751   4.393   8.237   8.070 -1.2701  0.1196 -1.9081
14607SOL     OW45752   7.165   4.248   0.332 -0.3971  0.0163  0.9218
14607SOL    HW145753   7.237   4.196   0.297 -1.6626 -1.8397  0.9392
14607SOL    HW245754   7.175   4.334   0.290  1.7131 -0.2240  0.8263
14608SOL     OW45755   6.162   6.391   0.043 -0.0203  0.1664 -0.1359
14608SOL    HW145756   6.129   6.361  -0.041  0.6797  1.6349 -0.9742
14608SOL    HW245757   6.221   6.321   0.072  1.7229  0.7018 -2.1176
14609SOL     OW45758   1.967   2.976   2.011  0.4736 -0.6726 -0.8070
14609SOL    HW145759   1.986   3.070   2.022  0.6085 -0.9801  2.7025
14609SOL    HW245760   1.939   2.968   1.920  0.7876  2.7080 -1.3428
14610SOL     OW45761   3.966   4.899   7.929 -0.1702  0.3848 -0.2815
14610SOL    HW145762   4.047   4.915   7.882 -0.3204  1.9207 -0.0733
14610SOL    HW245763   3.981   4.935   8.017 -0.9652  0.4231 -0.1504
14611SOL     OW45764   3.237   4.868   0.044 -0.0895 -0.0459 -0.1469
14611SOL    HW145765   3.290   4.897  -0.031  0.6465  0.9189  0.7144
14611SOL    HW245766   3.260   4.776   0.056  1.5408  0.3995  0.3140
14612SOL     OW45767   0.808   4.480   4.889  0.0707 -0.4133 -0.1992
14612SOL    HW145768   0.797   4.524   4.974  2.6994  0.8960 -0.4161
14612SOL    HW245769   0.772   4.393   4.902 -2.5309  0.7735  1.2408
14613SOL     OW45770   0.764   7.127   1.548  0.2818 -0.2224  0.0726
14613SOL    HW145771   0.738   7.214   1.580  1.3965  0.1780 -0.0720
14613SOL    HW245772   0.834   7.099   1.607 -1.0259 -1.6860  1.0197
14614SOL     OW45773   7.344   1.870   3.649  0.2559  0.5372  0.3311
14614SOL    HW145774   7.370   1.821   3.727  0.1975 -0.5389 -0.3135
14614SOL    HW245775   7.361   1.962   3.672 -1.7495  0.4682  2.3781
14615SOL     OW45776   0.518   2.182   7.200 -0.5095 -0.0339 -0.1809
14615SOL    HW145777   0.431   2.211   7.227 -0.7984 -1.1621  0.1733
14615SOL    HW245778   0.507   2.148   7.111 -0.5355 -0.5585  0.0146
14616SOL     OW45779   4.150   1.610   5.325 -0.8435  0.0348 -0.1193
14616SOL    HW145780   4.097   1.677   5.366 -0.8913 -0.7615  1.1669
14616SOL    HW245781   4.216   1.587   5.390 -0.9110 -1.2487 -0.4685
14617SOL     OW45782   4.623   3.325   4.856 -0.4171 -0.0643  0.2761
14617SOL    HW145783   4.566   3.329   4.779 -2.3821  3.5710  1.6448
14617SOL    HW245784   4.704   3.368   4.828 -0.1831 -0.9058 -0.3771
14618SOL     OW45785   8.251   8.395   0.105  0.4202 -0.2334 -0.4802
14618SOL    HW145786   8.306   8.432   0.174  2.0506  1.9089 -2.7671
14618SOL    HW245787   8.184   8.346   0.153  2.4218 -0.3276  2.5509
14619SOL     OW45788   5.897   3.376   4.528 -0.0806 -0.3132  0.1902
14619SOL    HW145789   5.842   3.364   4.451 -0.2109 -1.0462  0.3947
14619SOL    HW245790   5.941   3.460   4.513 -0.0654 -0.4736 -0.7011
14620SOL     OW45791   6.238   8.518   2.580 -0.4534 -0.5730 -0.0601
14620SOL    HW145792   6.230   8.423   2.574  2.8887 -0.9200 -0.8917
14620SOL    HW245793   6.219   8.549   2.492  2.1201 -0.9406 -0.8255
14621SOL     OW45794   4.678   5.269   8.152  0.5051 -0.4519  0.3143
14621SOL    HW145795   4.639   5.334   8.211 -0.3116 -0.0456 -0.6589
14621SOL    HW245796   4.643   5.291   8.066  1.4316 -1.2450 -0.2758
14622SOL     OW45797   6.062   4.054   7.180 -0.1992 -0.4727 -0.0192
14622SOL    HW145798   6.095   4.017   7.262  2.7650 -0.5110 -1.1173
14622SOL    HW245799   5.982   4.005   7.163 -0.9533 -0.4467  2.8282
14623SOL     OW45800   6.949   6.335   2.399  0.7707 -0.0742  0.0012
14623SOL    HW145801   6.889   6.306   2.331  0.4812  0.0635  0.1940
14623SOL    HW245802   6.910   6.417   2.431  1.5015  0.4607 -0.4502
14624SOL     OW45803   6.634   2.461   2.486  0.1459  0.2473  0.0737
14624SOL    HW145804   6.699   2.406   2.443 -1.3736 -0.9936 -0.7286
14624SOL    HW245805   6.592   2.404   2.551 -0.0326  1.0856  0.7275
14625SOL     OW45806   3.863   3.889   5.234  0.1986  0.0480  0.3357
14625SOL    HW145807   3.879   3.984   5.241 -0.6197  0.2428 -0.3077
14625SOL    HW245808   3.860   3.872   5.140 -0.8122 -0.4050  0.4335
14626SOL     OW45809   6.521   4.560   1.237 -0.0732 -0.2271 -0.6660
14626SOL    HW145810   6.470   4.640   1.251 -1.5346 -1.1026 -0.8557
14626SOL    HW245811   6.591   4.587   1.178  1.4508  1.6772  1.7873
14627SOL     OW45812   1.479   8.295   1.670  0.0468  0.2428  0.0749
14627SOL    HW145813   1.567   8.334   1.671  1.0709 -1.8958 -1.2580
14627SOL    HW245814   1.483   8.228   1.739 -1.2189  1.3885  1.3267
14628SOL     OW45815   6.487   1.174   8.681 -0.2223 -0.3202  0.1763
14628SOL    HW145816   6.500   1.119   8.604  3.3505  2.5735 -1.6056
14628SOL    HW245817   6.462   1.259   8.646  2.2685  1.3260  2.0233
14629SOL     OW45818   3.061   1.407   3.786 -0.2659  0.5310 -0.1570
14629SOL    HW145819   2.969   1.430   3.773 -0.0459  1.8244  0.3545
14629SOL    HW245820   3.109   1.488   3.765  0.6474  0.2932  0.9020
14630SOL     OW45821   5.402   3.366   3.260 -0.2514 -0.1511 -0.3168
14630SOL    HW145822   5.402   3.461   3.244  0.7647 -0.2448 -0.9693
14630SOL    HW245823   5.373   3.357   3.351  0.8350  0.8705  0.1567
14631SOL     OW45824   1.531   3.480   5.070 -0.0493  0.1422 -0.0423
14631SOL    HW145825   1.491   3.567   5.068 -0.0739  0.1368  0.2162
14631SOL    HW245826   1.482   3.432   5.135 -0.4224 -0.2603 -0.6113
14632SOL     OW45827   4.665   1.585   1.558  0.4550  0.0469 -0.2273
14632SOL    HW145828   4.760   1.576   1.553  0.3143 -0.8220 -2.2515
14632SOL    HW245829   4.633   1.497   1.576  0.0836  0.6996  2.6942
14633SOL     OW45830   4.259   0.044   1.297 -0.7371  0.5020 -0.1294
14633SOL    HW145831   4.172   0.078   1.276 -0.5156  0.5402 -1.0679
14633SOL    HW245832   4.243  -0.032   1.353 -1.3202  1.0789  0.5006
14634SOL     OW45833   1.054   0.536   6.039 -0.6103 -0.0687 -0.0869
14634SOL    HW145834   1.034   0.445   6.018 -2.1061  0.1106  0.4335
14634SOL    HW245835   1.061   0.538   6.134 -1.8081  0.5592  0.0099
14635SOL     OW45836   6.331   2.934   4.335 -0.1147  0.1930  0.8093
14635SOL    HW145837   6.328   2.858   4.277 -1.4900  0.0458  1.0351
14635SOL    HW245838   6.250   2.928   4.386 -0.6980  2.2719  0.2280
14636SOL     OW45839   5.411   0.458   8.640  0.0266 -0.8087  0.0481
14636SOL    HW145840   5.353   0.476   8.566 -0.8579 -2.1196  0.3943
14636SOL    HW245841   5.499   0.476   8.606 -0.5924  3.0234  0.0367
14637SOL     OW45842   2.065   4.815   1.810 -0.2239 -0.1982  0.0500
14637SOL    HW145843   2.052   4.749   1.879 -1.9985 -0.3025 -0.3230
14637SOL    HW245844   2.156   4.842   1.819 -0.3914 -0.2008  2.4381
14638SOL     OW45845   5.930   7.167   8.552 -0.4117  0.2911 -0.4800
14638SOL    HW145846   5.847   7.154   8.506  0.3504  1.0811 -2.1780
14638SOL    HW245847   5.940   7.262   8.557 -0.4074  0.2354  1.2986
14639SOL     OW45848   4.850   5.564   7.909 -0.2025  0.4333 -0.0041
14639SOL    HW145849   4.832   5.639   7.965 -1.3028 -0.2012  0.5287
14639SOL    HW245850   4.893   5.501   7.966  1.0560  0.7856 -0.5391
14640SOL     OW45851   7.963   8.233   6.661 -0.2657 -0.4179 -0.1965
14640SOL    HW145852   8.014   8.154   6.673  1.1326  0.1145 -2.0904
14640SOL    HW245853   7.960   8.274   6.747  0.5553 -1.5974  0.4163
14641SOL     OW45854   0.537   5.571   7.522 -0.1065  0.2910  0.3647
14641SOL    HW145855   0.549   5.660   7.489  0.6649  0.4720  1.1100
14641SOL    HW245856   0.442   5.558   7.520 -0.3301  1.5822  1.4135
14642SOL     OW45857   4.811   1.578   7.106 -0.3160  0.5689 -0.0610
14642SOL    HW145858   4.788   1.602   7.016 -1.3992 -0.0584  0.0359
14642SOL    HW245859   4.728   1.556   7.147  0.2547  0.1250  0.8907
14643SOL     OW45860   7.142   8.499   7.928 -0.7794  0.3419 -0.2380
14643SOL    HW145861   7.230   8.475   7.958 -0.7447 -0.2857 -0.8226
14643SOL    HW245862   7.156   8.538   7.842 -1.2191 -1.3911 -1.1283
14644SOL     OW45863   8.379   4.972   7.916 -0.4729 -0.6754  0.5366
14644SOL    HW145864   8.422   4.984   8.001  0.5775 -0.6615  0.0307
14644SOL    HW245865   8.451   4.979   7.853 -1.5007  1.2169 -0.4932
14645SOL     OW45866   1.258   4.962   5.188  0.0280  0.4665 -0.1726
14645SOL    HW145867   1.228   4.880   5.227 -0.2462 -0.0469 -1.3986
14645SOL    HW245868   1.307   4.935   5.110  2.2250  1.3749  0.8256
14646SOL     OW45869   7.450   0.315   3.345  0.1353 -0.3039  0.2261
14646SOL    HW145870   7.456   0.408   3.327  1.4878 -0.4281 -0.0428
14646SOL    HW245871   7.531   0.278   3.311  0.2747 -1.3649  1.5889
14647SOL     OW45872   7.428   8.598   7.365  0.8496 -0.6238 -0.0758
14647SOL    HW145873   7.387   8.575   7.449  1.0385  0.6137  0.3704
14647SOL    HW245874   7.461   8.514   7.331 -0.9422 -1.4636  0.1272
14648SOL     OW45875   1.177   8.352   7.050 -0.0921 -0.7290  0.1270
14648SOL    HW145876   1.086   8.377   7.070 -0.2165 -1.5852  0.7095
14648SOL    HW245877   1.168   8.276   6.992  0.2474 -1.0997  0.5575
14649SOL     OW45878   6.820   7.779   3.194 -0.1757  0.1255 -0.3401
14649SOL    HW145879   6.734   7.798   3.158 -0.4310 -0.4065 -0.0308
14649SOL    HW245880   6.880   7.786   3.120 -0.5568 -0.0019 -0.6635
14650SOL     OW45881   4.983   0.266   4.063  0.3299  0.6112  0.1392
14650SOL    HW145882   5.014   0.176   4.076  0.9914  0.7879 -0.1786
14650SOL    HW245883   4.897   0.256   4.021 -0.5904  0.0875  2.0392
14651SOL     OW45884   1.836   1.615   2.316 -0.6923 -0.0882 -0.5852
14651SOL    HW145885   1.842   1.540   2.374  3.8134  0.4040 -0.1127
14651SOL    HW245886   1.835   1.578   2.228  0.2742 -0.7694 -0.3227
14652SOL     OW45887   7.580   6.451   3.253 -0.4095 -0.2639  0.3270
14652SOL    HW145888   7.598   6.475   3.162  0.2022 -0.3609  0.4189
14652SOL    HW245889   7.539   6.365   3.247 -3.3578  1.0424 -0.0627
14653SOL     OW45890   4.568   6.880   5.344 -0.2739 -0.6102  0.1572
14653SOL    HW145891   4.577   6.891   5.439  1.1732  0.4900 -0.0686
14653SOL    HW245892   4.473   6.879   5.329 -0.5593  1.3595  1.4119
14654SOL     OW45893   5.855   1.780   0.833  0.1055  0.6903  0.1282
14654SOL    HW145894   5.905   1.861   0.846  1.3060  0.0134 -0.1248
14654SOL    HW245895   5.913   1.723   0.782 -0.6621 -0.3843  0.4073
14655SOL     OW45896   1.451   7.850   5.078  0.4952 -0.1943 -0.5623
14655SOL    HW145897   1.490   7.920   5.131  1.7509  0.5995 -2.4369
14655SOL    HW245898   1.363   7.882   5.059  0.7610  0.5006 -0.6824
14656SOL     OW45899   4.684   4.661   7.755 -0.4065  0.5536 -0.1069
14656SOL    HW145900   4.623   4.598   7.717 -0.3713  0.7773 -0.5403
14656SOL    HW245901   4.765   4.612   7.768  0.0415  0.8404 -1.6980
14657SOL     OW45902   3.434   0.038   1.221 -0.4432 -0.1194  0.6271
14657SOL    HW145903   3.361   0.098   1.207  0.3110  0.4473 -1.2359
14657SOL    HW245904   3.493   0.085   1.280 -0.2913  0.6222 -0.0938
14658SOL     OW45905   4.261   3.104   7.664 -0.6943  0.0664  0.9058
14658SOL    HW145906   4.250   3.047   7.588  1.6493  1.7560 -0.8582
14658SOL    HW245907   4.341   3.073   7.706  0.1944  1.5308  0.3491
14659SOL     OW45908   4.819   8.847   4.862  0.0668 -0.5446  0.1942
14659SOL    HW145909   4.739   8.893   4.838  0.8781  1.8813  1.7516
14659SOL    HW245910   4.819   8.849   4.958  1.9992 -0.4379  0.2258
14660SOL     OW45911   8.760   4.620   7.823  0.1093  0.2328 -0.2845
14660SOL    HW145912   8.685   4.651   7.875  1.1206 -0.9912  2.0897
14660SOL    HW245913   8.724   4.550   7.768 -0.6974  0.3390  0.0920
14661SOL     OW45914   7.049   2.990   4.580 -0.1195  0.4519 -0.1878
14661SOL    HW145915   7.116   3.025   4.638  0.0754 -2.2907  1.4209
14661SOL    HW245916   6.967   3.001   4.628 -0.1340 -0.5817  0.0586
14662SOL     OW45917   1.961   0.957   6.959 -0.1974  0.2103  0.4120
14662SOL    HW145918   2.048   0.992   6.942  0.6662 -1.8069  0.3685
14662SOL    HW245919   1.934   0.996   7.041  0.0986  1.9770 -0.2958
14663SOL     OW45920   4.011   5.631   8.079 -0.3290  0.3115  0.5204
14663SOL    HW145921   4.106   5.617   8.087  0.0636  1.4995 -1.5084
14663SOL    HW245922   3.973   5.558   8.128  1.6273 -0.8170  0.4858
14664SOL     OW45923   4.982   8.788   2.507  0.3788 -0.3720  0.1535
14664SOL    HW145924   4.896   8.802   2.468 -0.6571 -1.1455  2.0144
14664SOL    HW245925   5.018   8.714   2.459  0.2122  0.2244 -0.9294
14665SOL     OW45926   5.068   2.993   4.689  0.0718  0.0463  0.1550
14665SOL    HW145927   5.041   2.908   4.655 -2.1804  0.3175  1.0395
14665SOL    HW245928   5.102   3.040   4.613 -0.7120 -0.8934 -0.8096
14666SOL     OW45929   7.972   0.059   3.273 -0.3060  0.2717 -0.1841
14666SOL    HW145930   8.002   0.139   3.316 -0.3165 -0.8010  1.8872
14666SOL    HW245931   8.024  -0.011   3.311 -1.2138 -0.8881 -1.0012
14667SOL     OW45932   1.677   2.063   6.422  0.0640 -0.3733 -0.2188
14667SOL    HW145933   1.640   2.081   6.336 -0.1809 -0.8915 -0.2264
14667SOL    HW245934   1.659   1.970   6.437 -0.8029 -0.0673  0.8197
14668SOL     OW45935   8.817   8.002   7.993 -0.0968 -0.0007 -0.0354
14668SOL    HW145936   8.853   8.061   7.927  3.1089  0.5299  1.9936
14668SOL    HW245937   8.862   8.026   8.074 -1.2679 -2.9219  1.6330
14669SOL     OW45938   7.518   2.856   5.936 -0.4011  0.0960  0.1896
14669SOL    HW145939   7.484   2.888   6.020 -0.9796 -0.2642  0.1048
14669SOL    HW245940   7.612   2.848   5.949 -0.6386 -1.4103  1.3315
14670SOL     OW45941   1.054   2.412   0.406 -0.1593 -0.7160 -0.4526
14670SOL    HW145942   1.147   2.390   0.404 -0.1640 -0.7818  0.0249
14670SOL    HW245943   1.034   2.424   0.498  0.1323  2.5014 -0.6938
14671SOL     OW45944   0.648   5.557   7.767 -0.3914 -0.2036 -0.0195
14671SOL    HW145945   0.604   5.571   7.683 -1.6759  1.0104  0.8040
14671SOL    HW245946   0.620   5.470   7.795  0.2052 -0.6994 -0.9266
14672SOL     OW45947   6.479   2.425   8.735 -0.2860 -0.6280  0.5732
14672SOL    HW145948   6.548   2.371   8.775  0.6759 -2.1859 -2.8050
14672SOL    HW245949   6.402   2.369   8.737 -0.3550 -0.5312  0.6249
14673SOL     OW45950   0.425   0.835   2.394  0.3338  0.3689  0.2885
14673SOL    HW145951   0.475   0.916   2.405 -0.3292  0.6105  1.7719
14673SOL    HW245952   0.450   0.781   2.470  0.2151 -0.5180 -0.2895
14674SOL     OW45953   6.683   2.651   7.416 -0.2327  0.4504 -0.0607
14674SOL    HW145954   6.693   2.661   7.321 -0.7869  1.3709 -0.0330
14674SOL    HW245955   6.769   2.674   7.451 -0.1460  0.5273 -0.3184
14675SOL     OW45956   3.201   2.347   0.532  0.3056 -0.2059  0.7159
14675SOL    HW145957   3.241   2.400   0.601  0.5295  0.4906  0.0550
14675SOL    HW245958   3.240   2.379   0.451 -2.1861  1.1018 -0.0663
14676SOL     OW45959   1.462   8.442   5.798 -0.1954 -0.0072  0.1184
14676SOL    HW145960   1.478   8.348   5.800 -0.7789 -0.1004  1.7520
14676SOL    HW245961   1.384   8.455   5.851 -0.9194  1.2772 -1.1749
14677SOL     OW45962   6.154   6.522   2.237 -0.2263 -0.5645 -0.0826
14677SOL    HW145963   6.179   6.551   2.149  2.0102  2.1387  1.2766
14677SOL    HW245964   6.083   6.582   2.261  1.4043  1.0236  1.0773
14678SOL     OW45965   5.153   8.530   3.844 -0.0611 -0.7944  0.0700
14678SOL    HW145966   5.241   8.519   3.881  0.2436  0.9527 -0.0447
14678SOL    HW245967   5.094   8.524   3.919  0.4562  1.4722  0.7260
14679SOL     OW45968   1.992   4.879   7.641  0.0892 -0.4201 -0.5373
14679SOL    HW145969   1.951   4.798   7.612  2.4030 -1.6697 -0.5489
14679SOL    HW245970   2.053   4.901   7.572  1.1732  0.0272  0.5243
14680SOL     OW45971   6.989   1.898   1.999 -0.7177  0.0704  0.5932
14680SOL    HW145972   6.985   1.803   1.995  1.8241 -0.1165  0.4828
14680SOL    HW245973   7.011   1.918   2.090 -0.5180  0.4788  0.4620
14681SOL     OW45974   7.674   7.561   8.109  0.0412  0.1846 -0.6576
14681SOL    HW145975   7.652   7.644   8.065  0.5057  2.2933  2.7076
14681SOL    HW245976   7.603   7.549   8.172 -0.3724 -2.4499 -1.5332
14682SOL     OW45977   2.780   8.733   2.471 -0.2237 -0.1098 -0.3780
14682SOL    HW145978   2.759   8.660   2.411 -0.4372  0.4591 -1.0076
14682SOL    HW245979   2.695   8.772   2.491 -0.1050 -0.0148 -0.0614
14683SOL     OW45980   2.362   2.130   4.941 -0.2137 -0.7956  0.0263
14683SOL    HW145981   2.368   2.220   4.975 -0.3685 -1.4093  1.8132
14683SOL    HW245982   2.376   2.139   4.847  1.4187  0.9237  0.3608
14684SOL     OW45983   7.500   0.236   8.652 -0.0996  0.1136  0.5363
14684SOL    HW145984   7.494   0.277   8.738  0.6280  0.3053  0.5011
14684SOL    HW245985   7.559   0.162   8.664  0.9471  0.8246 -0.0362
14685SOL     OW45986   1.834   7.684   5.380 -0.4353 -0.0364  0.1605
14685SOL    HW145987   1.750   7.683   5.426 -0.2729  1.0832  0.5121
14685SOL    HW245988   1.878   7.762   5.413  0.7863 -0.6634  0.0414
14686SOL     OW45989   2.488   2.903   8.563 -0.3379 -0.7189  0.1126
14686SOL    HW145990   2.406   2.867   8.598  0.1806 -2.0483  0.0484
14686SOL    HW245991   2.556   2.865   8.620  0.3986 -1.6896 -1.3532
14687SOL     OW45992   4.536   0.331   7.615 -0.0199 -0.2308 -0.0524
14687SOL    HW145993   4.448   0.301   7.637  1.0449 -1.6720  2.6041
14687SOL    HW245994   4.560   0.279   7.538 -1.6871  0.6684 -1.2340
14688SOL     OW45995   3.185   3.255   3.976  0.0320  0.4106  0.0227
14688SOL    HW145996   3.136   3.254   3.894 -0.7617 -2.0595  0.4498
14688SOL    HW245997   3.182   3.346   4.004 -1.0404  1.0243 -1.8772
14689SOL     OW45998   5.245   3.635   7.568 -0.3014 -0.5377 -0.0258
14689SOL    HW145999   5.272   3.548   7.541 -2.1157 -1.4849  1.0093
14689SOL    HW246000   5.259   3.636   7.663 -0.4299  0.2480 -0.0073
14690SOL     OW46001   6.201   0.170   3.003  0.1915  0.0931 -0.0475
14690SOL    HW146002   6.148   0.096   3.032  0.3624 -0.0107 -0.0001
14690SOL    HW246003   6.138   0.230   2.963 -0.1806  0.6601  1.3502
14691SOL     OW46004   3.212   7.152   5.193  0.0638  0.5343  0.2637
14691SOL    HW146005   3.131   7.103   5.210  0.2652 -0.2835 -0.9999
14691SOL    HW246006   3.267   7.091   5.143  1.0686  1.4237  0.2448
14692SOL     OW46007   1.407   4.699   4.443  0.0085  0.1342 -0.1477
14692SOL    HW146008   1.383   4.739   4.359  0.0930 -2.1075 -1.2989
14692SOL    HW246009   1.324   4.691   4.490 -0.2014  0.3815 -0.4712
14693SOL     OW46010   2.866   3.152   6.571  0.0159  0.1626  0.4948
14693SOL    HW146011   2.808   3.137   6.646 -1.8355 -0.6559 -0.9969
14693SOL    HW246012   2.820   3.217   6.518  2.1778  2.1622  0.8956
14694SOL     OW46013   6.712   6.392   2.861  0.4259  0.0301 -0.0594
14694SOL    HW146014   6.690   6.323   2.924 -0.2530 -1.0927 -1.4749
14694SOL    HW246015   6.803   6.375   2.837 -0.1020 -1.1726 -1.3277
14695SOL     OW46016   1.274   0.743   6.863 -0.2101 -0.6133 -0.2431
14695SOL    HW146017   1.229   0.710   6.784 -0.4982 -0.0747 -0.3109
14695SOL    HW246018   1.237   0.691   6.934 -0.3897 -0.6974 -0.3935
14696SOL     OW46019   7.634   3.682   8.567  0.2640  0.0623  0.2032
14696SOL    HW146020   7.694   3.712   8.498  0.0288 -0.9271 -0.4654
14696SOL    HW246021   7.548   3.684   8.526  0.0565 -0.0801  0.6288
14697SOL     OW46022   5.539   5.939   5.554 -0.2147  0.0117  0.0256
14697SOL    HW146023   5.463   5.889   5.524  0.3452 -0.5660 -0.4601
14697SOL    HW246024   5.503   5.999   5.620 -1.3039  0.5843 -1.0335
14698SOL     OW46025   4.850   8.007   8.297  0.4346  0.2304 -0.0758
14698SOL    HW146026   4.844   8.068   8.370 -2.1577 -0.8140  0.7128
14698SOL    HW246027   4.878   7.925   8.337  0.9959  0.1574 -0.6149
14699SOL     OW46028   6.836   3.360   7.996 -0.2857 -0.3276  0.6398
14699SOL    HW146029   6.885   3.390   7.919  2.0611 -1.4959  1.5566
14699SOL    HW246030   6.760   3.315   7.961 -1.5686  2.7147 -0.8383
14700SOL     OW46031   8.709   5.938   5.092 -0.0994 -0.0299  0.6460
14700SOL    HW146032   8.791   5.914   5.134  0.9250  1.0287 -0.6624
14700SOL    HW246033   8.729   5.938   4.999 -0.6839  3.2531  0.4020
14701SOL     OW46034   3.547   1.887   2.748  0.6395  0.2240 -0.3509
14701SOL    HW146035   3.467   1.937   2.731 -0.5095 -0.8345  1.5606
14701SOL    HW246036   3.589   1.933   2.820  1.5828  0.5566 -1.1005
14702SOL     OW46037   5.467   4.399   8.605 -0.2272 -0.5208  0.0594
14702SOL    HW146038   5.519   4.472   8.639 -0.9028 -0.1086  0.2163
14702SOL    HW246039   5.409   4.438   8.540 -0.8277 -0.8489  0.3806
14703SOL     OW46040   5.655   3.643   0.895  0.4845 -0.1468  0.3135
14703SOL    HW146041   5.566   3.672   0.913  0.3813  0.2582 -0.7442
14703SOL    HW246042   5.649   3.548   0.889 -0.0897 -0.0596 -0.7533
14704SOL     OW46043   6.507   7.921   4.211  0.5522  0.4464  0.4397
14704SOL    HW146044   6.540   7.857   4.148 -0.3951  0.8243 -0.4824
14704SOL    HW246045   6.447   7.872   4.266 -0.2362  0.5248 -0.3199
14705SOL     OW46046   2.985   0.205   3.261 -0.7220  0.0024  0.1395
14705SOL    HW146047   3.047   0.231   3.193 -1.2051 -0.9916 -0.7147
14705SOL    HW246048   3.016   0.249   3.340  0.8322 -0.1386 -0.3600
14706SOL     OW46049   1.010   0.859   6.522 -0.1495  0.4795 -0.0108
14706SOL    HW146050   0.945   0.883   6.588  0.9587  0.1269  1.2541
14706SOL    HW246051   1.051   0.941   6.497  0.9590  0.4144  1.4352
14707SOL     OW46052   0.630   6.599   1.523 -0.3358  0.1865 -0.2247
14707SOL    HW146053   0.619   6.658   1.597  0.7063 -0.0252  0.1252
14707SOL    HW246054   0.632   6.656   1.446 -1.8204  0.3727 -0.1518
14708SOL     OW46055   2.124   0.925   3.146  0.0507 -0.1516  0.5374
14708SOL    HW146056   2.212   0.958   3.130  0.0819 -0.1475  0.7086
14708SOL    HW246057   2.109   0.942   3.239 -0.4476  0.5768  0.3244
14709SOL     OW46058   1.777   4.093   6.859  0.1554 -0.4309  0.2166
14709SOL    HW146059   1.724   4.060   6.787  0.2011 -1.4907  0.6523
14709SOL    HW246060   1.858   4.122   6.817 -1.0918  2.2382 -0.6127
14710SOL     OW46061   4.117   5.088   4.315 -0.2334 -0.1182 -0.2774
14710SOL    HW146062   4.041   5.112   4.369  2.2173  0.3464  3.2808
14710SOL    HW246063   4.116   4.992   4.314 -0.8819 -0.1161 -0.2830
14711SOL     OW46064   4.220   0.269   6.020 -0.1478  0.0882  0.1001
14711SOL    HW146065   4.241   0.285   6.113  0.5537  0.6452 -0.1390
14711SOL    HW246066   4.299   0.227   5.985 -1.5325 -2.9922  0.4300
14712SOL     OW46067   3.001   2.194   7.117 -0.5097 -0.5372  0.4468
14712SOL    HW146068   3.048   2.112   7.131  2.2890  0.7408 -0.5876
14712SOL    HW246069   3.001   2.237   7.203  2.0369  0.2278  0.1519
14713SOL     OW46070   7.180   6.764   5.042  0.0782 -0.1428 -0.2054
14713SOL    HW146071   7.222   6.776   5.127 -1.8542  1.6896  0.5920
14713SOL    HW246072   7.177   6.852   5.004 -1.4949 -0.4595 -0.9325
14714SOL     OW46073   2.181   4.614   3.612 -0.3470  0.1723 -0.0901
14714SOL    HW146074   2.134   4.532   3.629 -0.7826  0.3803 -0.2655
14714SOL    HW246075   2.145   4.644   3.528  1.3179 -0.5362 -1.1082
14715SOL     OW46076   1.887   4.887   0.740 -0.3360  0.6608 -0.0899
14715SOL    HW146077   1.901   4.893   0.834  0.3604 -0.9739 -0.0605
14715SOL    HW246078   1.816   4.824   0.730  0.9141 -0.7127 -0.6889
14716SOL     OW46079   2.865   5.774   0.304 -0.5708 -0.6552 -0.2474
14716SOL    HW146080   2.863   5.804   0.395 -0.1332 -1.3630 -0.0004
14716SOL    HW246081   2.775   5.784   0.274 -0.7119 -0.3805  0.2467
14717SOL     OW46082   0.642   2.175   3.421 -0.3239  0.0722 -0.1953
14717SOL    HW146083   0.550   2.182   3.395  0.0268 -1.4827 -2.0706
14717SOL    HW246084   0.645   2.098   3.479 -0.4926  1.3816  1.6513
14718SOL     OW46085   7.932   4.144   6.850 -0.0997 -0.1622 -0.3428
14718SOL    HW146086   8.026   4.155   6.860  0.0908 -0.8943 -1.0999
14718SOL    HW246087   7.895   4.163   6.936  0.8162 -0.6030  0.1605
14719SOL     OW46088   0.074   3.624   6.048 -0.3363 -0.3669  0.7372
14719SOL    HW146089   0.129   3.565   5.997  0.4722  1.4193 -0.5862
14719SOL    HW246090  -0.010   3.579   6.057  0.4237 -1.9137  0.2752
14720SOL     OW46091   4.529   8.645   4.647  0.2503 -0.0726 -0.1167
14720SOL    HW146092   4.581   8.719   4.615  0.1826 -0.6607 -1.6465
14720SOL    HW246093   4.579   8.568   4.621 -0.9409 -0.6292 -0.8201
14721SOL     OW46094   1.698   0.317   5.143  0.2083  0.1844  0.0724
14721SOL    HW146095   1.756   0.343   5.071  1.6816  1.4460  1.6310
14721SOL    HW246096   1.629   0.383   5.143 -0.4372 -0.4775 -0.8790
14722SOL     OW46097   5.953   8.507   2.290 -0.2533  0.2867  0.5391
14722SOL    HW146098   5.918   8.531   2.375 -1.4431  0.7915 -0.0756
14722SOL    HW246099   6.046   8.533   2.295 -0.5015  1.0948  1.3800
14723SOL     OW46100   1.415   4.036   8.553 -0.2652  0.1470 -0.0929
14723SOL    HW146101   1.503   4.053   8.519  0.2930  2.9933  2.3935
14723SOL    HW246102   1.359   4.044   8.476  1.4328  0.4784 -1.3764
14724SOL     OW46103   5.921   4.168   0.639 -0.1991  0.0301  0.2831
14724SOL    HW146104   5.898   4.219   0.561 -1.6467  0.3419  0.8779
14724SOL    HW246105   5.909   4.077   0.613  0.0656  0.0973 -0.0817
14725SOL     OW46106   6.959   0.648   4.074  0.0445  0.4360  0.3765
14725SOL    HW146107   6.893   0.651   4.005  0.8920 -1.5283 -0.6081
14725SOL    HW246108   6.987   0.557   4.077  3.3771  1.3187  0.1087
14726SOL     OW46109   0.877   8.716   1.155 -0.2614  0.5311 -0.1820
14726SOL    HW146110   0.833   8.631   1.154 -0.3921  0.4923  2.1161
14726SOL    HW246111   0.950   8.704   1.216  0.1454  1.8897 -0.3641
14727SOL     OW46112   3.570   0.201   1.962  0.8187  0.3751 -0.0303
14727SOL    HW146113   3.574   0.177   1.870 -0.7466 -1.0574  0.2430
14727SOL    HW246114   3.609   0.127   2.008 -2.5415 -1.1132  0.7099
14728SOL     OW46115   4.602   6.821   1.559  0.1768  0.2245  0.2113
14728SOL    HW146116   4.544   6.759   1.602  2.2696 -3.4883 -1.8603
14728SOL    HW246117   4.595   6.802   1.466  2.1851  1.9697 -0.4008
14729SOL     OW46118   0.532   3.650   6.797 -0.0011 -0.2246  0.0171
14729SOL    HW146119   0.452   3.626   6.750 -0.8164  0.9811  0.7254
14729SOL    HW246120   0.530   3.595   6.876  0.7963 -1.4496 -0.7874
14730SOL     OW46121   7.669   2.605   4.117 -0.5976 -0.2604 -0.6625
14730SOL    HW146122   7.626   2.633   4.036  0.5001 -1.1431 -1.5872
14730SOL    HW246123   7.599   2.568   4.170 -1.6238  1.7374 -0.5226
14731SOL     OW46124   8.075   3.047   6.905  0.0278 -0.4486 -0.0257
14731SOL    HW146125   8.135   2.974   6.891 -0.7311 -1.1325  0.2256
14731SOL    HW246126   8.039   3.065   6.818  0.3047 -0.2929 -0.1087
14732SOL     OW46127   1.662   5.283   1.563  0.3436  0.0134  0.1369
14732SOL    HW146128   1.634   5.262   1.474 -0.8097 -1.7259  0.8490
14732SOL    HW246129   1.584   5.318   1.605  0.7090  0.2376  0.6374
14733SOL     OW46130   3.221   1.870   0.666 -0.4861 -0.4125 -0.0050
14733SOL    HW146131   3.225   1.787   0.618 -2.5694 -0.6970  0.2165
14733SOL    HW246132   3.128   1.892   0.666  0.1223  2.5755 -1.1312
14734SOL     OW46133   2.176   5.780   0.951 -0.4813  0.1150 -0.6081
14734SOL    HW146134   2.154   5.854   1.009  3.7735  0.2754  1.1810
14734SOL    HW246135   2.205   5.821   0.870 -0.0701  0.2888 -0.3734
14735SOL     OW46136   3.010   2.043   8.757 -0.2053  0.2268 -0.2533
14735SOL    HW146137   2.939   2.106   8.745  0.9539  1.4071 -1.2159
14735SOL    HW246138   3.080   2.074   8.700  0.6058 -1.6728 -0.3768
14736SOL     OW46139   6.776   4.704   2.213  0.3827 -0.6459  0.6930
14736SOL    HW146140   6.720   4.629   2.192 -1.0687  0.2713  1.1967
14736SOL    HW246141   6.744   4.736   2.297  0.1693  1.2669 -0.0695
14737SOL     OW46142   5.452   7.708   6.277  0.0396  0.1693  0.7787
14737SOL    HW146143   5.383   7.651   6.311 -0.1497  0.1254  0.3354
14737SOL    HW246144   5.413   7.795   6.274  0.1875  0.2446  1.0522
14738SOL     OW46145   6.397   3.810   1.249 -0.0277 -0.1740  1.0862
14738SOL    HW146146   6.412   3.821   1.155  1.5922  1.2302  1.4354
14738SOL    HW246147   6.343   3.885   1.273  1.4511  0.7777  1.6011
14739SOL     OW46148   8.312   2.241   5.389 -0.0187 -0.1324 -0.0448
14739SOL    HW146149   8.299   2.158   5.344  0.0829  0.3547 -0.9857
14739SOL    HW246150   8.314   2.307   5.320  2.0883  0.4251  0.4599
14740SOL     OW46151   5.431   3.053   2.528 -0.2839 -0.1548 -0.1591
14740SOL    HW146152   5.351   3.023   2.483 -0.4435 -1.6511  1.0333
14740SOL    HW246153   5.488   2.976   2.528  0.2780  0.2468  0.9309
14741SOL     OW46154   8.486   2.572   1.521 -0.1100  0.0249  0.2747
14741SOL    HW146155   8.451   2.660   1.510 -0.5860 -0.0991  0.8116
14741SOL    HW246156   8.416   2.522   1.562 -0.1975 -0.8628 -0.8945
14742SOL     OW46157   0.986   4.760   1.578  0.1168  0.5569 -0.1657
14742SOL    HW146158   0.979   4.664   1.576 -0.3263  0.5914 -2.2858
14742SOL    HW246159   0.896   4.790   1.591  0.4561  0.7118  2.1801
14743SOL     OW46160   0.494   4.586   8.263 -0.3378  0.4023  0.2684
14743SOL    HW146161   0.492   4.621   8.174  2.4287  0.2292  0.0665
14743SOL    HW246162   0.531   4.498   8.254  0.8906  0.7288  1.6405
14744SOL     OW46163   4.552   2.602   0.475  0.3636 -0.3323 -0.4791
14744SOL    HW146164   4.470   2.553   0.486  0.2086  0.5570  4.3491
14744SOL    HW246165   4.527   2.677   0.421 -1.8836 -0.4513  0.2715
14745SOL     OW46166   2.689   0.689   3.776  0.1560 -0.0326  0.0896
14745SOL    HW146167   2.783   0.702   3.767  0.0498  0.5392 -0.2311
14745SOL    HW246168   2.654   0.698   3.688 -0.2401  0.1044  0.2568
14746SOL     OW46169   4.884   4.272   4.922  0.0334  0.4199 -0.4801
14746SOL    HW146170   4.978   4.260   4.937 -0.3407 -0.6743  1.2497
14746SOL    HW246171   4.856   4.191   4.878 -0.1791  0.5647 -0.6137
14747SOL     OW46172   0.604   5.830   2.951  0.3196 -0.2604 -0.3634
14747SOL    HW146173   0.585   5.863   3.039  0.6289 -1.9936  0.3910
14747SOL    HW246174   0.517   5.821   2.911  0.1898  0.7765 -0.3563
14748SOL     OW46175   4.448   3.732   4.418 -0.0620 -0.1278  0.2374
14748SOL    HW146176   4.463   3.691   4.503 -1.2564  0.9589  1.0019
14748SOL    HW246177   4.394   3.668   4.370  1.5233 -1.2338 -0.1704
14749SOL     OW46178   8.676   3.138   6.981  0.0665 -0.0410 -0.3390
14749SOL    HW146179   8.603   3.100   7.030  0.2809  0.4736  0.4063
14749SOL    HW246180   8.751   3.082   7.001 -0.3993 -1.4881 -2.3229
14750SOL     OW46181   7.748   4.703   6.959  0.1934  0.0748 -0.3130
14750SOL    HW146182   7.814   4.663   7.016  0.2355 -0.5524 -0.7880
14750SOL    HW246183   7.696   4.629   6.928  1.2329  0.1536 -2.4579
14751SOL     OW46184   5.307   8.703   3.592  0.7247  0.3225  0.0233
14751SOL    HW146185   5.226   8.753   3.603  1.4179  1.3901  0.4697
14751SOL    HW246186   5.317   8.693   3.497 -0.5679 -0.9291 -0.0065
14752SOL     OW46187   2.758   2.698   8.456 -0.9868  0.1218 -0.4867
14752SOL    HW146188   2.686   2.734   8.405 -1.5354 -1.0768 -0.5838
14752SOL    HW246189   2.821   2.769   8.461 -0.8661  0.2758 -2.9019
14753SOL     OW46190   0.848   2.527   2.381 -0.3705  0.0967 -0.6501
14753SOL    HW146191   0.768   2.547   2.429 -0.5781  0.0953 -0.9967
14753SOL    HW246192   0.842   2.433   2.361  0.8494 -0.5061  1.4421
14754SOL     OW46193   6.818   0.129   1.020 -0.1607  0.0759 -0.0447
14754SOL    HW146194   6.752   0.182   0.975  0.0333  1.1859  0.9176
14754SOL    HW246195   6.785   0.120   1.110  0.4970 -0.2337  0.1768
14755SOL     OW46196   8.158   1.080   8.762  0.5114 -0.7055  0.5997
14755SOL    HW146197   8.197   1.002   8.802  0.5805 -0.6892  0.5646
14755SOL    HW246198   8.065   1.075   8.784  0.4328 -1.0368  0.2177
14756SOL     OW46199   0.594   8.613   8.660  0.4129 -0.1920  0.5402
14756SOL    HW146200   0.561   8.538   8.710 -0.7863 -0.1192 -0.1017
14756SOL    HW246201   0.680   8.586   8.630  0.0743 -1.2453  0.4827
14757SOL     OW46202   3.559   1.412   1.514  0.1937  0.0647  0.2570
14757SOL    HW146203   3.478   1.440   1.471  0.0581 -1.8360 -0.8399
14757SOL    HW246204   3.628   1.432   1.450  0.3983  0.2101  0.5229
14758SOL     OW46205   0.867   0.701   1.593 -0.4107 -0.0555 -0.2619
14758SOL    HW146206   0.804   0.657   1.537 -0.2895 -0.3378 -0.1783
14758SOL    HW246207   0.950   0.697   1.545 -0.8447  2.0700 -1.2869
14759SOL     OW46208   3.450   1.243   7.880  0.4888  0.1672 -0.1908
14759SOL    HW146209   3.372   1.199   7.914  2.0500 -1.0999  2.0173
14759SOL    HW246210   3.449   1.329   7.922  0.8457 -0.2777  0.7542
14760SOL     OW46211   1.388   8.833   6.219  0.0023 -0.1899 -0.5302
14760SOL    HW146212   1.451   8.780   6.267  1.1495  0.1883 -1.5575
14760SOL    HW246213   1.386   8.793   6.131 -1.9718 -0.8210 -0.2519
14761SOL     OW46214   1.451   7.551   1.520 -0.2952  0.5780  0.0292
14761SOL    HW146215   1.461   7.549   1.615 -0.0706  1.1349  0.0157
14761SOL    HW246216   1.532   7.590   1.488  0.6050 -1.6165 -0.5415
14762SOL     OW46217   2.852   3.537   1.667 -0.4231  0.8082 -0.1108
14762SOL    HW146218   2.829   3.620   1.707  2.1272  0.6723  1.9098
14762SOL    HW246219   2.824   3.471   1.731  0.0257  0.3233 -0.4002
14763SOL     OW46220   3.392   6.832   6.689  0.0413 -0.3211  0.0830
14763SOL    HW146221   3.382   6.917   6.645  1.9747  0.2135  0.5374
14763SOL    HW246222   3.383   6.768   6.619 -2.4347  0.1617 -0.1087
14764SOL     OW46223   7.738   4.511   3.203 -0.6186  0.0839  0.3213
14764SOL    HW146224   7.647   4.506   3.173 -0.3764 -0.7247 -0.2918
14764SOL    HW246225   7.769   4.421   3.201  0.3100  0.4013  0.2100
14765SOL     OW46226   7.092   3.476   4.514  0.3169  0.3249  0.1746
14765SOL    HW146227   7.090   3.421   4.437 -0.3344  2.4634 -1.4390
14765SOL    HW246228   7.009   3.458   4.559  0.0062  0.1779 -0.4551
14766SOL     OW46229   5.456   2.939   6.469  0.7152 -0.5752  0.0721
14766SOL    HW146230   5.380   2.997   6.459  0.7448 -0.7738 -1.5576
14766SOL    HW246231   5.531   2.998   6.478  0.4930 -0.3785  0.6658
14767SOL     OW46232   3.549   5.398   5.274 -0.5906 -0.2188 -0.0439
14767SOL    HW146233   3.622   5.457   5.258 -1.3750  0.5070 -1.1096
14767SOL    HW246234   3.550   5.382   5.368  0.2867  0.6329  0.0994
14768SOL     OW46235   3.546   1.043   7.260 -0.1188  0.2008 -0.0575
14768SOL    HW146236   3.469   1.091   7.290 -1.2825 -0.8299 -1.2428
14768SOL    HW246237   3.595   1.107   7.209 -0.1123  0.9067  0.8072
14769SOL     OW46238   4.848   0.110   3.033 -0.3394  0.6516 -0.3928
14769SOL    HW146239   4.905   0.178   3.068  0.5818  0.0791 -0.7528
14769SOL    HW246240   4.886   0.087   2.948 -1.2521  0.4303 -0.7568
14770SOL     OW46241   0.149   1.916   2.734 -0.4536 -0.2962  0.2183
14770SOL    HW146242   0.065   1.956   2.760 -0.7136  0.6980 -1.9734
14770SOL    HW246243   0.124   1.832   2.696 -0.1825 -1.1356  1.7802
14771SOL     OW46244   8.843   2.459   4.110  0.0505 -0.3108  0.0526
14771SOL    HW146245   8.789   2.499   4.178 -1.7550  0.9914 -1.9989
14771SOL    HW246246   8.885   2.533   4.067  2.9816 -1.2546  1.0699
14772SOL     OW46247   2.374   4.198   4.266  0.0648 -0.5960 -0.4826
14772SOL    HW146248   2.361   4.293   4.273 -0.1290 -0.5138 -1.6893
14772SOL    HW246249   2.468   4.186   4.280  0.1594 -0.1730 -0.7420
14773SOL     OW46250   7.659   7.928   7.667 -0.4805  0.2013  0.3467
14773SOL    HW146251   7.591   7.868   7.637 -0.4785 -0.0612  0.8612
14773SOL    HW246252   7.668   7.992   7.596  1.5354 -1.9973 -1.5796
14774SOL     OW46253   2.306   0.400   2.597 -0.1770  0.3924 -0.5480
14774SOL    HW146254   2.224   0.447   2.612 -0.4561 -0.6263  1.5077
14774SOL    HW246255   2.373   0.468   2.598 -0.8666  1.0974 -1.0032
14775SOL     OW46256   4.379   7.713   6.053 -0.0368 -0.4161 -0.5247
14775SOL    HW146257   4.351   7.750   5.969 -0.2708 -2.6144 -1.4630
14775SOL    HW246258   4.429   7.635   6.030  1.1432 -0.2911  1.3621
14776SOL     OW46259   3.582   1.177   2.866  0.6851  0.3860  0.0815
14776SOL    HW146260   3.524   1.253   2.871 -0.6427 -0.6992  1.7958
14776SOL    HW246261   3.641   1.187   2.941 -0.2383 -0.8316  0.9959
14777SOL     OW46262   8.709   0.897   1.370  0.8662 -0.1531 -1.0366
14777SOL    HW146263   8.730   0.961   1.302  0.0736  0.4575 -0.7280
14777SOL    HW246264   8.790   0.847   1.383  2.3976  2.5547  0.6389
14778SOL     OW46265   8.059   4.202   3.843  0.3846  0.4983  0.1345
14778SOL    HW146266   8.148   4.176   3.818 -0.0895 -0.2354 -0.8339
14778SOL    HW246267   8.003   4.132   3.809 -0.4879  0.4610  1.5592
14779SOL     OW46268   3.262   4.717   4.761  0.0878  1.0371  0.0213
14779SOL    HW146269   3.186   4.765   4.794  0.4548  1.2903  0.5167
14779SOL    HW246270   3.241   4.625   4.776 -0.2594  1.0830 -0.1567
14780SOL     OW46271   8.471   8.151   2.767  0.1780  0.0404 -0.1151
14780SOL    HW146272   8.461   8.190   2.853  1.4495  0.6429 -0.2329
14780SOL    HW246273   8.456   8.057   2.781 -0.9743  0.2996  0.4986
14781SOL     OW46274   5.109   5.733   3.641  0.2658 -0.4712 -0.5454
14781SOL    HW146275   5.022   5.700   3.620  0.1898 -0.4244 -0.3065
14781SOL    HW246276   5.104   5.755   3.734  0.7574 -1.1837 -0.3409
14782SOL     OW46277   4.401   8.380   5.501 -0.3086  0.0928 -0.3854
14782SOL    HW146278   4.447   8.446   5.554 -1.4905  0.9045 -0.3264
14782SOL    HW246279   4.308   8.398   5.515 -0.6604 -1.2026 -0.8774
14783SOL     OW46280   6.928   2.207   8.666 -0.3177  0.2244 -0.0462
14783SOL    HW146281   6.931   2.238   8.757  1.3443  0.1041 -0.0217
14783SOL    HW246282   7.020   2.193   8.643 -0.7071  0.4084 -1.8167
14784SOL     OW46283   3.812   1.153   6.348 -0.6804  0.0887  0.6246
14784SOL    HW146284   3.854   1.074   6.314 -0.4384  0.6361 -0.3834
14784SOL    HW246285   3.728   1.122   6.383 -0.9477 -0.5007 -0.4837
14785SOL     OW46286   4.967   8.844   3.331 -0.4557  0.3479  0.4146
14785SOL    HW146287   5.018   8.878   3.257 -0.0744 -1.9022 -0.4494
14785SOL    HW246288   4.960   8.750   3.313 -3.0522  0.2281  1.6439
14786SOL     OW46289   2.637   5.294   8.574  0.3245 -0.1625 -0.4296
14786SOL    HW146290   2.565   5.327   8.627 -0.0560  0.3657 -1.2407
14786SOL    HW246291   2.604   5.212   8.537 -0.9879  1.3714 -2.9749
14787SOL     OW46292   1.426   4.260   7.649 -0.6405 -0.4023  0.1626
14787SOL    HW146293   1.460   4.232   7.734 -0.9251  0.1801  0.4786
14787SOL    HW246294   1.494   4.318   7.613 -0.0678 -1.4514 -0.4740
14788SOL     OW46295   1.808   2.648   3.029  0.4773  0.1525  0.6791
14788SOL    HW146296   1.714   2.643   3.012  0.7529 -1.9410 -0.5748
14788SOL    HW246297   1.847   2.673   2.946  0.9778  2.8295  1.6216
14789SOL     OW46298   8.255   2.874   2.101 -0.0627 -0.2668 -0.4481
14789SOL    HW146299   8.276   2.959   2.062 -1.5189 -0.7085 -2.3819
14789SOL    HW246300   8.165   2.885   2.133 -0.3674 -1.1312 -0.9825
14790SOL     OW46301   0.903   2.368   0.993 -0.3985  0.1000  0.2859
14790SOL    HW146302   0.874   2.295   1.047 -0.9078 -0.1729 -0.3379
14790SOL    HW246303   0.829   2.429   0.993 -1.6186 -1.2199 -2.4361
14791SOL     OW46304   7.321   6.267   1.103  0.6701  0.6590  0.0586
14791SOL    HW146305   7.334   6.174   1.088 -0.4515  0.6425 -0.9030
14791SOL    HW246306   7.256   6.271   1.173  0.5293  0.7110 -0.0736
14792SOL     OW46307   0.337   2.414   0.782 -0.0580 -0.0685 -0.0296
14792SOL    HW146308   0.307   2.491   0.733 -0.5557  0.8707  1.6761
14792SOL    HW246309   0.404   2.448   0.841 -0.5720 -0.8535  1.0401
14793SOL     OW46310   8.592   6.465   8.522  0.0457 -0.1990  0.1475
14793SOL    HW146311   8.673   6.501   8.559  0.3159 -1.7151  1.1768
14793SOL    HW246312   8.615   6.374   8.502 -1.1176 -0.3495 -0.5517
14794SOL     OW46313   1.284   1.690   1.910  0.1977  0.1410  0.5527
14794SOL    HW146314   1.300   1.766   1.966 -1.9848 -0.4302  2.0376
14794SOL    HW246315   1.368   1.644   1.908  1.2943  2.0599  0.3990
14795SOL     OW46316   0.531   5.337   2.383  0.1252 -0.5223  0.1459
14795SOL    HW146317   0.602   5.354   2.321  0.1987  2.5226  0.9087
14795SOL    HW246318   0.452   5.334   2.329  0.6031 -2.6691 -0.5516
14796SOL     OW46319   1.591   2.710   2.355  0.2519  0.3787 -0.0622
14796SOL    HW146320   1.673   2.700   2.306 -0.0287  0.9363 -0.6548
14796SOL    HW246321   1.619   2.734   2.444  0.7289  1.2657 -0.4348
14797SOL     OW46322   7.512   1.653   2.674  0.0678 -0.0909  0.1551
14797SOL    HW146323   7.560   1.732   2.697 -1.3014  0.3496  1.6775
14797SOL    HW246324   7.453   1.638   2.748  1.1915 -3.2971  0.5634
14798SOL     OW46325   3.696   1.233   1.624  0.6693 -0.0178 -0.1731
14798SOL    HW146326   3.721   1.178   1.551 -1.0225  0.3538 -1.0975
14798SOL    HW246327   3.643   1.303   1.585  0.8895  1.0006  1.2350
14799SOL     OW46328   0.853   3.543   7.954  0.3693  0.1513 -0.0532
14799SOL    HW146329   0.787   3.494   7.903 -1.8054 -0.6125  3.1593
14799SOL    HW246330   0.928   3.484   7.958  0.4100  0.0395 -1.9157
14800SOL     OW46331   2.792   8.164   5.709  0.0353 -0.3593  0.5177
14800SOL    HW146332   2.855   8.093   5.705 -0.4837 -0.7564 -1.3467
14800SOL    HW246333   2.837   8.239   5.670  0.4926  0.3331  2.2470
14801SOL     OW46334   5.689   7.458   4.138  0.1507 -0.5926  0.0372
14801SOL    HW146335   5.687   7.553   4.149  0.0822 -0.4434 -1.1126
14801SOL    HW246336   5.624   7.425   4.200  0.4319  0.0753  0.7070
14802SOL     OW46337   0.117   1.083   7.195  0.1517  0.0720 -0.2654
14802SOL    HW146338   0.089   1.132   7.118 -0.1848  1.0310  0.4414
14802SOL    HW246339   0.192   1.132   7.228  0.8022 -0.7875 -0.4302
14803SOL     OW46340   2.733   3.360   7.296  0.2689  0.0485 -0.1667
14803SOL    HW146341   2.699   3.368   7.385  0.2270  2.5198 -0.3572
14803SOL    HW246342   2.803   3.295   7.303 -0.3953 -0.5310  1.4442
14804SOL     OW46343   6.738   7.063   8.752  0.2083 -0.7310 -0.0996
14804SOL    HW146344   6.817   7.114   8.769 -1.2263  1.7749 -0.4369
14804SOL    HW246345   6.767   6.992   8.695  2.1446  0.4186 -0.6316
14805SOL     OW46346   8.580   2.185   8.472  0.2337 -0.3380  0.0888
14805SOL    HW146347   8.571   2.105   8.523  1.4241  0.3174  1.4116
14805SOL    HW246348   8.675   2.197   8.462  0.0545  0.5313 -0.6827
14806SOL     OW46349   5.971   7.836   8.606  0.2223  0.0844  0.0701
14806SOL    HW146350   6.046   7.895   8.615 -0.7106  1.2076  0.8965
14806SOL    HW246351   5.959   7.801   8.694 -1.6253  1.7537  0.5540
14807SOL     OW46352   5.038   4.919   3.784 -0.1440  0.6979  0.2001
14807SOL    HW146353   4.995   4.964   3.711  0.3975  0.8530 -0.0244
14807SOL    HW246354   4.967   4.870   3.826 -1.0918  2.8722  1.3364
14808SOL     OW46355   5.568   8.607   5.103 -0.0700  0.5842  0.6188
14808SOL    HW146356   5.621   8.621   5.181  2.2222 -1.6738 -0.3739
14808SOL    HW246357   5.626   8.560   5.043 -1.8399  1.8980 -2.3470
14809SOL     OW46358   7.123   3.993   7.511 -0.1590 -0.0990  0.2746
14809SOL    HW146359   7.173   3.933   7.454 -0.9304  0.0311 -0.5513
14809SOL    HW246360   7.160   3.978   7.598  0.8851 -0.4771 -0.2091
14810SOL     OW46361   3.240   3.337   7.681 -0.5681 -0.7245  0.6256
14810SOL    HW146362   3.304   3.304   7.618 -1.5500 -0.3249 -0.6279
14810SOL    HW246363   3.162   3.356   7.629 -1.2907  0.0019  1.9064
14811SOL     OW46364   6.445   6.626   5.284 -0.2124  0.4841  0.2071
14811SOL    HW146365   6.392   6.609   5.206 -1.1257 -0.1710  0.9510
14811SOL    HW246366   6.423   6.715   5.310 -0.1444  0.5886 -0.0967
14812SOL     OW46367   6.231   0.526   1.223  0.5106  0.0091 -0.0054
14812SOL    HW146368   6.177   0.551   1.149  1.3846  0.2754 -0.5772
14812SOL    HW246369   6.319   0.514   1.186  1.2274  1.2838  1.1633
14813SOL     OW46370   7.063   1.250   3.923  0.0035  0.4503  0.4773
14813SOL    HW146371   7.084   1.170   3.971 -0.6787 -0.9079 -1.3525
14813SOL    HW246372   6.971   1.268   3.944  0.4257  1.3578  1.6515
14814SOL     OW46373   1.865   4.706   4.259  0.2985  0.3710  0.2499
14814SOL    HW146374   1.942   4.692   4.204 -1.2576  1.9537 -2.6110
14814SOL    HW246375   1.820   4.622   4.259  0.8975  0.0433  0.0522
14815SOL     OW46376   1.431   5.108   5.997  0.2859 -0.4464  0.2002
14815SOL    HW146377   1.391   5.065   5.922  0.4235 -0.1790 -0.0260
14815SOL    HW246378   1.407   5.052   6.072 -0.0965 -0.5547  0.0021
14816SOL     OW46379   8.657   0.347   3.585 -0.1408 -0.2910  0.1759
14816SOL    HW146380   8.686   0.438   3.587  0.7684 -0.5683 -0.0226
14816SOL    HW246381   8.737   0.296   3.572 -0.6497 -1.1157  0.1800
14817SOL     OW46382   1.725   8.803   6.039 -0.0654  0.0477  0.3686
14817SOL    HW146383   1.651   8.773   5.986 -0.5463  0.8838  0.5483
14817SOL    HW246384   1.730   8.741   6.111 -0.6786  0.0532  0.4233
14818SOL     OW46385   3.093   5.378   4.657  0.2867 -0.1451  0.5966
14818SOL    HW146386   3.130   5.365   4.569  1.2988 -0.4640  1.0475
14818SOL    HW246387   3.098   5.472   4.672 -0.5501  0.0001  0.0488
14819SOL     OW46388   5.712   0.926   2.351 -0.1510 -0.3093  0.2254
14819SOL    HW146389   5.776   0.893   2.413 -1.1692 -0.5553  1.1690
14819SOL    HW246390   5.635   0.871   2.363 -1.6038  1.8115  1.2582
14820SOL     OW46391   3.508   4.836   3.272 -0.2641 -0.1570  0.3586
14820SOL    HW146392   3.555   4.830   3.189 -1.8346 -0.1318 -0.5641
14820SOL    HW246393   3.455   4.756   3.276 -2.4801  1.1964 -0.1488
14821SOL     OW46394   5.724   2.222   7.689  0.2544 -0.3650  0.8666
14821SOL    HW146395   5.726   2.318   7.698  1.7163 -0.1272 -1.3383
14821SOL    HW246396   5.675   2.206   7.609 -0.2865 -1.5176  1.4006
14822SOL     OW46397   3.576   7.165   4.518 -0.0122  0.1356  0.4911
14822SOL    HW146398   3.569   7.206   4.431  0.2864 -0.4649  0.1790
14822SOL    HW246399   3.666   7.181   4.545  0.4174 -1.1892 -0.0883
14823SOL     OW46400   8.353   1.300   7.500 -0.6405 -0.1242  0.3053
14823SOL    HW146401   8.365   1.211   7.533 -0.9171  0.4816  2.1516
14823SOL    HW246402   8.432   1.318   7.450 -1.2949 -1.9791 -1.5422
14824SOL     OW46403   5.310   3.457   6.019 -0.6172 -0.2796  0.3931
14824SOL    HW146404   5.307   3.408   6.101 -0.5311 -0.2180  0.4325
14824SOL    HW246405   5.239   3.521   6.026 -0.4601 -0.1203  0.5156
14825SOL     OW46406   7.974   3.645   1.521 -0.1908  0.0151  0.0932
14825SOL    HW146407   7.885   3.677   1.526  0.2251  1.5602 -1.4875
14825SOL    HW246408   8.015   3.698   1.452  1.6011 -1.4511 -0.0465
14826SOL     OW46409   7.040   3.319   8.695 -0.1495 -0.3179  0.1800
14826SOL    HW146410   6.944   3.313   8.692 -0.1806 -0.3428  1.1236
14826SOL    HW246411   7.069   3.228   8.702  0.0180 -0.4314 -1.5425
14827SOL     OW46412   7.616   3.181   7.215  0.4178  0.5441  0.0898
14827SOL    HW146413   7.697   3.185   7.164  0.9482  0.6061  0.9312
14827SOL    HW246414   7.644   3.167   7.305 -0.5602 -1.6827  0.1215
14828SOL     OW46415   7.045   0.003   4.618  0.3740  0.3592 -0.2365
14828SOL    HW146416   7.108   0.042   4.558  0.2882 -0.6981 -1.0299
14828SOL    HW246417   6.960   0.034   4.588  0.2679 -0.7201 -1.1344
14829SOL     OW46418   3.541   7.194   6.199 -0.1861 -0.3189  0.3618
14829SOL    HW146419   3.628   7.164   6.171  0.3559  1.7921 -0.4050
14829SOL    HW246420   3.481   7.148   6.141  0.5359 -0.6319 -0.1648
14830SOL     OW46421   1.564   8.648   6.362  0.1871 -0.2215 -0.1946
14830SOL    HW146422   1.512   8.624   6.438  1.0420 -1.4874  0.0119
14830SOL    HW246423   1.538   8.587   6.293 -0.2649  0.6345 -0.8109
14831SOL     OW46424   7.214   1.277   7.076 -0.5071 -0.2228 -0.4731
14831SOL    HW146425   7.301   1.317   7.066 -0.1030 -1.5429 -2.7669
14831SOL    HW246426   7.153   1.343   7.043 -0.1252 -0.3295 -1.3965
14832SOL     OW46427   1.771   1.096   0.479 -0.0195 -0.0246  0.0013
14832SOL    HW146428   1.805   1.007   0.483 -0.9431 -0.4433 -0.9235
14832SOL    HW246429   1.769   1.117   0.386 -0.0540  0.8791  0.1930
14833SOL     OW46430   4.720   0.164   5.164  0.7440  0.0041  0.2272
14833SOL    HW146431   4.763   0.079   5.156 -1.3568 -1.0595 -0.5056
14833SOL    HW246432   4.777   0.214   5.223  2.3018 -1.7091  0.2710
14834SOL     OW46433   4.547   7.140   2.187  0.2523  0.2849 -0.0051
14834SOL    HW146434   4.584   7.053   2.202  2.1542  1.0336 -0.0586
14834SOL    HW246435   4.546   7.181   2.274  0.4295  0.6097 -0.1559
14835SOL     OW46436   3.575   0.048   8.326 -0.2773  0.5834 -0.5567
14835SOL    HW146437   3.655   0.084   8.288 -0.1143  0.0342 -0.7479
14835SOL    HW246438   3.505   0.090   8.277 -0.1445  1.7825  0.2485
14836SOL     OW46439   7.184   5.329   0.691  0.6070 -0.3511 -0.5779
14836SOL    HW146440   7.202   5.243   0.728 -0.6863 -0.5090 -0.2486
14836SOL    HW246441   7.265   5.355   0.647  1.0957 -1.6091 -0.4425
14837SOL     OW46442   0.230   4.415   4.022  1.1348  0.4357  0.0143
14837SOL    HW146443   0.263   4.326   4.031 -0.8185 -0.2924  0.5667
14837SOL    HW246444   0.210   4.442   4.112 -0.1365  0.6565 -0.3161
14838SOL     OW46445   6.284   5.992   4.560 -0.0003 -0.0562 -0.1523
14838SOL    HW146446   6.234   5.963   4.484  1.0289 -0.4409 -0.7050
14838SOL    HW246447   6.219   5.998   4.631 -0.6211 -1.7892 -0.5073
14839SOL     OW46448   5.159   3.390   4.262  0.2413 -0.0660 -0.5625
14839SOL    HW146449   5.147   3.480   4.230 -0.3512  0.0581  0.0069
14839SOL    HW246450   5.191   3.400   4.351 -2.2317 -0.3967  0.4239
14840SOL     OW46451   3.239   4.001   6.296 -0.4652 -0.1625  0.4605
14840SOL    HW146452   3.202   3.954   6.221  0.3184 -0.3056  0.1634
14840SOL    HW246453   3.165   4.010   6.356 -1.1137 -0.0005 -0.3429
14841SOL     OW46454   7.912   0.955   8.731 -0.3012 -0.8363  0.0650
14841SOL    HW146455   7.929   0.925   8.641  0.2484 -1.2385  0.2974
14841SOL    HW246456   7.939   0.881   8.786  1.5066  0.2182  0.6921
14842SOL     OW46457   4.691   6.264   5.827  0.4314  0.6536 -0.6168
14842SOL    HW146458   4.679   6.317   5.906 -0.2525  1.0868 -1.0008
14842SOL    HW246459   4.602   6.248   5.795  0.4876 -1.9959  0.2970
14843SOL     OW46460   3.571   3.403   1.019  0.2849 -0.1058  0.1370
14843SOL    HW146461   3.476   3.405   1.035 -0.0416  1.5908 -1.5592
14843SOL    HW246462   3.580   3.360   0.934  0.9862  0.1472  0.0753
14844SOL     OW46463   6.927   5.075   4.590 -0.6753 -0.2199  0.8592
14844SOL    HW146464   6.879   5.158   4.589 -1.2287 -0.5339 -0.3580
14844SOL    HW246465   7.015   5.099   4.621 -1.0645  0.6708  1.3226
14845SOL     OW46466   1.829   0.131   3.514  0.2458  0.1517  0.0902
14845SOL    HW146467   1.816   0.094   3.427 -1.1951 -0.1427  0.4046
14845SOL    HW246468   1.809   0.224   3.504  1.5433  0.4116 -0.1967
14846SOL     OW46469   5.767   7.106   7.681  0.6252 -0.2580 -0.4438
14846SOL    HW146470   5.787   7.054   7.759 -2.0930  0.2494  0.7115
14846SOL    HW246471   5.834   7.175   7.680  0.8846 -0.4360  1.3118
14847SOL     OW46472   6.358   2.803   5.867  0.0914 -0.1732  0.6418
14847SOL    HW146473   6.432   2.848   5.826 -0.3593  0.3588  0.4144
14847SOL    HW246474   6.381   2.800   5.960  0.2142  0.3505  0.6292
14848SOL     OW46475   5.717   6.789   2.957  0.4021 -0.0697  0.4568
14848SOL    HW146476   5.787   6.854   2.947  0.0994  0.1066 -0.7046
14848SOL    HW246477   5.714   6.744   2.872 -0.3876 -0.5906  0.7504
14849SOL     OW46478   5.360   3.762   7.076 -0.0697 -0.3365 -0.3459
14849SOL    HW146479   5.395   3.850   7.078 -0.7420 -0.0588 -0.2854
14849SOL    HW246480   5.394   3.723   6.996 -0.8979  0.4673 -1.1149
14850SOL     OW46481   6.890   4.004   1.583  0.1689  0.3063 -0.1628
14850SOL    HW146482   6.857   3.921   1.617 -0.5132  0.7673  0.3389
14850SOL    HW246483   6.980   3.986   1.556  0.8950 -0.0245  2.2325
14851SOL     OW46484   3.597   0.089   6.638 -0.1456 -0.3155  0.5399
14851SOL    HW146485   3.575   0.024   6.572 -0.3200 -1.4167  1.6315
14851SOL    HW246486   3.670   0.051   6.687  0.9879  1.1467  0.0474
14852SOL     OW46487   7.411   3.686   5.097 -0.0009 -0.6666 -0.2593
14852SOL    HW146488   7.400   3.610   5.039 -1.4387 -1.2923  0.7836
14852SOL    HW246489   7.432   3.648   5.182  0.5883  0.1819 -0.0151
14853SOL     OW46490   4.594   6.966   6.628 -0.0274 -0.1989  0.1493
14853SOL    HW146491   4.535   7.004   6.563 -1.8319 -0.1670  1.7090
14853SOL    HW246492   4.591   6.872   6.612  0.2565 -0.1219 -0.3703
14854SOL     OW46493   6.133   8.428   6.544 -0.2896 -0.2563 -0.2417
14854SOL    HW146494   6.210   8.433   6.601  0.7261  2.0347 -1.6552
14854SOL    HW246495   6.058   8.426   6.604  0.7951 -0.2310  1.1643
14855SOL     OW46496   1.933   3.833   7.532 -0.5349  0.0501 -0.1367
14855SOL    HW146497   2.019   3.791   7.533  0.2605  1.6279  0.4047
14855SOL    HW246498   1.871   3.760   7.529  0.8184 -1.1137 -1.8235
14856SOL     OW46499   6.241   0.173   1.705 -0.5630  0.3695 -0.3345
14856SOL    HW146500   6.222   0.098   1.762  0.0639 -0.1892 -0.8390
14856SOL    HW246501   6.157   0.192   1.663 -1.1750  1.1549  1.1594
14857SOL     OW46502   0.763   8.554   3.876 -0.4966  0.4369  0.0019
14857SOL    HW146503   0.842   8.557   3.821  1.1211 -0.9802  2.1067
14857SOL    HW246504   0.778   8.620   3.943 -1.3263  0.4657  0.1715
14858SOL     OW46505   3.810   3.851   8.585 -0.5367  0.0230 -0.6062
14858SOL    HW146506   3.762   3.933   8.570 -0.1967  0.3577  0.0689
14858SOL    HW246507   3.865   3.841   8.508  1.6831  2.0590  0.5773
14859SOL     OW46508   6.934   1.774   4.283  0.0852  0.4560  0.2093
14859SOL    HW146509   7.012   1.763   4.337 -0.6758  0.7061  1.4004
14859SOL    HW246510   6.908   1.685   4.259 -0.2341  0.2538  1.2590
14860SOL     OW46511   3.989   6.748   3.390 -0.8616  0.1687  0.1168
14860SOL    HW146512   4.063   6.695   3.361  0.8293  2.4120  0.0620
14860SOL    HW246513   4.017   6.787   3.472 -1.8223  1.3741 -0.0965
14861SOL     OW46514   1.296   5.975   2.470  0.3140 -0.1662 -0.0876
14861SOL    HW146515   1.229   6.044   2.474 -1.6031 -1.9174 -0.5768
14861SOL    HW246516   1.304   5.955   2.376  1.2658 -0.2645  0.0025
14862SOL     OW46517   2.559   5.834   4.434 -0.0227  0.0330  0.0946
14862SOL    HW146518   2.549   5.783   4.353 -0.2733 -0.6048  0.5219
14862SOL    HW246519   2.647   5.811   4.465 -0.4877 -0.8591  0.7732
14863SOL     OW46520   6.578   0.528   2.100 -0.2491  0.4563  0.4393
14863SOL    HW146521   6.645   0.563   2.040 -0.4946  0.9769  0.4650
14863SOL    HW246522   6.622   0.525   2.185  0.2131 -0.6135  0.1846
14864SOL     OW46523   0.276   2.414   2.124  0.2419  0.4899  0.3226
14864SOL    HW146524   0.299   2.342   2.065 -0.2361  0.6284 -0.0344
14864SOL    HW246525   0.312   2.388   2.208  1.1977  0.4263 -0.0907
14865SOL     OW46526   4.210   2.986   1.442  0.2124  0.2880  0.2726
14865SOL    HW146527   4.170   2.949   1.520 -1.4883  0.5173 -0.4484
14865SOL    HW246528   4.146   2.972   1.373  0.8068  1.8790 -0.6553
14866SOL     OW46529   3.955   5.603   0.440 -0.4864  0.3379 -0.4417
14866SOL    HW146530   3.923   5.681   0.395 -1.3306  0.4211  0.2703
14866SOL    HW246531   4.050   5.608   0.432 -0.5398  1.3541 -0.5608
14867SOL     OW46532   6.017   4.296   5.364  0.0739  0.3624 -0.4053
14867SOL    HW146533   6.075   4.221   5.378 -0.1234 -0.0032 -1.4398
14867SOL    HW246534   5.984   4.317   5.451  0.9515 -0.0796  0.0484
14868SOL     OW46535   6.362   2.302   4.877  0.1483  0.3782 -0.4465
14868SOL    HW146536   6.339   2.313   4.969  2.5514  1.1878  0.1167
14868SOL    HW246537   6.406   2.218   4.872  1.4922  1.0576 -0.4976
14869SOL     OW46538   6.682   6.212   0.120 -0.4057  0.0344 -0.6339
14869SOL    HW146539   6.690   6.263   0.039 -1.7669  1.7535  0.2443
14869SOL    HW246540   6.613   6.149   0.101 -0.1935 -0.0695 -1.0653
14870SOL     OW46541   0.974   3.360   3.401 -0.5162 -0.2531 -0.5854
14870SOL    HW146542   1.063   3.325   3.395 -1.3612 -2.7777  0.2120
14870SOL    HW246543   0.972   3.406   3.486 -0.3137 -1.3675  0.0442
14871SOL     OW46544   1.112   0.662   3.996  0.3617  0.1764 -0.7577
14871SOL    HW146545   1.155   0.725   3.937  1.0367 -0.0642 -0.5232
14871SOL    HW246546   1.089   0.588   3.939 -0.8207  0.7885 -1.1264
14872SOL     OW46547   4.048   1.669   7.450  0.2870 -0.1854  0.0371
14872SOL    HW146548   4.049   1.645   7.543  1.0034 -0.6901 -0.0973
14872SOL    HW246549   3.993   1.602   7.409  1.2109 -0.8471 -0.1336
14873SOL     OW46550   2.804   8.106   4.837 -0.7799  0.1361 -0.3502
14873SOL    HW146551   2.708   8.102   4.839 -0.7452 -0.9008 -0.2473
14873SOL    HW246552   2.828   8.062   4.756 -0.4142  1.3309 -0.9107
14874SOL     OW46553   1.237   8.430   5.942 -0.2622 -0.3437  0.2644
14874SOL    HW146554   1.179   8.356   5.921 -0.5785  0.0270 -0.1978
14874SOL    HW246555   1.177   8.503   5.959  0.0231 -0.3794  1.4933
14875SOL     OW46556   8.286   4.072   1.269  0.3578 -0.4069  0.3625
14875SOL    HW146557   8.195   4.101   1.272  0.4013  0.0334 -1.4190
14875SOL    HW246558   8.313   4.069   1.361 -1.5419 -0.8847  0.9591
14876SOL     OW46559   4.130   7.293   3.079 -0.4138  0.8849 -0.9203
14876SOL    HW146560   4.153   7.289   2.986  1.7637  0.0484 -0.4080
14876SOL    HW246561   4.202   7.250   3.123 -3.1380 -2.2364  0.9330
14877SOL     OW46562   7.706   6.050   1.673  0.2685  0.6635  0.3873
14877SOL    HW146563   7.738   6.129   1.716 -1.4401 -0.5017  4.3215
14877SOL    HW246564   7.618   6.073   1.642  0.1550  0.6115  0.6616
14878SOL     OW46565   0.006   0.271   2.478 -0.2552  0.9099  0.0556
14878SOL    HW146566   0.016   0.348   2.421  1.0366 -0.5363 -1.7904
14878SOL    HW246567  -0.089   0.261   2.487 -0.4700  1.9767 -0.7493
14879SOL     OW46568   0.933   6.046   7.558  0.4127  0.0639  0.0736
14879SOL    HW146569   0.895   6.048   7.470 -0.6454 -0.0447  0.5165
14879SOL    HW246570   0.930   5.954   7.583 -0.7657  0.2949  0.8353
14880SOL     OW46571   3.506   7.227   3.516  0.3825 -0.6438 -0.6671
14880SOL    HW146572   3.586   7.242   3.566  0.5358 -1.3838 -0.6764
14880SOL    HW246573   3.454   7.167   3.571  1.0200 -2.3585 -1.8313
14881SOL     OW46574   8.402   8.816   0.608 -0.0094 -0.2501  0.2634
14881SOL    HW146575   8.471   8.866   0.651  0.0738  0.2173 -0.4029
14881SOL    HW246576   8.448   8.760   0.546 -0.2934  1.2779 -1.4157
14882SOL     OW46577   8.465   7.423   2.488 -0.6630 -0.5081 -0.8516
14882SOL    HW146578   8.414   7.434   2.568 -1.4387  0.0951 -1.4114
14882SOL    HW246579   8.474   7.328   2.479  0.3250 -0.5662  0.4829
14883SOL     OW46580   0.839   1.386   7.772  0.1228 -0.4056  0.1135
14883SOL    HW146581   0.923   1.351   7.741  0.9899  0.7761  1.0572
14883SOL    HW246582   0.861   1.435   7.851 -1.7830 -1.9922  1.7435
14884SOL     OW46583   1.724   0.668   3.938 -0.2316 -0.3365  0.2301
14884SOL    HW146584   1.758   0.744   3.889 -0.2934  0.1085  0.8673
14884SOL    HW246585   1.636   0.695   3.966  0.3115 -0.0401  1.7451
14885SOL     OW46586   8.466   2.480   6.670 -0.6435 -0.0474  0.0528
14885SOL    HW146587   8.531   2.410   6.663 -1.0630 -0.3495 -1.1257
14885SOL    HW246588   8.472   2.510   6.761  0.3477 -0.8289  0.2615
14886SOL     OW46589   4.445   5.044   5.570  0.1137 -0.3075 -0.3181
14886SOL    HW146590   4.402   4.964   5.539 -0.3471 -0.3441  0.3825
14886SOL    HW246591   4.505   5.068   5.500 -2.4997  0.9237 -2.3068
14887SOL     OW46592   1.168   6.792   4.297  0.1462  0.5889 -0.0283
14887SOL    HW146593   1.078   6.763   4.282 -0.3500  2.1377 -0.2284
14887SOL    HW246594   1.220   6.712   4.294 -1.1434 -0.2571 -0.5523
14888SOL     OW46595   0.413   6.606   4.928 -0.3515  0.0464  0.6058
14888SOL    HW146596   0.497   6.647   4.910 -0.7054  0.4842 -0.0862
14888SOL    HW246597   0.392   6.632   5.018  0.2363 -0.0464  0.7699
14889SOL     OW46598   5.825   6.849   4.601  0.5084 -0.0058  0.0285
14889SOL    HW146599   5.737   6.862   4.638  0.4109 -0.5073 -0.0196
14889SOL    HW246600   5.883   6.893   4.663  0.4163 -1.4601  1.1919
14890SOL     OW46601   8.258   0.239   6.277  0.3096  0.4435 -0.3138
14890SOL    HW146602   8.256   0.335   6.271  0.8598  0.4607 -0.2614
14890SOL    HW246603   8.169   0.212   6.253  0.3938  0.9178 -1.2105
14891SOL     OW46604   7.671   7.271   5.398  0.3183 -0.2108 -0.7014
14891SOL    HW146605   7.740   7.238   5.339  2.2498 -1.3602  2.0040
14891SOL    HW246606   7.711   7.346   5.442  0.7203 -2.0064  2.2805
14892SOL     OW46607   7.450   3.758   7.979  0.7198  0.1016 -0.0884
14892SOL    HW146608   7.537   3.792   8.000  1.1172 -0.7913 -0.2456
14892SOL    HW246609   7.390   3.826   8.009  1.4682  0.6919  0.1015
14893SOL     OW46610   0.699   6.811   8.778  0.1617  0.3496 -0.2436
14893SOL    HW146611   0.790   6.839   8.788  0.9382 -1.9946 -0.1528
14893SOL    HW246612   0.670   6.792   8.867  0.2528 -0.7831 -0.4436
14894SOL     OW46613   6.304   6.206   1.594 -0.4509  0.0437  0.2244
14894SOL    HW146614   6.341   6.150   1.662 -0.7478 -0.2192  0.1708
14894SOL    HW246615   6.274   6.145   1.526  2.2193  0.3459 -1.3871
14895SOL     OW46616   3.448   2.124   3.527 -0.1882 -0.0045 -0.1313
14895SOL    HW146617   3.387   2.157   3.593  0.6830  2.2504 -0.3774
14895SOL    HW246618   3.411   2.153   3.444  0.5669  0.2980 -0.3699
14896SOL     OW46619   4.878   2.411   6.630  0.0170 -0.0449 -0.3826
14896SOL    HW146620   4.854   2.319   6.621 -0.3933 -0.0449  0.6434
14896SOL    HW246621   4.946   2.413   6.697  1.3123  0.2215 -1.6441
14897SOL     OW46622   5.350   6.433   3.006 -0.4065  0.5654 -0.1301
14897SOL    HW146623   5.304   6.370   2.952 -0.0547  1.7554 -1.9047
14897SOL    HW246624   5.304   6.516   2.991 -0.1645  0.9797  1.2511
14898SOL     OW46625   1.528   3.291   1.411  0.2563  0.4262  0.5841
14898SOL    HW146626   1.466   3.363   1.400 -0.3610  0.1105  1.8457
14898SOL    HW246627   1.516   3.237   1.333 -2.3682 -0.5794  1.5782
14899SOL     OW46628   4.456   2.761   4.966  0.1931  0.3945  0.1568
14899SOL    HW146629   4.542   2.753   5.008  0.0498  0.4021  0.4544
14899SOL    HW246630   4.398   2.707   5.019  1.0134 -4.2337 -3.0597
14900SOL     OW46631   8.181   1.622   7.983 -0.3003  0.0532  0.2685
14900SOL    HW146632   8.137   1.548   7.941  0.2229  0.4249 -0.9921
14900SOL    HW246633   8.264   1.587   8.015 -0.0441  0.0831 -0.3445
14901SOL     OW46634   1.203   7.172   1.488 -0.7654  0.0025 -0.1867
14901SOL    HW146635   1.235   7.262   1.492 -0.3463 -0.1348 -0.3402
14901SOL    HW246636   1.200   7.143   1.579  2.4605 -0.9655 -0.2573
14902SOL     OW46637   4.306   6.652   4.050  0.1379 -0.0794  0.1147
14902SOL    HW146638   4.241   6.712   4.013  0.0492 -1.2271 -1.7424
14902SOL    HW246639   4.370   6.709   4.093 -1.9109  1.1025  1.7886
14903SOL     OW46640   2.696   3.342   0.387  0.3443 -0.4579 -0.2554
14903SOL    HW146641   2.753   3.371   0.316  1.4743 -0.7552  0.5100
14903SOL    HW246642   2.638   3.417   0.404  1.1505  0.2097 -0.4067
14904SOL     OW46643   8.687   4.646   4.081 -0.3572  0.3370  0.4160
14904SOL    HW146644   8.721   4.600   4.158 -1.2375  0.4500  0.8915
14904SOL    HW246645   8.645   4.724   4.118  0.8745  1.3950 -0.3462
14905SOL     OW46646   5.590   1.136   6.346 -0.0716 -0.4037 -0.3035
14905SOL    HW146647   5.564   1.100   6.430 -1.1899 -0.8173 -0.8092
14905SOL    HW246648   5.577   1.065   6.284 -0.5692  0.3075 -1.0364
14906SOL     OW46649   8.798   7.338   1.718 -0.1748 -0.1836  0.3453
14906SOL    HW146650   8.879   7.322   1.670  1.5619  0.0505  2.9900
14906SOL    HW246651   8.776   7.429   1.697 -0.4670 -0.6123 -1.3228
14907SOL     OW46652   3.416   8.849   4.607 -0.5400 -0.3785 -0.8528
14907SOL    HW146653   3.452   8.779   4.552  0.0918  0.1882 -1.1818
14907SOL    HW246654   3.494   8.893   4.642 -0.9302 -0.6953  0.4631
14908SOL     OW46655   8.199   6.590   0.071  0.9377 -0.1191 -0.6156
14908SOL    HW146656   8.213   6.562  -0.019 -1.8070 -1.2071 -0.8054
14908SOL    HW246657   8.125   6.650   0.066  0.9519  0.0514  0.8572
14909SOL     OW46658   8.583   2.058   0.803  0.1038 -0.4725  0.3345
14909SOL    HW146659   8.556   2.150   0.796 -1.1144 -0.7786  0.6873
14909SOL    HW246660   8.655   2.058   0.866  1.9536  0.5594 -1.6582
14910SOL     OW46661   5.796   0.677   8.331 -0.3019 -0.1003 -0.0678
14910SOL    HW146662   5.861   0.667   8.262 -2.2076 -2.3604 -1.6845
14910SOL    HW246663   5.810   0.602   8.388 -0.9119 -0.1046  0.0802
14911SOL     OW46664   2.995   8.829   1.533  0.1123  0.8956  0.2416
14911SOL    HW146665   3.052   8.824   1.610  1.0390 -1.0290 -0.4890
14911SOL    HW246666   3.053   8.859   1.463 -0.1537  0.4883 -0.1597
14912SOL     OW46667   4.955   2.799   3.208  0.3873  0.1503 -0.1533
14912SOL    HW146668   4.939   2.893   3.196 -0.3840 -0.1798 -1.9909
14912SOL    HW246669   4.970   2.766   3.120 -1.6162 -1.8507  0.1702
14913SOL     OW46670   1.998   6.424   6.872 -0.1772  0.0701 -0.1518
14913SOL    HW146671   1.998   6.329   6.881 -0.4640 -0.0558 -1.2985
14913SOL    HW246672   2.081   6.444   6.827  0.0392  0.3971  0.3871
14914SOL     OW46673   1.237   4.897   2.810 -0.0241 -0.3582  0.4994
14914SOL    HW146674   1.157   4.949   2.805 -0.1315 -0.5466  0.2428
14914SOL    HW246675   1.232   4.855   2.896 -0.1896 -0.3475  0.4963
14915SOL     OW46676   2.228   0.763   5.688  0.4200 -0.4575 -0.8815
14915SOL    HW146677   2.179   0.800   5.614  0.8930  2.3900  0.1067
14915SOL    HW246678   2.173   0.780   5.764  1.2631 -0.6294 -0.2271
14916SOL     OW46679   6.322   3.515   4.561 -0.0944  0.3532 -0.0986
14916SOL    HW146680   6.254   3.582   4.555 -0.7886 -0.3984 -0.7654
14916SOL    HW246681   6.358   3.509   4.472 -0.0269 -0.1502 -0.0407
14917SOL     OW46682   3.325   1.761   6.301  0.2874  0.0153 -1.0257
14917SOL    HW146683   3.241   1.794   6.330  0.1905 -2.0299  1.3637
14917SOL    HW246684   3.305   1.707   6.224 -0.2595  1.0401 -1.6253
14918SOL     OW46685   5.276   2.423   0.742 -0.1423  0.3080  0.3242
14918SOL    HW146686   5.202   2.481   0.725  0.4599  0.6520 -1.2695
14918SOL    HW246687   5.334   2.474   0.799  0.8036  1.7058 -1.7617
14919SOL     OW46688   3.174   1.431   4.943 -0.0841  0.0318 -0.4460
14919SOL    HW146689   3.260   1.414   4.905 -0.3317  0.7309 -1.3645
14919SOL    HW246690   3.160   1.358   5.004  1.3148  0.1326  0.0247
14920SOL     OW46691   2.219   0.947   0.709 -1.0462 -0.0456 -0.1552
14920SOL    HW146692   2.179   0.862   0.688 -0.9029 -0.1615  0.0374
14920SOL    HW246693   2.167   1.011   0.660  0.8506 -0.5097 -3.0728
14921SOL     OW46694   4.681   2.221   2.181  0.2916  0.2359 -0.0381
14921SOL    HW146695   4.724   2.145   2.221  0.3757  0.2651 -0.0731
14921SOL    HW246696   4.587   2.204   2.191  0.2966 -0.4414 -1.1192
14922SOL     OW46697   6.232   1.326   0.154 -0.1380 -0.5595 -0.0517
14922SOL    HW146698   6.141   1.355   0.152 -0.2634 -0.9119 -2.1014
14922SOL    HW246699   6.281   1.398   0.114  0.5776 -0.1993  1.3996
14923SOL     OW46700   4.615   0.737   0.591 -0.0544 -0.6573  0.4002
14923SOL    HW146701   4.696   0.693   0.617 -0.9162 -3.1003 -0.7241
14923SOL    HW246702   4.615   0.732   0.496 -0.4088  1.5679  0.2228
14924SOL     OW46703   7.906   0.371   0.050  0.2193  0.4060 -0.2148
14924SOL    HW146704   7.974   0.429   0.084  1.0258  0.5869 -1.9955
14924SOL    HW246705   7.830   0.428   0.036  0.0470  0.4276  0.7164
14925SOL     OW46706   1.630   0.901   4.536 -0.1543  0.5187 -0.0126
14925SOL    HW146707   1.535   0.903   4.543 -0.2407  0.3631 -1.0668
14925SOL    HW246708   1.659   0.855   4.615 -1.0817 -1.4932 -0.7783
14926SOL     OW46709   5.037   5.412   8.358 -0.0094  0.6595  0.2178
14926SOL    HW146710   5.013   5.395   8.267  0.2998 -0.5154  0.3462
14926SOL    HW246711   4.980   5.485   8.384 -3.3810 -1.8262  0.4546
14927SOL     OW46712   6.779   7.420   7.783 -0.4380  0.2803 -0.3054
14927SOL    HW146713   6.835   7.486   7.824 -0.9590  0.6172 -0.1241
14927SOL    HW246714   6.836   7.377   7.719  0.0532  0.5495 -0.0555
14928SOL     OW46715   4.693   0.252   0.038  0.0112  0.4963 -0.4336
14928SOL    HW146716   4.706   0.314  -0.034 -0.9960  0.1072 -0.9797
14928SOL    HW246717   4.607   0.213   0.020  0.0972 -0.1811  0.5567
14929SOL     OW46718   5.157   3.038   6.394 -0.0768  0.6224  0.2589
14929SOL    HW146719   5.064   3.016   6.393  0.1638 -0.4809  0.6036
14929SOL    HW246720   5.160   3.131   6.372 -1.2797  0.7576  0.5988
14930SOL     OW46721   7.761   7.084   8.404 -0.1593  0.2575  0.1907
14930SOL    HW146722   7.678   7.084   8.453 -0.4655  2.1070 -0.2548
14930SOL    HW246723   7.789   7.176   8.405  0.9888 -0.0491 -1.1679
14931SOL     OW46724   3.530   5.670   4.160  0.1477 -0.1956  0.4452
14931SOL    HW146725   3.439   5.661   4.130  0.5010  0.6193 -0.9625
14931SOL    HW246726   3.582   5.664   4.080  1.2162  1.0361  1.0122
14932SOL     OW46727   5.395   0.520   0.036  0.1949 -0.0412 -0.3591
14932SOL    HW146728   5.395   0.515  -0.060 -0.3905  0.1012 -0.3716
14932SOL    HW246729   5.486   0.540   0.059  0.0563  1.4606 -0.9787
14933SOL     OW46730   1.304   0.095   8.210  0.1990 -0.5856 -0.4545
14933SOL    HW146731   1.290   0.022   8.151 -0.0891 -1.9553  1.2158
14933SOL    HW246732   1.306   0.055   8.297  0.4706  1.3494  0.4818
14934SOL     OW46733   5.462   5.300   2.406 -0.3481 -0.5457 -0.0702
14934SOL    HW146734   5.390   5.277   2.347  0.1703 -1.0858 -0.5142
14934SOL    HW246735   5.506   5.373   2.362  0.9698 -1.9325 -1.1812
14935SOL     OW46736   8.342   2.192   5.661 -0.0125 -0.1104  0.5438
14935SOL    HW146737   8.414   2.248   5.693  0.1202  1.2582 -1.8998
14935SOL    HW246738   8.326   2.223   5.572 -2.3032 -1.7532  0.3124
14936SOL     OW46739   4.104   6.147   2.584  0.1467 -0.0302 -0.5605
14936SOL    HW146740   4.174   6.116   2.528  0.5232  0.3480 -0.3077
14936SOL    HW246741   4.069   6.068   2.625  0.7250 -0.1768 -0.3444
14937SOL     OW46742   2.168   8.398   6.903 -0.3293 -0.3937  0.0455
14937SOL    HW146743   2.231   8.384   6.832  1.0675 -0.9319  1.3413
14937SOL    HW246744   2.209   8.358   6.980 -2.3317 -0.9115  0.9151
14938SOL     OW46745   5.062   0.207   7.489 -0.2986 -0.1949 -0.2673
14938SOL    HW146746   5.049   0.239   7.400 -0.4831  0.6539  0.0588
14938SOL    HW246747   5.147   0.242   7.516 -1.4073  1.8146  0.8316
14939SOL     OW46748   1.324   4.372   3.590 -0.0702 -0.0860 -0.0806
14939SOL    HW146749   1.318   4.297   3.649  0.1946 -1.1981 -1.4204
14939SOL    HW246750   1.311   4.335   3.503  0.0652  1.4349 -0.7789
14940SOL     OW46751   7.487   4.455   0.248 -0.0535  0.3948  0.4245
14940SOL    HW146752   7.485   4.551   0.254  1.0860  0.5537 -1.1160
14940SOL    HW246753   7.414   4.433   0.191 -0.5918  0.3040  1.1458
14941SOL     OW46754   6.321   1.273   3.587  0.1548  0.2024 -0.2755
14941SOL    HW146755   6.365   1.334   3.646 -0.2091  0.2007  0.0028
14941SOL    HW246756   6.300   1.197   3.641  1.0771 -0.4070 -0.7432
14942SOL     OW46757   6.505   1.715   5.130 -0.2788  0.0521 -0.2934
14942SOL    HW146758   6.562   1.638   5.135 -0.5619 -0.0930  1.1484
14942SOL    HW246759   6.416   1.679   5.132 -0.4245  0.4295  1.6596
14943SOL     OW46760   5.541   4.180   6.831 -0.1473 -0.1131 -0.3556
14943SOL    HW146761   5.613   4.137   6.785  1.1964  1.0686  0.6033
14943SOL    HW246762   5.516   4.253   6.773 -0.1865 -0.1710 -0.4118
14944SOL     OW46763   1.381   3.090   4.490  0.2483  0.3388  0.0785
14944SOL    HW146764   1.410   3.026   4.555  0.2087  1.1075  0.8752
14944SOL    HW246765   1.286   3.097   4.504  0.1946  0.2956 -0.2560
14945SOL     OW46766   6.317   5.908   1.514  0.2857 -0.2905 -0.3615
14945SOL    HW146767   6.394   5.938   1.465  0.2799  5.2918  2.2531
14945SOL    HW246768   6.243   5.929   1.456  0.5188  1.6861 -0.0310
14946SOL     OW46769   3.203   5.203   0.987  0.1039  0.1604  0.3403
14946SOL    HW146770   3.250   5.286   0.977  0.5439 -0.0445  0.6870
14946SOL    HW246771   3.113   5.229   1.006  0.1328  0.5572 -0.0485
14947SOL     OW46772   6.216   8.624   2.339  0.5589 -0.1925  0.8717
14947SOL    HW146773   6.199   8.716   2.319 -0.2649  0.0338  2.3898
14947SOL    HW246774   6.306   8.623   2.372  0.5083  0.1082  1.0276
14948SOL     OW46775   5.643   3.060   8.581 -0.7431  0.3661 -0.0234
14948SOL    HW146776   5.629   3.135   8.524 -0.5884  0.5541  0.1840
14948SOL    HW246777   5.679   2.992   8.524 -1.9620  0.0564 -0.4486
14949SOL     OW46778   5.671   6.595   1.726 -0.0476  0.7188 -0.0821
14949SOL    HW146779   5.689   6.687   1.706  2.0620  0.2326 -0.6853
14949SOL    HW246780   5.654   6.555   1.641 -0.2418  0.4179  0.0983
14950SOL     OW46781   4.789   3.259   4.534  0.5440 -0.0146 -0.2414
14950SOL    HW146782   4.697   3.284   4.534  0.6949  0.5451 -0.1140
14950SOL    HW246783   4.813   3.252   4.442  0.3401 -0.3027 -0.2738
14951SOL     OW46784   8.673   2.762   3.154  0.2570 -0.5333  0.3151
14951SOL    HW146785   8.591   2.761   3.104  2.0284  0.2348 -2.8631
14951SOL    HW246786   8.667   2.842   3.208 -1.1461 -0.6068  0.3053
14952SOL     OW46787   4.617   7.618   8.813  0.0165 -0.3196 -0.5976
14952SOL    HW146788   4.636   7.664   8.895  0.1272 -0.9542 -0.2528
14952SOL    HW246789   4.663   7.534   8.822 -0.6673 -0.7418 -0.9479
14953SOL     OW46790   0.930   2.116   7.278  0.2062  0.8696  0.4773
14953SOL    HW146791   0.889   2.071   7.204 -1.0163  0.2766  1.4814
14953SOL    HW246792   1.024   2.100   7.266 -0.0285  0.0860 -0.4910
14954SOL     OW46793   8.155   8.698   1.011  0.0324 -0.0074  0.4040
14954SOL    HW146794   8.223   8.744   0.963  0.8177  0.1966  1.6754
14954SOL    HW246795   8.088   8.764   1.028  0.8831  0.5565  1.7045
14955SOL     OW46796   4.426   4.417   2.637  0.4976  0.2762 -0.6610
14955SOL    HW146797   4.340   4.440   2.673  0.1375 -0.0134 -1.3079
14955SOL    HW246798   4.488   4.442   2.705 -0.0451  1.1263 -0.4508
14956SOL     OW46799   2.276   7.680   8.849  0.5580  0.6941  0.0838
14956SOL    HW146800   2.367   7.706   8.841  0.7498  0.0917  0.3055
14956SOL    HW246801   2.231   7.759   8.879  1.1828  0.7025  1.0509
14957SOL     OW46802   5.437   7.712   4.209 -0.0891 -0.2641 -0.6016
14957SOL    HW146803   5.400   7.797   4.231 -0.7104 -0.1271 -2.0773
14957SOL    HW246804   5.530   7.720   4.231 -0.5669 -0.0725  1.6033
14958SOL     OW46805   8.481   7.244   4.887 -0.1012  0.3825 -0.0598
14958SOL    HW146806   8.540   7.317   4.902 -0.5832  0.8695 -0.5036
14958SOL    HW246807   8.413   7.279   4.829 -0.3334 -0.4135 -0.2865
14959SOL     OW46808   3.974   5.857   0.686 -0.2088  0.2549  0.1215
14959SOL    HW146809   3.928   5.937   0.711  1.1864  0.4068  2.5697
14959SOL    HW246810   4.000   5.870   0.595 -0.9153  2.1403  0.1647
14960SOL     OW46811   5.107   2.474   6.230  0.1013 -0.2439  0.4873
14960SOL    HW146812   5.131   2.399   6.284  2.9478  1.9245  2.5623
14960SOL    HW246813   5.064   2.535   6.290  1.6865  1.4995 -0.0486
14961SOL     OW46814   0.852   2.742   5.684 -0.4369 -0.3576  0.3420
14961SOL    HW146815   0.922   2.774   5.627  0.3076 -0.4413  1.1799
14961SOL    HW246816   0.814   2.821   5.722 -2.5570 -0.1182 -2.0423
14962SOL     OW46817   7.207   3.585   4.753  0.5772 -0.1015 -0.3128
14962SOL    HW146818   7.178   3.524   4.686  0.6825  0.3738 -0.7989
14962SOL    HW246819   7.256   3.652   4.705  1.0167  0.0164  0.2886
14963SOL     OW46820   7.555   4.914   8.860 -0.0254 -0.2444 -0.2729
14963SOL    HW146821   7.519   4.826   8.849 -0.4211 -0.0471 -0.5788
14963SOL    HW246822   7.624   4.920   8.794 -0.6711  0.0260 -0.9376
14964SOL     OW46823   7.207   1.000   4.335  0.0475  0.1069  0.1444
14964SOL    HW146824   7.208   0.982   4.429 -1.0919  1.6990  0.4953
14964SOL    HW246825   7.114   1.003   4.312  0.2902 -1.6393 -1.3532
14965SOL     OW46826   7.578   3.824   3.828 -0.3013 -0.3438 -0.0419
14965SOL    HW146827   7.624   3.844   3.746 -1.7788  1.9893 -0.3973
14965SOL    HW246828   7.577   3.907   3.875 -1.3218 -1.1445  1.4116
14966SOL     OW46829   8.643   1.404   6.875  0.7058 -0.0041  0.3221
14966SOL    HW146830   8.730   1.373   6.898  1.2228  1.1346 -0.0531
14966SOL    HW246831   8.647   1.422   6.781  0.9902  2.8205  0.7896
14967SOL     OW46832   4.279   5.864   5.148 -0.2487 -0.0073  0.6704
14967SOL    HW146833   4.303   5.951   5.180 -1.7070 -0.3927  3.1205
14967SOL    HW246834   4.217   5.880   5.077  1.0978  0.9101 -0.3448
14968SOL     OW46835   8.708   1.464   3.431 -0.5962 -0.3645  0.0118
14968SOL    HW146836   8.618   1.458   3.463 -0.6409  0.6160  0.1123
14968SOL    HW246837   8.703   1.525   3.357  0.2552  1.2850  1.2285
14969SOL     OW46838   6.725   1.953   7.501  0.5383 -0.0802  0.2176
14969SOL    HW146839   6.710   2.046   7.514  0.5023 -0.1273  0.5205
14969SOL    HW246840   6.671   1.911   7.568 -1.9245 -0.4392 -1.8083
14970SOL     OW46841   8.871   2.183   5.025 -0.8660 -0.0580  0.2262
14970SOL    HW146842   8.810   2.203   4.954  0.1826  0.6862 -0.4897
14970SOL    HW246843   8.922   2.263   5.036  1.0163 -1.1342 -0.2370
14971SOL     OW46844   7.023   3.285   1.687 -0.3858 -0.0466 -0.3412
14971SOL    HW146845   6.962   3.212   1.683 -0.1565 -0.1870 -2.1582
14971SOL    HW246846   7.107   3.245   1.706 -0.5775 -0.0101  0.6636
14972SOL     OW46847   1.428   0.084   5.007 -0.6565  0.2350  0.2385
14972SOL    HW146848   1.516   0.099   4.973 -0.5396  1.0306  0.8653
14972SOL    HW246849   1.372   0.145   4.959 -0.9722 -0.6493 -0.5480
14973SOL     OW46850   8.227   5.409   1.781 -0.3021 -0.0817  0.5192
14973SOL    HW146851   8.268   5.329   1.812  1.0870  0.2680 -0.3098
14973SOL    HW246852   8.289   5.479   1.805 -1.4375  0.7472  1.1452
14974SOL     OW46853   7.795   6.942   7.710  0.0509 -0.2011  0.3122
14974SOL    HW146854   7.841   6.989   7.640  1.1060 -0.5753  0.7363
14974SOL    HW246855   7.749   7.010   7.759  0.1309  0.1812 -0.1354
14975SOL     OW46856   0.920   4.620   3.170 -0.6074 -0.0414 -0.2326
14975SOL    HW146857   0.859   4.656   3.234 -2.2539 -2.0528 -0.5660
14975SOL    HW246858   0.928   4.689   3.103 -0.7156  1.1331  0.9198
14976SOL     OW46859   3.197   0.141   5.278 -0.7166  0.1637  0.2948
14976SOL    HW146860   3.245   0.223   5.290  0.7243 -0.7416  1.0065
14976SOL    HW246861   3.141   0.134   5.356 -2.3959  1.4124 -0.7209
14977SOL     OW46862   7.472   4.339   7.255 -0.0565  0.3572  0.1869
14977SOL    HW146863   7.378   4.346   7.240 -0.3870  3.0664  2.6981
14977SOL    HW246864   7.511   4.348   7.168 -2.0697  1.3756 -0.6696
14978SOL     OW46865   7.416   5.586   5.837 -0.1160 -0.1070  0.4589
14978SOL    HW146866   7.408   5.608   5.930  0.5917  0.8588  0.3029
14978SOL    HW246867   7.338   5.533   5.818 -1.0781  0.9699  1.2382
14979SOL     OW46868   6.683   3.385   7.147  0.0063 -0.1975  0.1239
14979SOL    HW146869   6.604   3.432   7.173  0.7338  0.4461  1.2629
14979SOL    HW246870   6.755   3.432   7.190  0.9693 -1.0250 -0.5196
14980SOL     OW46871   5.365   7.216   6.737 -0.1448 -0.4168  0.2006
14980SOL    HW146872   5.398   7.294   6.782 -0.9991  0.2132 -0.2242
14980SOL    HW246873   5.372   7.146   6.801  1.8950 -0.3144  0.1613
14981SOL     OW46874   6.497   5.699   0.688  0.5835  0.0137  0.1297
14981SOL    HW146875   6.464   5.662   0.606  0.9374 -0.4599  0.1959
14981SOL    HW246876   6.502   5.793   0.672  0.0113 -0.0021 -0.1639
14982SOL     OW46877   8.543   1.732   6.692  0.0861 -0.0745  0.3441
14982SOL    HW146878   8.602   1.773   6.756  0.0057  0.7777 -0.1110
14982SOL    HW246879   8.512   1.805   6.639 -2.0209 -0.3972  1.0651
14983SOL     OW46880   0.161   7.408   6.827 -0.2042 -0.1351 -0.1946
14983SOL    HW146881   0.219   7.408   6.903 -1.1140  1.9863  0.6054
14983SOL    HW246882   0.165   7.498   6.794 -1.0349 -0.6201 -1.7157
14984SOL     OW46883   7.283   4.859   0.445  0.3860  0.0140 -0.3024
14984SOL    HW146884   7.215   4.864   0.511 -0.6741 -3.0820 -0.9600
14984SOL    HW246885   7.363   4.884   0.490 -0.7877  1.2554  1.1853
14985SOL     OW46886   3.328   0.064   0.910 -0.0529 -0.0004  0.3600
14985SOL    HW146887   3.351   0.086   1.000  0.7704 -2.4041  0.8151
14985SOL    HW246888   3.296  -0.027   0.915  1.1768 -0.6395 -1.9148
14986SOL     OW46889   6.053   1.490   3.297  0.5969 -0.3735 -0.1332
14986SOL    HW146890   6.105   1.503   3.376  2.4104  1.1112 -1.4747
14986SOL    HW246891   6.040   1.578   3.262  1.3968 -1.0732 -2.3937
14987SOL     OW46892   1.918   7.747   1.885 -0.2032  0.2607  0.4485
14987SOL    HW146893   1.822   7.747   1.885 -0.2596 -0.5728  2.2277
14987SOL    HW246894   1.941   7.730   1.976  1.6480  0.2637  0.0157
14988SOL     OW46895   2.520   4.699   6.443 -0.1661 -0.0286  0.6868
14988SOL    HW146896   2.425   4.697   6.430 -0.0234 -0.4457 -0.4961
14988SOL    HW246897   2.545   4.606   6.448  0.0889  0.0961  1.8076
14989SOL     OW46898   6.790   2.980   6.592 -0.2637  0.2978  0.2375
14989SOL    HW146899   6.878   2.967   6.555 -0.3498 -1.2641  0.5449
14989SOL    HW246900   6.756   2.892   6.606 -2.9883  0.7797 -2.4116
14990SOL     OW46901   2.846   1.998   0.112 -0.0858 -0.0598  0.2795
14990SOL    HW146902   2.897   2.004   0.031  1.1961 -0.8705  0.9961
14990SOL    HW246903   2.798   1.916   0.103 -0.1500 -0.0168  0.2277
14991SOL     OW46904   0.589   8.735   2.627  0.0205  0.1751 -0.2002
14991SOL    HW146905   0.566   8.737   2.534 -0.0078 -1.8547 -0.2696
14991SOL    HW246906   0.512   8.769   2.672  0.0413  1.1964 -0.8997
14992SOL     OW46907   5.228   3.792   4.028 -0.2518  0.1507 -0.3856
14992SOL    HW146908   5.172   3.863   3.997 -0.4151  0.8482  1.4032
14992SOL    HW246909   5.169   3.717   4.036  0.2572 -0.8780 -4.0869
14993SOL     OW46910   1.343   3.188   7.222  0.6871 -0.1335 -0.3193
14993SOL    HW146911   1.375   3.132   7.292  0.9454  1.6751  1.0731
14993SOL    HW246912   1.402   3.263   7.222  0.5816  0.0147 -2.3794
14994SOL     OW46913   7.648   3.754   2.824  0.0003 -0.3421 -0.5996
14994SOL    HW146914   7.721   3.698   2.797  2.1448  0.2298  3.3019
14994SOL    HW246915   7.684   3.843   2.823 -0.9064  0.0678  0.5114
14995SOL     OW46916   5.072   8.674   6.998  0.4939  0.7774  0.2171
14995SOL    HW146917   4.986   8.631   6.995  0.5437  0.4651  1.9241
14995SOL    HW246918   5.074   8.715   7.085  1.6363  1.7291 -0.2420
14996SOL     OW46919   8.087   1.372   7.466 -0.0623 -0.0403  0.3771
14996SOL    HW146920   8.169   1.398   7.508  0.4446  1.5552 -1.4040
14996SOL    HW246921   8.113   1.306   7.401  0.1409  1.5050 -1.2046
14997SOL     OW46922   1.115   3.335   7.322 -0.7765  0.3476  0.2848
14997SOL    HW146923   1.082   3.387   7.249 -0.4258 -0.1764 -0.2521
14997SOL    HW246924   1.199   3.301   7.292 -0.4336  0.4566  1.0883
14998SOL     OW46925   4.256   0.300   7.207  0.0059 -0.1183  0.4009
14998SOL    HW146926   4.206   0.238   7.260 -0.5007  0.2294  0.3422
14998SOL    HW246927   4.346   0.292   7.238 -0.2346 -0.1300  1.1126
14999SOL     OW46928   1.756   6.162   3.994 -0.6035 -0.4161 -0.1229
14999SOL    HW146929   1.694   6.114   4.050 -0.8408  0.2737  0.2221
14999SOL    HW246930   1.707   6.239   3.966 -0.2618 -0.4253 -0.7549
15000SOL     OW46931   8.056   8.111   5.427  0.6412  0.4109 -0.2098
15000SOL    HW146932   8.087   8.094   5.516 -0.7083  0.0124  0.2165
15000SOL    HW246933   7.961   8.095   5.432  0.5732  0.2220 -1.7591
15001SOL     OW46934   6.055   6.956   1.086 -0.2307 -0.1825 -0.2532
15001SOL    HW146935   6.118   6.888   1.108  0.4898  0.9049  1.2136
15001SOL    HW246936   6.105   7.037   1.086 -1.5299  0.6670  0.5905
15002SOL     OW46937   1.665   1.973   7.440 -0.1703 -0.0770 -0.4245
15002SOL    HW146938   1.633   1.985   7.350  0.7502  2.5748 -0.5076
15002SOL    HW246939   1.595   2.007   7.495 -0.1100 -0.2485 -0.2450
15003SOL     OW46940   4.033   2.925   7.624 -0.5097 -0.1284  0.0084
15003SOL    HW146941   4.115   2.876   7.627  0.1022  0.7592 -1.4659
15003SOL    HW246942   4.052   3.008   7.668 -0.7040 -0.0205 -0.1105
15004SOL     OW46943   6.946   1.170   7.165 -0.3028 -0.3354 -0.5334
15004SOL    HW146944   7.010   1.105   7.138  0.3190 -0.2524  0.6582
15004SOL    HW246945   6.984   1.254   7.137 -0.1143 -0.3258 -0.2541
15005SOL     OW46946   0.507   8.604   6.998 -0.3773 -1.1799 -0.3218
15005SOL    HW146947   0.429   8.556   6.969 -0.7793 -0.8411  0.1993
15005SOL    HW246948   0.534   8.654   6.921 -1.3715 -0.3727 -0.1536
15006SOL     OW46949   1.728   3.031   1.351 -0.2171  0.1077 -0.2623
15006SOL    HW146950   1.644   3.060   1.316 -1.1654 -0.3239  1.5339
15006SOL    HW246951   1.786   3.105   1.338 -0.4296 -0.0891 -2.8522
15007SOL     OW46952   1.048   3.771   8.619 -0.3247 -0.2539 -0.4313
15007SOL    HW146953   1.005   3.817   8.692  0.9496 -0.3200  0.3790
15007SOL    HW246954   1.107   3.708   8.661  0.8934  0.1345 -1.5027
15008SOL     OW46955   2.365   0.218   2.389  0.2537  0.3302 -0.6626
15008SOL    HW146956   2.280   0.175   2.401 -0.3662  1.4434 -0.9022
15008SOL    HW246957   2.371   0.279   2.462  1.1148 -0.1380 -0.3333
15009SOL     OW46958   1.550   1.387   4.981  0.2039 -0.4291 -0.4125
15009SOL    HW146959   1.569   1.316   4.920 -0.7667 -1.6705  0.6552
15009SOL    HW246960   1.576   1.466   4.935 -0.0571 -1.3513 -2.2492
15010SOL     OW46961   1.972   7.656   1.398  0.4884 -0.0068  0.3507
15010SOL    HW146962   1.938   7.683   1.483 -0.7188 -2.1736  0.6476
15010SOL    HW246963   2.066   7.675   1.402 -0.0337  2.8706  0.8780
15011SOL     OW46964   8.086   3.238   0.267  0.4433 -0.4780 -0.2404
15011SOL    HW146965   8.034   3.160   0.286 -0.9177  0.3242 -0.4745
15011SOL    HW246966   8.103   3.277   0.353 -1.8540  0.7652 -0.2763
15012SOL     OW46967   1.592   3.538   3.660  0.2465 -0.3258  0.4338
15012SOL    HW146968   1.685   3.528   3.680  0.5082  1.1344  0.0416
15012SOL    HW246969   1.553   3.574   3.739  0.2315  0.1158  0.2297
15013SOL     OW46970   5.761   4.513   6.478  0.0622 -0.3508  0.2737
15013SOL    HW146971   5.820   4.477   6.544 -2.2390 -0.8057  2.2257
15013SOL    HW246972   5.719   4.436   6.439 -0.5603  0.0246  0.1929
15014SOL     OW46973   8.221   1.366   3.932  0.5096 -0.3575  0.2904
15014SOL    HW146974   8.247   1.444   3.981 -2.6620  0.7248  0.4632
15014SOL    HW246975   8.216   1.297   3.998 -1.2404  0.4745  1.0795
15015SOL     OW46976   5.560   4.166   1.972  0.4511 -0.0450  0.3619
15015SOL    HW146977   5.518   4.157   2.058  0.5332  1.4942  0.5794
15015SOL    HW246978   5.653   4.173   1.991  0.5914 -0.9284  0.0468
15016SOL     OW46979   4.300   2.259   8.177  0.9343 -0.0693 -0.3428
15016SOL    HW146980   4.386   2.276   8.138  1.5096 -2.1887 -0.1242
15016SOL    HW246981   4.264   2.187   8.124 -0.7915  0.8832 -0.5252
15017SOL     OW46982   7.878   0.557   6.445 -0.2159 -0.5637  0.1301
15017SOL    HW146983   7.927   0.533   6.524 -2.4448 -2.2102  1.1215
15017SOL    HW246984   7.805   0.611   6.478  0.4143  1.1941 -1.1977
15018SOL     OW46985   6.305   7.834   1.384 -0.3243  0.0844  0.2230
15018SOL    HW146986   6.266   7.750   1.362  1.8030 -1.3696  1.7046
15018SOL    HW246987   6.297   7.886   1.303 -1.0399 -1.7608 -0.9578
15019SOL     OW46988   4.356   4.554   3.708  0.1588 -0.0703  0.6701
15019SOL    HW146989   4.332   4.639   3.746  0.2681  0.1514  0.2505
15019SOL    HW246990   4.382   4.575   3.619 -0.2220 -0.6037  0.4319
15020SOL     OW46991   2.208   8.474   3.764  0.0630  0.4281 -0.4450
15020SOL    HW146992   2.263   8.522   3.702 -0.1452  0.1957 -0.8200
15020SOL    HW246993   2.227   8.381   3.746  0.4019  0.3699  0.2146
15021SOL     OW46994   1.073   0.488   2.918  0.2049  0.0062  0.0407
15021SOL    HW146995   1.138   0.529   2.860  1.6571  1.6990  2.6715
15021SOL    HW246996   1.121   0.418   2.962 -0.2554  0.1585  0.7919
15022SOL     OW46997   6.512   5.252   2.686  0.2906  0.1496  0.1989
15022SOL    HW146998   6.523   5.205   2.604  0.2587 -2.3262  1.4960
15022SOL    HW246999   6.598   5.247   2.728  0.2893  1.3248  0.3786
15023SOL     OW47000   6.782   8.293   8.679 -0.3871 -0.1701 -0.1382
15023SOL    HW147001   6.773   8.211   8.726 -1.1503 -0.6911 -1.1437
15023SOL    HW247002   6.693   8.328   8.674 -0.0886  0.6600  0.1764
15024SOL     OW47003   2.961   6.230   3.554 -0.0248 -0.0174  0.2829
15024SOL    HW147004   3.006   6.201   3.474 -1.6488  1.7981 -1.3618
15024SOL    HW247005   2.901   6.158   3.574 -0.4563  0.0042 -0.8448
15025SOL     OW47006   8.866   0.690   3.060 -0.4590  0.6292  0.5292
15025SOL    HW147007   8.814   0.635   3.002  0.5114 -0.4531  0.6321
15025SOL    HW247008   8.906   0.628   3.122  0.6133  1.4513  0.6972
15026SOL     OW47009   6.982   7.385   3.868  0.3353  0.4785 -0.1691
15026SOL    HW147010   7.043   7.456   3.888 -0.7282  0.7481  2.4169
15026SOL    HW247011   6.925   7.380   3.944 -1.3623 -1.3682 -1.4685
15027SOL     OW47012   7.289   2.563   5.100 -0.3659  0.2088  0.2455
15027SOL    HW147013   7.312   2.479   5.060  1.1517  1.7286 -2.4335
15027SOL    HW247014   7.200   2.580   5.070 -0.8991 -0.6514  1.2782
15028SOL     OW47015   7.615   8.854   5.442 -0.2755 -0.2208 -0.1481
15028SOL    HW147016   7.617   8.760   5.462 -0.7282 -0.8442 -2.7629
15028SOL    HW247017   7.535   8.866   5.391 -0.3576  1.6633  0.3704
15029SOL     OW47018   0.608   3.652   5.103  0.1297 -0.1873 -0.1754
15029SOL    HW147019   0.609   3.564   5.066 -0.3083  0.1971 -1.1398
15029SOL    HW247020   0.648   3.643   5.189 -1.1765 -1.5822  0.3238
15030SOL     OW47021   8.620   7.669   1.019  0.1419  0.5650  0.2098
15030SOL    HW147022   8.655   7.641   1.103 -0.6656  0.0886  0.4011
15030SOL    HW247023   8.530   7.636   1.018  0.5376 -0.6118 -1.3913
15031SOL     OW47024   2.293   1.629   4.917  0.0067 -0.0169  0.7261
15031SOL    HW147025   2.359   1.686   4.879  0.9356 -1.2074  0.5226
15031SOL    HW247026   2.223   1.625   4.851  0.6791 -0.4210  0.0287
15032SOL     OW47027   3.546   8.854   0.325  0.5818 -0.5272  0.0629
15032SOL    HW147028   3.607   8.831   0.255  0.9091 -1.8651  0.7482
15032SOL    HW247029   3.489   8.777   0.332  0.1860 -0.1651  0.8729
15033SOL     OW47030   0.647   6.460   3.992  0.1451 -0.0479  0.3988
15033SOL    HW147031   0.637   6.477   3.898  2.0413 -0.7751  0.0167
15033SOL    HW247032   0.558   6.446   4.023 -0.5450  0.3626 -1.2595
15034SOL     OW47033   5.360   2.808   5.225 -0.4231 -0.2903  0.3867
15034SOL    HW147034   5.418   2.820   5.150  0.7724 -0.9945  1.1685
15034SOL    HW247035   5.272   2.800   5.187  0.1693 -0.7019 -0.9361
15035SOL     OW47036   3.766   0.615   7.487  0.5877 -0.5356 -0.1799
15035SOL    HW147037   3.735   0.700   7.455 -0.6558 -0.0253  2.1447
15035SOL    HW247038   3.762   0.557   7.410 -3.1808  0.3271 -0.8465
15036SOL     OW47039   7.348   8.092   3.320  0.3745  0.1742  0.7808
15036SOL    HW147040   7.442   8.105   3.334  0.4389  1.8415 -0.8773
15036SOL    HW247041   7.309   8.179   3.334 -0.7472 -0.1964  0.1148
15037SOL     OW47042   6.850   2.696   4.075  0.0220 -0.1907  0.8876
15037SOL    HW147043   6.937   2.700   4.115 -0.1465  0.3929  1.2116
15037SOL    HW247044   6.841   2.780   4.029 -0.1307 -0.4992  0.3416
15038SOL     OW47045   7.705   4.739   0.983  0.0241  0.8010 -0.4899
15038SOL    HW147046   7.782   4.750   1.038  1.5212  0.6808 -2.4618
15038SOL    HW247047   7.701   4.819   0.931 -1.6544  1.1322  0.0766
15039SOL     OW47048   4.197   0.682   0.199 -0.0303  0.5012 -0.1947
15039SOL    HW147049   4.265   0.617   0.179  1.9378  1.8889  1.5812
15039SOL    HW247050   4.160   0.652   0.283 -2.3739 -0.7407 -1.5617
15040SOL     OW47051   0.625   3.388   5.760 -0.8047 -0.7573 -0.0092
15040SOL    HW147052   0.540   3.423   5.784 -0.4245 -0.2188  0.5678
15040SOL    HW247053   0.628   3.301   5.801 -0.6666 -0.3536  0.8600
15041SOL     OW47054   3.821   7.608   7.630 -0.2983  0.3217 -0.7015
15041SOL    HW147055   3.855   7.557   7.704 -0.0905  1.2350 -0.1605
15041SOL    HW247056   3.763   7.672   7.669 -0.5430  0.5194 -1.3807
15042SOL     OW47057   8.632   7.772   8.639 -0.1630 -0.0062 -0.4017
15042SOL    HW147058   8.722   7.741   8.627 -0.0390  0.5104 -0.8186
15042SOL    HW247059   8.603   7.795   8.551 -0.4922  0.4109 -0.1880
15043SOL     OW47060   0.959   6.623   1.537  0.2515 -0.6248 -0.8281
15043SOL    HW147061   1.043   6.577   1.541  0.8533  0.5314  0.1427
15043SOL    HW247062   0.906   6.570   1.477  1.1717 -2.1570 -0.3383
15044SOL     OW47063   2.657   2.722   4.384 -0.3640 -0.4610 -0.1458
15044SOL    HW147064   2.706   2.648   4.420 -0.2298 -0.1034  0.4130
15044SOL    HW247065   2.583   2.681   4.338 -0.9171 -0.9180  1.0941
15045SOL     OW47066   7.034   1.372   2.707 -0.1707 -0.3373  0.0635
15045SOL    HW147067   6.979   1.426   2.650  0.8616 -0.3685 -0.9881
15045SOL    HW247068   6.975   1.303   2.738 -1.2357  0.7754  0.5860
15046SOL     OW47069   8.231   4.759   4.155 -0.7475  0.2848  0.9513
15046SOL    HW147070   8.160   4.763   4.090  1.1702 -0.1152 -1.2880
15046SOL    HW247071   8.190   4.718   4.231 -2.8962 -0.0596 -0.2845
15047SOL     OW47072   0.857   0.156   1.913  0.1662 -0.5888 -0.3581
15047SOL    HW147073   0.879   0.202   1.832  0.4695  0.8537  0.5068
15047SOL    HW247074   0.931   0.098   1.928  0.7581  0.1357 -0.4158
15048SOL     OW47075   0.440   2.006   4.081  0.3367 -0.0858  0.0248
15048SOL    HW147076   0.525   1.966   4.102  0.3631 -0.2557 -0.3999
15048SOL    HW247077   0.400   1.946   4.018  0.0529  0.1783 -0.0479
15049SOL     OW47078   6.566   2.791   4.347 -1.0799  0.2929  0.2538
15049SOL    HW147079   6.481   2.810   4.386 -0.8713 -0.7787  1.2952
15049SOL    HW247080   6.586   2.701   4.374  0.0017  0.2167 -0.6794
15050SOL     OW47081   0.193   1.205   0.499  0.5819 -0.0212 -0.5437
15050SOL    HW147082   0.135   1.279   0.519 -2.0015 -1.9536 -0.4644
15050SOL    HW247083   0.187   1.195   0.404  0.5325 -0.4055 -0.5028
15051SOL     OW47084   7.366   5.082   6.830 -0.1583 -0.0903 -0.3888
15051SOL    HW147085   7.406   5.142   6.767  0.1734  0.2411  0.1327
15051SOL    HW247086   7.277   5.116   6.842  0.1689  0.5654  0.2402
15052SOL     OW47087   3.183   7.032   7.817 -0.2151 -0.6342 -0.6295
15052SOL    HW147088   3.254   7.062   7.873  0.3026  1.1020 -2.1348
15052SOL    HW247089   3.226   7.003   7.737 -1.1521 -0.1367 -1.3271
15053SOL     OW47090   7.064   0.919   7.100 -0.6885 -0.9901  0.9537
15053SOL    HW147091   7.082   0.837   7.145 -0.0828 -0.5837  1.4712
15053SOL    HW247092   7.132   0.926   7.033  0.5423  0.0842  2.2797
15054SOL     OW47093   4.938   1.753   8.025 -0.6748  0.0721 -0.1813
15054SOL    HW147094   4.916   1.664   7.998 -0.4155 -0.1631  0.3545
15054SOL    HW247095   5.002   1.741   8.095  0.9993  0.7237 -1.5305
15055SOL     OW47096   3.523   3.810   0.840 -0.3957 -0.0484 -0.1552
15055SOL    HW147097   3.452   3.783   0.897 -1.1954 -0.2983 -1.2338
15055SOL    HW247098   3.487   3.882   0.789  0.5229  0.6195  0.1137
15056SOL     OW47099   7.695   3.921   6.586 -0.0325 -0.2557  0.6785
15056SOL    HW147100   7.631   3.851   6.577 -1.1554  0.8777 -0.4933
15056SOL    HW247101   7.644   4.002   6.578  1.5594  0.6891 -0.6093
15057SOL     OW47102   0.245   0.519   0.563  0.3873  0.0544 -0.3880
15057SOL    HW147103   0.181   0.496   0.631 -0.1165  0.2092 -0.8078
15057SOL    HW247104   0.308   0.446   0.563  0.3237 -0.0033  0.1593
15058SOL     OW47105   6.573   7.294   7.906  0.2806 -0.0788 -0.1677
15058SOL    HW147106   6.497   7.300   7.848 -0.0054 -0.5156  0.1522
15058SOL    HW247107   6.645   7.331   7.855  0.0205 -0.3956 -0.7823
15059SOL     OW47108   0.990   8.098   1.343  0.7109 -0.1443  0.0145
15059SOL    HW147109   0.906   8.142   1.353  1.1592  0.3491  1.8670
15059SOL    HW247110   1.053   8.168   1.330  0.8739 -0.5146 -1.4022
15060SOL     OW47111   8.714   5.143   7.476 -0.0739  0.1983  0.2385
15060SOL    HW147112   8.801   5.165   7.510 -0.3703  0.0119  1.1262
15060SOL    HW247113   8.726   5.138   7.381  0.4360  2.3113  0.1357
15061SOL     OW47114   2.291   0.596   7.045 -0.5963  0.0635 -0.5089
15061SOL    HW147115   2.274   0.556   7.130  0.6537  0.6244  0.0274
15061SOL    HW247116   2.204   0.618   7.011 -1.0979  0.1169  0.7671
15062SOL     OW47117   0.135   7.853   0.971  0.4538  0.1526  0.1497
15062SOL    HW147118   0.047   7.864   0.937  0.5526  0.3745 -0.0380
15062SOL    HW247119   0.162   7.766   0.941  0.0088 -0.2439  0.8672
15063SOL     OW47120   1.963   7.006   2.893  0.5180 -0.6243  0.3967
15063SOL    HW147121   1.947   6.912   2.882 -2.5579 -0.1620 -0.0798
15063SOL    HW247122   1.883   7.039   2.935  0.7279  2.0279 -1.0496
15064SOL     OW47123   2.429   4.113   6.936  0.2266  0.1806 -0.5112
15064SOL    HW147124   2.415   4.022   6.910  0.4080  0.2622 -0.9058
15064SOL    HW247125   2.347   4.140   6.977  0.5828 -0.5484  0.7618
15065SOL     OW47126   8.803   6.090   6.657  0.5265 -0.6204  0.0974
15065SOL    HW147127   8.798   6.007   6.611 -2.7634 -0.1409 -0.6854
15065SOL    HW247128   8.771   6.070   6.745 -1.0141 -0.1378 -0.3126
15066SOL     OW47129   8.160   3.835   2.210 -0.1827 -0.1952 -0.9274
15066SOL    HW147130   8.088   3.884   2.250  1.6625  1.6545  0.3287
15066SOL    HW247131   8.168   3.757   2.265  0.7723  1.1598  0.9678
15067SOL     OW47132   7.036   5.666   8.182 -0.0157 -0.6012 -0.7858
15067SOL    HW147133   6.987   5.632   8.257 -0.2457  0.7414 -0.2822
15067SOL    HW247134   7.117   5.700   8.220 -0.6048  1.0770 -0.9418
15068SOL     OW47135   5.020   5.035   0.409 -0.5478 -0.1306 -0.0289
15068SOL    HW147136   5.027   5.094   0.333 -0.5511 -0.5776 -0.3789
15068SOL    HW247137   5.062   4.954   0.380 -0.0070 -0.1057  0.6601
15069SOL     OW47138   8.314   8.807   7.618 -0.1155  0.1183 -0.2096
15069SOL    HW147139   8.397   8.808   7.570 -0.7079 -1.1398 -1.3357
15069SOL    HW247140   8.332   8.756   7.697 -0.0322 -1.0069 -0.9325
15070SOL     OW47141   1.093   2.488   7.487 -0.3611  0.4608  0.0843
15070SOL    HW147142   1.132   2.527   7.408 -1.4894  1.5470  0.0413
15070SOL    HW247143   1.054   2.562   7.533 -2.6169 -0.6087 -0.0153
15071SOL     OW47144   6.611   7.351   0.875  0.2800 -0.1623  0.2504
15071SOL    HW147145   6.533   7.297   0.862  0.1525  0.1354 -0.2401
15071SOL    HW247146   6.647   7.322   0.959 -1.6137  1.2542  1.6439
15072SOL     OW47147   3.817   3.580   2.757 -0.1659 -0.0171 -0.2766
15072SOL    HW147148   3.857   3.666   2.764  0.6889 -0.3544 -0.7643
15072SOL    HW247149   3.833   3.539   2.842  0.9931 -0.3220 -0.6148
15073SOL     OW47150   5.292   8.392   7.438  0.0734 -0.0354  0.5639
15073SOL    HW147151   5.202   8.390   7.405  0.3640  0.4128 -0.2889
15073SOL    HW247152   5.346   8.376   7.361  0.7388 -0.0793  1.0303
15074SOL     OW47153   8.328   0.770   8.289  0.5205 -0.3065 -0.1425
15074SOL    HW147154   8.378   0.795   8.367  0.9954  0.5394 -0.7140
15074SOL    HW247155   8.272   0.845   8.271 -1.0209 -1.2328  0.4981
15075SOL     OW47156   1.152   1.965   4.115 -0.3821  0.3736  0.3759
15075SOL    HW147157   1.204   2.031   4.162 -0.1624  0.1860  0.4002
15075SOL    HW247158   1.065   2.004   4.107 -0.4100  0.4333  0.8950
15076SOL     OW47159   2.462   0.094   3.986  0.1585 -0.4204 -0.2479
15076SOL    HW147160   2.527   0.124   4.049  1.0417 -1.1426 -0.7906
15076SOL    HW247161   2.510   0.035   3.928 -0.5840  0.3590 -1.7215
15077SOL     OW47162   2.085   2.675   8.724  0.2724  0.3676  0.3007
15077SOL    HW147163   2.081   2.730   8.645  0.8018 -1.3109 -0.9398
15077SOL    HW247164   2.008   2.619   8.718  0.6127 -0.1487  0.6816
15078SOL     OW47165   7.639   8.598   5.635  0.2867 -0.1998  0.4936
15078SOL    HW147166   7.604   8.630   5.718  0.4772 -1.6742  1.1834
15078SOL    HW247167   7.617   8.505   5.635  0.0282 -0.1713 -1.2601
15079SOL     OW47168   7.972   0.595   4.867 -0.4622  0.3727 -0.1194
15079SOL    HW147169   7.914   0.523   4.842  0.2177  0.3060 -1.6050
15079SOL    HW247170   8.058   0.568   4.836 -0.0515  1.4834  0.0221
15080SOL     OW47171   4.191   6.016   3.855  0.1002  0.0136 -0.2238
15080SOL    HW147172   4.161   6.039   3.943  0.6731 -0.5232  0.1248
15080SOL    HW247173   4.158   6.086   3.799  0.2467  0.6944  0.5173
15081SOL     OW47174   5.064   5.501   3.120 -0.1225 -0.2942  0.2146
15081SOL    HW147175   5.087   5.470   3.033  1.7147 -0.2201  0.6348
15081SOL    HW247176   5.012   5.579   3.105  0.4143 -0.1191 -0.8237
15082SOL     OW47177   6.083   0.314   4.207  0.0568 -0.1672 -0.4173
15082SOL    HW147178   6.141   0.288   4.135 -0.5113 -1.9929 -0.2777
15082SOL    HW247179   6.043   0.396   4.178 -0.4985 -1.0846 -2.4064
15083SOL     OW47180   5.213   0.583   5.002  0.7985 -0.0953 -0.2876
15083SOL    HW147181   5.156   0.506   5.003  0.0982  0.4096  0.7466
15083SOL    HW247182   5.164   0.648   4.951  0.5672  0.2395  0.3468
15084SOL     OW47183   2.506   0.746   5.691 -0.0599 -0.3845  0.3889
15084SOL    HW147184   2.523   0.814   5.756  0.0378 -1.1231  1.1604
15084SOL    HW247185   2.411   0.745   5.682 -0.0080  0.5105 -0.3627
15085SOL     OW47186   4.110   4.895   2.835  0.6558  0.0623 -0.1213
15085SOL    HW147187   4.085   4.806   2.811 -0.0220  0.6086 -1.5169
15085SOL    HW247188   4.190   4.884   2.887 -0.5643 -1.4937  1.5559
15086SOL     OW47189   7.497   2.831   0.250 -0.0672  0.2044 -0.2968
15086SOL    HW147190   7.522   2.891   0.321 -0.5015  1.0648 -0.8621
15086SOL    HW247191   7.575   2.776   0.238  0.1774  0.3467  0.5294
15087SOL     OW47192   6.274   4.680   2.065 -0.3869  0.0042  0.1034
15087SOL    HW147193   6.279   4.763   2.017  1.2318  0.3939  0.8984
15087SOL    HW247194   6.186   4.681   2.104  0.1119  2.0845  1.3582
15088SOL     OW47195   0.220   5.624   1.000  0.0791  0.1397  0.1683
15088SOL    HW147196   0.216   5.579   0.915 -0.6970  0.1184  0.2066
15088SOL    HW247197   0.184   5.711   0.982 -1.9341 -0.4858  0.8442
15089SOL     OW47198   5.005   0.482   0.918 -0.0253  0.2462  0.4506
15089SOL    HW147199   5.012   0.471   0.823  1.0252 -0.8831  0.6337
15089SOL    HW247200   4.927   0.536   0.930  0.0995  0.8181 -1.0744
15090SOL     OW47201   7.435   8.439   1.260  0.3413 -0.1819 -0.2539
15090SOL    HW147202   7.367   8.377   1.233 -0.5675 -0.6019  2.6811
15090SOL    HW247203   7.498   8.386   1.308  1.3942  0.6483 -0.6975
15091SOL     OW47204   3.324   5.364   6.843 -0.3042 -0.2780 -0.1953
15091SOL    HW147205   3.337   5.390   6.752  1.7233  0.7040  0.3034
15091SOL    HW247206   3.302   5.271   6.839  3.0980 -1.1851 -1.6285
15092SOL     OW47207   4.759   8.850   0.397  0.4568  0.7102 -0.7925
15092SOL    HW147208   4.760   8.855   0.301  0.8046 -0.8281 -0.8827
15092SOL    HW247209   4.831   8.791   0.419 -0.9566 -0.6928  0.2783
15093SOL     OW47210   0.445   2.020   2.384 -0.5776  0.0328  0.4422
15093SOL    HW147211   0.508   2.064   2.441  2.2571 -0.9733 -1.6590
15093SOL    HW247212   0.412   1.947   2.436  3.6947 -2.2901  0.3440
15094SOL     OW47213   7.287   8.437   4.091  0.5412  0.6384 -0.0042
15094SOL    HW147214   7.299   8.476   4.005 -0.7256 -0.5736 -0.7747
15094SOL    HW247215   7.248   8.352   4.074  0.2454  0.3684  1.7789
15095SOL     OW47216   2.369   3.699   7.908 -0.6385  0.4127 -0.3993
15095SOL    HW147217   2.323   3.746   7.977 -0.3076  0.6506 -0.3403
15095SOL    HW247218   2.415   3.767   7.859 -0.7961  0.2370 -0.7981
15096SOL     OW47219   6.764   5.652   2.900  0.2216 -0.3981  0.0552
15096SOL    HW147220   6.789   5.565   2.867 -1.6412 -0.7263 -0.5889
15096SOL    HW247221   6.672   5.644   2.922 -0.1970  1.6354 -0.7538
15097SOL     OW47222   8.646   7.010   2.572 -0.0938 -0.1931  0.1982
15097SOL    HW147223   8.646   6.945   2.643 -1.2388  0.4503  0.8268
15097SOL    HW247224   8.707   6.975   2.507  0.7498 -0.9539  1.3611
15098SOL     OW47225   1.261   0.613   8.654  0.2583 -0.2903  0.1436
15098SOL    HW147226   1.354   0.603   8.672  0.5695 -0.6004 -1.4906
15098SOL    HW247227   1.241   0.703   8.681  0.3744 -0.9972  2.9425
15099SOL     OW47228   1.396   8.353   8.013  0.0530 -0.4488  0.3328
15099SOL    HW147229   1.304   8.365   8.037 -0.0957 -0.9661  0.0546
15099SOL    HW247230   1.445   8.401   8.080 -0.4705  1.8934 -0.8689
15100SOL     OW47231   6.873   1.516   6.029 -0.0937  0.2758 -0.0638
15100SOL    HW147232   6.882   1.597   6.080 -2.7775  0.6855 -0.0607
15100SOL    HW247233   6.919   1.533   5.948  0.0310  1.5422  0.2460
15101SOL     OW47234   4.650   1.735   0.787  0.2026 -0.1664  0.2254
15101SOL    HW147235   4.566   1.707   0.752 -0.0190 -0.2099  0.7909
15101SOL    HW247236   4.639   1.829   0.802  0.8022  0.1715 -1.2605
15102SOL     OW47237   5.628   4.522   0.952 -0.5181 -0.2461 -0.0124
15102SOL    HW147238   5.553   4.552   0.899  0.9311  0.2923 -1.8648
15102SOL    HW247239   5.687   4.481   0.889  1.1639  0.1192  1.2546
15103SOL     OW47240   3.517   2.679   0.158  0.6688  0.5280  0.7009
15103SOL    HW147241   3.600   2.631   0.153 -0.9029 -2.3052 -1.1969
15103SOL    HW247242   3.497   2.682   0.252  1.2125 -2.0373  0.9830
15104SOL     OW47243   6.666   4.872   5.340  0.4101 -0.2437 -0.3836
15104SOL    HW147244   6.687   4.818   5.263  2.7656 -1.1577  0.7958
15104SOL    HW247245   6.606   4.818   5.391  3.9288 -2.7609  1.5698
15105SOL     OW47246   1.046   5.176   8.406  0.2811 -0.4891  0.1162
15105SOL    HW147247   1.071   5.261   8.441  1.5166 -1.2867  1.2561
15105SOL    HW247248   1.017   5.126   8.483 -0.4511 -1.1104 -0.5397
15106SOL     OW47249   4.616   4.916   4.874 -0.4567  0.4904  0.1839
15106SOL    HW147250   4.647   4.968   4.800  0.3023  0.0046  0.1549
15106SOL    HW247251   4.638   4.825   4.851 -0.3263  0.3209  0.9527
15107SOL     OW47252   5.177   6.164   5.262  0.3439  0.3616 -0.7256
15107SOL    HW147253   5.132   6.080   5.249 -0.2474  0.5000  0.3161
15107SOL    HW247254   5.208   6.161   5.353  0.2252  1.3062 -0.6444
15108SOL     OW47255   4.392   2.883   8.396  0.1759 -0.3719  0.0971
15108SOL    HW147256   4.433   2.853   8.314 -2.2914 -2.4463 -0.5067
15108SOL    HW247257   4.441   2.838   8.465  0.5463 -0.7822 -0.4276
15109SOL     OW47258   0.802   2.035   5.788 -0.5631 -0.2276 -0.1934
15109SOL    HW147259   0.729   1.992   5.833 -0.2598  0.3244  0.8816
15109SOL    HW247260   0.864   2.055   5.859 -0.0358  0.6273 -0.8840
15110SOL     OW47261   3.214   4.975   8.017 -0.6180 -0.2051  0.0138
15110SOL    HW147262   3.227   4.992   8.111 -0.3032  0.2680 -0.1130
15110SOL    HW247263   3.205   5.062   7.978 -1.5312 -0.4221 -0.2895
15111SOL     OW47264   0.436   1.293   5.088  0.0743 -0.3343 -0.1331
15111SOL    HW147265   0.513   1.287   5.032  0.5467 -1.6502  0.6192
15111SOL    HW247266   0.462   1.353   5.158  0.3077 -0.5534 -0.0328
15112SOL     OW47267   5.420   1.013   3.656  0.3208  0.1566  0.1888
15112SOL    HW147268   5.370   1.082   3.699 -0.6819  0.4832 -1.4290
15112SOL    HW247269   5.511   1.030   3.681  0.1078  2.0958 -0.1809
15113SOL     OW47270   6.355   7.349   5.306 -0.6077  0.1313  0.0721
15113SOL    HW147271   6.378   7.384   5.220  1.1626  1.0385  0.8640
15113SOL    HW247272   6.370   7.422   5.366 -0.5189 -0.8779  1.3170
15114SOL     OW47273   7.787   5.554   0.726  0.7848 -0.0509  0.2626
15114SOL    HW147274   7.863   5.498   0.708  1.1317  0.9271 -1.5759
15114SOL    HW247275   7.815   5.608   0.800  0.7801 -1.6085  1.4679
15115SOL     OW47276   7.264   7.228   0.450  0.0423 -0.3754  0.0062
15115SOL    HW147277   7.320   7.250   0.525  1.4094 -1.2117 -0.7478
15115SOL    HW247278   7.259   7.133   0.451 -0.4329 -0.3570 -0.6248
15116SOL     OW47279   0.857   6.989   3.032  0.0480  0.2311 -0.0457
15116SOL    HW147280   0.853   6.941   2.950 -1.1051  0.3700 -0.0918
15116SOL    HW247281   0.819   6.929   3.097  0.8993  0.1414  0.3819
15117SOL     OW47282   8.138   0.314   7.104  0.0443 -0.6746 -1.1200
15117SOL    HW147283   8.176   0.367   7.033  0.6112  1.1840  0.4624
15117SOL    HW247284   8.213   0.270   7.143 -0.0510 -0.5671 -0.8107
15118SOL     OW47285   7.740   5.584   6.402 -0.6179  0.0754  0.6033
15118SOL    HW147286   7.785   5.552   6.324 -0.5766 -1.2305  1.1406
15118SOL    HW247287   7.662   5.528   6.408 -1.3580  1.1007  0.7122
15119SOL     OW47288   6.339   3.954   1.982 -0.0189 -0.2318  0.0341
15119SOL    HW147289   6.391   4.034   1.983 -2.3220  1.3382  0.0534
15119SOL    HW247290   6.390   3.893   1.928  0.9179  1.8472 -1.5519
15120SOL     OW47291   6.081   5.824   1.717 -0.9877 -0.2591  0.1225
15120SOL    HW147292   6.005   5.844   1.663 -1.2420 -0.3299  0.4507
15120SOL    HW247293   6.139   5.775   1.660 -0.0892  1.8803 -0.8951
15121SOL     OW47294   0.517   2.895   1.523 -0.2463 -0.6522 -0.4003
15121SOL    HW147295   0.575   2.823   1.547  0.8453  0.7359  1.3682
15121SOL    HW247296   0.444   2.889   1.586  1.4285  1.5670  1.9497
15122SOL     OW47297   2.026   1.712   0.026  0.0896  0.0725 -0.0446
15122SOL    HW147298   1.931   1.706   0.039 -0.2579  0.2810 -2.0774
15122SOL    HW247299   2.059   1.625   0.046 -0.6217 -0.1686  0.0963
15123SOL     OW47300   8.359   7.882   2.540  0.1697  0.4433 -0.0659
15123SOL    HW147301   8.364   7.887   2.635 -1.0182  1.3755 -0.0350
15123SOL    HW247302   8.274   7.918   2.518 -0.6958 -2.0857 -1.3205
15124SOL     OW47303   5.708   3.412   8.814  0.0762  0.4405 -0.4574
15124SOL    HW147304   5.663   3.380   8.893 -0.9594  2.0090 -0.3559
15124SOL    HW247305   5.795   3.438   8.845  0.6686 -1.4907 -0.4050
15125SOL     OW47306   6.711   6.584   7.194 -0.0547  0.4732  0.7124
15125SOL    HW147307   6.759   6.635   7.129 -2.4440  3.2649  0.9458
15125SOL    HW247308   6.619   6.592   7.168 -0.7600 -1.7413  2.2038
15126SOL     OW47309   1.913   3.543   6.633  0.2719 -0.2343 -0.0380
15126SOL    HW147310   1.843   3.485   6.664 -0.0789  0.5320  0.6352
15126SOL    HW247311   1.904   3.622   6.686  1.1345  0.1986 -0.5179
15127SOL     OW47312   6.627   0.533   3.326  0.2504 -0.1452  0.1659
15127SOL    HW147313   6.679   0.453   3.334  0.6634  0.0770 -0.2514
15127SOL    HW247314   6.691   0.604   3.328 -0.1609  0.2187  1.1676
15128SOL     OW47315   2.113   7.865   0.376  0.1027  0.4936 -0.1758
15128SOL    HW147316   2.083   7.906   0.457 -1.3983  0.8508 -0.8725
15128SOL    HW247317   2.033   7.831   0.336  0.6149  1.4735 -2.1350
15129SOL     OW47318   6.417   3.965   5.385 -0.0152 -0.3004  0.3279
15129SOL    HW147319   6.444   3.874   5.380 -0.3018 -0.3483 -0.7006
15129SOL    HW247320   6.471   4.010   5.320 -1.6884 -0.2354 -1.1028
15130SOL     OW47321   1.688   4.927   4.407  0.2021 -0.3068 -0.4458
15130SOL    HW147322   1.690   4.908   4.314  0.4510 -0.8054 -0.3422
15130SOL    HW247323   1.718   4.846   4.449 -0.1414 -0.1724  0.0781
15131SOL     OW47324   5.680   6.154   5.478  0.4131 -0.0337  0.5171
15131SOL    HW147325   5.620   6.223   5.507  2.0959  1.1991  1.1978
15131SOL    HW247326   5.631   6.073   5.491 -1.3509  0.9556  0.4030
15132SOL     OW47327   8.117   3.472   7.080 -0.1552  0.1306  0.1162
15132SOL    HW147328   8.060   3.473   7.157 -0.8052  0.8080 -0.3625
15132SOL    HW247329   8.063   3.434   7.011  0.5871 -0.9356  0.1033
15133SOL     OW47330   2.920   3.435   8.160  0.2996 -0.6029  0.0031
15133SOL    HW147331   3.009   3.465   8.138  0.4076 -0.0211  1.1836
15133SOL    HW247332   2.933   3.372   8.230 -0.2566 -0.0826  0.5822
15134SOL     OW47333   3.871   8.196   4.037 -0.3460 -0.6056  0.1709
15134SOL    HW147334   3.902   8.127   3.978  1.1374 -0.4633  0.7435
15134SOL    HW247335   3.928   8.270   4.019 -0.9280 -0.0261  0.6638
15135SOL     OW47336   6.160   4.955   7.288 -0.1764 -0.0199  0.8629
15135SOL    HW147337   6.101   4.925   7.357  1.5326 -1.2151  1.8921
15135SOL    HW247338   6.202   4.875   7.256  0.2990  0.7097 -0.4040
15136SOL     OW47339   2.971   8.820   2.630 -0.6098 -0.0610 -0.5621
15136SOL    HW147340   2.904   8.801   2.565 -1.0912  1.2995 -0.5066
15136SOL    HW247341   2.926   8.818   2.714 -0.3516 -0.1745 -0.4232
15137SOL     OW47342   0.868   1.604   8.629 -0.5910 -0.1918  0.0461
15137SOL    HW147343   0.779   1.611   8.594 -0.9821  0.3896  1.0975
15137SOL    HW247344   0.857   1.615   8.724  0.4935 -1.1155  0.2993
15138SOL     OW47345   1.415   3.430   6.864 -0.4179 -0.3469 -0.4306
15138SOL    HW147346   1.365   3.440   6.945 -0.6543 -0.1373 -0.6010
15138SOL    HW247347   1.373   3.358   6.817 -1.5487  0.8376 -1.2956
15139SOL     OW47348   6.329   5.495   5.804 -0.0772  0.3695  0.1043
15139SOL    HW147349   6.363   5.415   5.843 -1.3238  0.5406  1.6699
15139SOL    HW247350   6.238   5.475   5.781  0.8114 -0.0276 -3.8152
15140SOL     OW47351   0.284   0.562   2.950  0.4102  0.6943  0.0341
15140SOL    HW147352   0.336   0.600   2.879  2.2341 -0.8639  0.4382
15140SOL    HW247353   0.309   0.612   3.028  0.7758  0.4113  0.1014
15141SOL     OW47354   8.788   1.581   4.297 -0.2461 -0.1236  0.0508
15141SOL    HW147355   8.767   1.488   4.291 -0.9166  0.0423 -0.2065
15141SOL    HW247356   8.822   1.593   4.386  1.6466 -0.9695 -0.4973
15142SOL     OW47357   3.227   2.687   3.688 -0.2471  0.1947 -0.6946
15142SOL    HW147358   3.219   2.626   3.761  0.5130  1.2462  0.3240
15142SOL    HW247359   3.142   2.730   3.682 -1.0047 -1.3792 -1.8525
15143SOL     OW47360   8.229   4.402   2.175  0.2028 -0.3884 -0.6604
15143SOL    HW147361   8.177   4.331   2.213 -0.7004  0.5081 -0.1748
15143SOL    HW247362   8.198   4.411   2.085  0.9216 -1.1615 -1.0004
15144SOL     OW47363   3.209   3.331   5.520  0.3036 -0.4649  0.1957
15144SOL    HW147364   3.156   3.358   5.595  1.4895  0.4995  0.7073
15144SOL    HW247365   3.254   3.410   5.491  2.0355 -1.3751  0.2415
15145SOL     OW47366   8.809   4.818   7.178 -0.2806  0.3727 -0.5895
15145SOL    HW147367   8.744   4.751   7.158  0.4353 -0.9139  1.1815
15145SOL    HW247368   8.759   4.900   7.177 -1.8075 -0.5009  0.0755
15146SOL     OW47369   2.876   7.541   2.869  0.4384 -0.0899  0.1989
15146SOL    HW147370   2.870   7.475   2.938 -2.0969 -0.2508 -0.0828
15146SOL    HW247371   2.881   7.491   2.788  1.0682  0.0796  0.1338
15147SOL     OW47372   8.298   0.889   5.447  0.4639 -0.5101 -0.2821
15147SOL    HW147373   8.376   0.837   5.466 -0.6298 -1.6736  1.2594
15147SOL    HW247374   8.229   0.824   5.432  0.1526  0.4232 -3.7301
15148SOL     OW47375   8.063   6.443   6.604  0.1844 -0.0008 -0.4758
15148SOL    HW147376   8.018   6.513   6.652 -0.7659  0.0323 -1.3964
15148SOL    HW247377   8.156   6.462   6.618 -0.0580  1.0867 -0.1856
15149SOL     OW47378   5.215   1.095   4.026  0.4293  0.1350  0.0361
15149SOL    HW147379   5.144   1.135   3.977 -0.2243 -0.3529  0.5600
15149SOL    HW247380   5.173   1.060   4.105  1.4246  0.7770  0.8775
15150SOL     OW47381   2.461   1.756   6.489 -0.9125  0.1675 -0.3320
15150SOL    HW147382   2.483   1.675   6.444 -0.3739  0.1601 -0.0655
15150SOL    HW247383   2.399   1.730   6.557 -2.3843  0.2992 -1.5675
15151SOL     OW47384   6.530   4.703   8.016  0.0724  0.1894 -0.6203
15151SOL    HW147385   6.507   4.674   8.104  1.6180 -0.4533 -0.3946
15151SOL    HW247386   6.619   4.738   8.024  0.8328 -1.2173 -2.1695
15152SOL     OW47387   7.152   2.992   2.792 -0.2902 -0.9062  0.0880
15152SOL    HW147388   7.214   2.920   2.783 -0.8382 -1.1555 -2.5287
15152SOL    HW247389   7.093   2.965   2.862  0.5770 -2.1815  0.3489
15153SOL     OW47390   4.121   1.507   1.424  0.4041 -0.0006 -0.0487
15153SOL    HW147391   4.133   1.426   1.375 -2.1279  1.5050 -3.6561
15153SOL    HW247392   4.057   1.486   1.491  2.7652 -1.7562  1.8499
15154SOL     OW47393   6.250   7.917   3.266  1.2789  0.6363  0.1504
15154SOL    HW147394   6.324   7.910   3.327  0.9052  0.0025  0.5509
15154SOL    HW247395   6.218   7.827   3.257 -1.2688  1.2032  2.3146
15155SOL     OW47396   3.830   4.895   7.071  0.5472 -0.1299  0.2706
15155SOL    HW147397   3.790   4.974   7.107 -0.3190  0.1038 -1.1179
15155SOL    HW247398   3.804   4.825   7.130  0.8272  0.5193  1.1919
15156SOL     OW47399   6.131   1.933   4.375 -0.1619 -0.3919 -0.2988
15156SOL    HW147400   6.124   1.867   4.445  0.4144 -0.2606 -0.1040
15156SOL    HW247401   6.115   1.884   4.295 -2.6514 -0.2013  0.0192
15157SOL     OW47402   5.139   1.416   6.933 -0.3973  0.6093  0.0419
15157SOL    HW147403   5.113   1.447   7.020 -1.0394  0.9040 -0.2441
15157SOL    HW247404   5.211   1.473   6.908 -0.8069  1.1218  0.0089
15158SOL     OW47405   7.284   3.950   2.204 -0.7036 -0.0469  0.1570
15158SOL    HW147406   7.195   3.969   2.233 -0.8820  1.5129 -1.2777
15158SOL    HW247407   7.306   4.022   2.145  1.6085 -0.2670  0.6675
15159SOL     OW47408   8.145   8.639   7.473 -0.2461 -0.7685  0.0349
15159SOL    HW147409   8.222   8.583   7.461 -0.1551 -0.6554  0.0924
15159SOL    HW247410   8.172   8.705   7.537 -0.5067 -0.9422  0.3226
15160SOL     OW47411   2.719   6.356   7.199 -0.1831 -0.1670 -0.6177
15160SOL    HW147412   2.762   6.367   7.284 -0.4364 -0.8188 -0.3935
15160SOL    HW247413   2.640   6.409   7.205  0.6409  1.1544 -1.0844
15161SOL     OW47414   7.481   3.115   7.919  0.3530  0.2683  0.1206
15161SOL    HW147415   7.499   3.185   7.981  0.3928 -0.3841  0.8524
15161SOL    HW247416   7.559   3.060   7.922  0.7298  0.6995 -1.1600
15162SOL     OW47417   2.777   6.439   0.306  0.4129  0.0840  0.0362
15162SOL    HW147418   2.737   6.441   0.220 -0.8109 -0.0798  0.5828
15162SOL    HW247419   2.740   6.514   0.352 -0.5799 -0.9997  1.0899
15163SOL     OW47420   6.589   6.986   6.467  0.2367 -0.4494  0.2184
15163SOL    HW147421   6.511   7.040   6.472  1.7124  1.7466  1.0392
15163SOL    HW247422   6.606   6.959   6.557 -0.4767 -2.4129 -0.1713
15164SOL     OW47423   1.018   0.974   4.874 -0.3535 -0.4208 -0.3114
15164SOL    HW147424   1.106   0.948   4.901  0.0163  1.3016  0.2404
15164SOL    HW247425   1.031   1.021   4.792 -0.7143  0.1708 -0.0318
15165SOL     OW47426   7.083   7.981   6.686 -0.3494  0.4727 -0.5609
15165SOL    HW147427   7.120   7.893   6.698 -1.4451 -0.1564 -1.6016
15165SOL    HW247428   6.995   7.975   6.723 -1.2444  0.4608 -2.5912
15166SOL     OW47429   6.747   6.387   2.197 -0.2171 -0.1672  0.0988
15166SOL    HW147430   6.799   6.431   2.130 -0.2428 -0.6732 -0.2535
15166SOL    HW247431   6.658   6.422   2.185  0.3229  2.1311  1.8980
15167SOL     OW47432   2.433   7.653   4.125 -0.2803  0.2390  0.3024
15167SOL    HW147433   2.479   7.602   4.058  1.1414  0.4425  1.0675
15167SOL    HW247434   2.401   7.730   4.078 -1.0408 -0.5522 -0.5267
15168SOL     OW47435   0.693   2.452   0.147  0.1780  0.5805 -0.2339
15168SOL    HW147436   0.599   2.464   0.152  0.2103  0.4820  0.8650
15168SOL    HW247437   0.727   2.535   0.116 -0.1483  1.1926  0.9679
15169SOL     OW47438   0.800   1.081   5.072 -0.7855  0.4311  0.2108
15169SOL    HW147439   0.783   1.109   5.162 -0.2847  0.6081  0.2496
15169SOL    HW247440   0.889   1.047   5.074 -0.6097  0.8559 -0.3190
15170SOL     OW47441   5.202   7.784   8.656  0.5232 -0.4130 -0.2924
15170SOL    HW147442   5.265   7.848   8.623 -0.2585  0.2934 -0.4538
15170SOL    HW247443   5.249   7.701   8.653  3.3816  0.6025  4.3805
15171SOL     OW47444   1.898   1.296   2.801 -0.4284  0.2961  0.3527
15171SOL    HW147445   1.847   1.367   2.838 -0.4263  0.1984  0.5430
15171SOL    HW247446   1.903   1.230   2.870  0.6167  0.6265  0.6194
15172SOL     OW47447   0.871   7.904   8.544 -0.0156 -0.3466 -0.4972
15172SOL    HW147448   0.784   7.875   8.517 -2.0517  3.5376  1.0317
15172SOL    HW247449   0.905   7.951   8.468 -0.3474  0.1407 -0.3524
15173SOL     OW47450   6.674   7.049   0.405 -0.0742 -0.0990  0.6959
15173SOL    HW147451   6.659   7.096   0.323 -0.2881  0.0825  0.8405
15173SOL    HW247452   6.759   7.006   0.392 -0.3338 -0.4772  0.1869
15174SOL     OW47453   1.911   7.475   3.019  0.1120  0.3469  0.6104
15174SOL    HW147454   1.846   7.483   2.949  0.7900  0.1160 -0.0625
15174SOL    HW247455   1.908   7.559   3.064 -1.9587 -0.2792  1.7847
15175SOL     OW47456   7.208   4.082   1.579  0.0889 -0.8820 -0.1445
15175SOL    HW147457   7.188   4.057   1.670 -2.5265  0.0519 -0.3957
15175SOL    HW247458   7.243   4.171   1.586  0.2370 -0.9471 -0.0359
15176SOL     OW47459   7.966   8.355   3.592  0.4718  0.0584  0.1433
15176SOL    HW147460   7.961   8.262   3.568  2.2568 -0.3574  1.1811
15176SOL    HW247461   8.003   8.355   3.680 -0.0572  1.7544  0.3929
15177SOL     OW47462   6.728   2.672   3.438 -0.0380 -0.2429  0.1476
15177SOL    HW147463   6.636   2.653   3.420  0.1601 -0.3271 -0.7961
15177SOL    HW247464   6.750   2.746   3.382  0.4916 -0.2720  0.3033
15178SOL     OW47465   0.248   4.139   3.172 -0.5404 -0.1165 -0.4077
15178SOL    HW147466   0.240   4.046   3.191 -0.6297 -0.3009 -1.2981
15178SOL    HW247467   0.160   4.166   3.147 -0.1564 -0.2274 -1.9647
15179SOL     OW47468   8.038   8.223   1.021  0.3717 -0.1783 -0.0124
15179SOL    HW147469   8.074   8.299   0.975  0.9363 -1.6238 -2.0654
15179SOL    HW247470   8.107   8.196   1.082 -0.5770  2.0596  2.2699
15180SOL     OW47471   8.093   8.747   3.063  0.4966 -0.8498  0.2020
15180SOL    HW147472   8.125   8.668   3.020  1.3560 -0.2947 -0.2199
15180SOL    HW247473   8.098   8.727   3.157 -0.0745 -1.5737  0.0856
15181SOL     OW47474   8.152   3.300   6.506  0.0603 -0.3724  0.1271
15181SOL    HW147475   8.225   3.335   6.557  0.8242 -0.5567 -0.8097
15181SOL    HW247476   8.114   3.376   6.463 -0.0502 -0.3233  0.3144
15182SOL     OW47477   4.384   8.476   4.816 -0.5355  0.4406  0.0373
15182SOL    HW147478   4.455   8.530   4.781 -1.9625  2.0568 -0.4665
15182SOL    HW247479   4.338   8.532   4.877 -1.2605 -0.6640  0.5451
15183SOL     OW47480   2.994   2.693   5.752 -0.4205 -0.0229  0.2495
15183SOL    HW147481   3.048   2.615   5.741 -2.3742 -1.3396 -0.7556
15183SOL    HW247482   2.904   2.659   5.755 -1.4119  2.2379 -1.0247
15184SOL     OW47483   3.366   6.833   3.821 -0.4772 -0.4003 -0.4436
15184SOL    HW147484   3.406   6.783   3.749  0.0455  0.2608 -0.6251
15184SOL    HW247485   3.298   6.775   3.855 -0.5398 -0.8435 -1.2851
15185SOL     OW47486   5.138   8.591   5.685 -0.0583 -0.4609  0.0815
15185SOL    HW147487   5.101   8.679   5.684  2.0234  0.4879 -0.8720
15185SOL    HW247488   5.184   8.583   5.601 -0.8523 -2.7914 -0.2032
15186SOL     OW47489   3.543   5.490   5.813 -0.2645 -0.1746 -0.6312
15186SOL    HW147490   3.461   5.470   5.858 -0.4729  1.4263 -0.2488
15186SOL    HW247491   3.563   5.580   5.838  2.0315 -0.7732 -0.0793
15187SOL     OW47492   5.781   3.592   4.145 -0.2987 -0.1507  0.0814
15187SOL    HW147493   5.778   3.504   4.182  2.0319 -1.2677 -2.0719
15187SOL    HW247494   5.757   3.580   4.053  0.6764  1.3294 -0.4061
15188SOL     OW47495   8.377   4.581   8.825  0.4044  0.3064  0.0119
15188SOL    HW147496   8.339   4.630   8.752  0.8078  0.4225 -0.1209
15188SOL    HW247497   8.468   4.611   8.830  0.0769  1.1457  1.2883
15189SOL     OW47498   4.961   7.564   1.581 -0.6380  0.3875  0.1133
15189SOL    HW147499   4.977   7.649   1.540  1.6852 -1.3574 -3.0876
15189SOL    HW247500   5.009   7.568   1.664  0.2604  1.8860 -0.4447
15190SOL     OW47501   7.847   5.228   0.929  0.3939  0.0046 -0.1294
15190SOL    HW147502   7.868   5.320   0.946  0.6988  0.1837 -1.3396
15190SOL    HW247503   7.918   5.198   0.872  0.4200 -1.0538  0.4534
15191SOL     OW47504   8.255   6.412   4.239 -0.3906 -0.5064  0.2644
15191SOL    HW147505   8.294   6.426   4.153  1.3764 -0.3437  1.0522
15191SOL    HW247506   8.309   6.343   4.279  0.0438  0.7466  1.9465
15192SOL     OW47507   3.526   8.355   0.411 -0.0096 -0.5380  0.6304
15192SOL    HW147508   3.543   8.436   0.363  0.5450 -0.6352  0.6526
15192SOL    HW247509   3.590   8.355   0.482  0.0963 -1.0620  0.5408
15193SOL     OW47510   8.143   1.946   6.422  0.5235 -0.5473 -0.3172
15193SOL    HW147511   8.061   1.897   6.418 -0.4291  1.0249 -2.0992
15193SOL    HW247512   8.207   1.889   6.381 -0.3900 -0.6165 -1.7153
15194SOL     OW47513   0.624   3.859   7.195 -0.1073 -0.0247  0.1805
15194SOL    HW147514   0.532   3.831   7.199 -0.3375  0.6523 -0.2746
15194SOL    HW247515   0.647   3.854   7.103  0.1428  0.3341  0.2202
15195SOL     OW47516   6.035   0.952   2.061 -0.3545 -0.0257  0.4416
15195SOL    HW147517   6.035   1.013   2.135  0.5580  1.3499 -0.6341
15195SOL    HW247518   6.013   0.867   2.100  0.2049  0.6242  2.2895
15196SOL     OW47519   6.169   5.936   0.114 -0.3117 -0.0293  0.7308
15196SOL    HW147520   6.110   5.918   0.187 -1.1042 -1.3348 -0.1892
15196SOL    HW247521   6.111   5.941   0.038  0.2710  3.1105  0.3771
15197SOL     OW47522   5.287   4.835   7.144 -0.1339  0.4233  0.1218
15197SOL    HW147523   5.239   4.913   7.173  0.8232  0.4874  1.6649
15197SOL    HW247524   5.379   4.855   7.165  0.0126 -1.5358  1.5793
15198SOL     OW47525   2.284   1.840   6.155 -0.0951  0.4563  0.6630
15198SOL    HW147526   2.254   1.749   6.160 -2.4435  0.9114 -2.2630
15198SOL    HW247527   2.229   1.879   6.087  3.3549  3.0690 -0.9355
15199SOL     OW47528   6.550   5.775   2.613 -0.1589  0.0866 -1.1769
15199SOL    HW147529   6.509   5.802   2.531 -0.2819  0.2525 -1.0607
15199SOL    HW247530   6.485   5.795   2.681 -0.1420 -0.2438 -1.0586
15200SOL     OW47531   8.690   4.343   2.503  0.1668 -0.7378 -0.2674
15200SOL    HW147532   8.767   4.399   2.499  0.5517 -1.1352  0.9349
15200SOL    HW247533   8.715   4.264   2.457 -0.0890 -0.2624 -1.2495
15201SOL     OW47534   2.343   6.005   7.095  0.1688 -0.0945 -0.4055
15201SOL    HW147535   2.262   6.008   7.146 -0.3106  0.9678 -1.1744
15201SOL    HW247536   2.313   5.993   7.005  0.6017  3.4727 -1.1504
15202SOL     OW47537   1.292   8.018   4.303  0.5839 -0.1985 -0.0960
15202SOL    HW147538   1.345   8.044   4.227 -0.4560  3.4617  0.2042
15202SOL    HW247539   1.354   8.017   4.376  1.2264 -1.7973 -0.6235
15203SOL     OW47540   7.492   5.758   3.592  0.3230  0.4120 -0.0295
15203SOL    HW147541   7.411   5.787   3.634 -0.4241 -1.2408 -0.2785
15203SOL    HW247542   7.562   5.795   3.646 -0.5630  1.9397  0.1373
15204SOL     OW47543   3.722   6.277   4.034  0.0631 -0.6795  0.0883
15204SOL    HW147544   3.809   6.285   4.075  0.3306 -0.7554 -0.4627
15204SOL    HW247545   3.679   6.360   4.056 -0.0681 -1.0080  1.1383
15205SOL     OW47546   6.728   0.963   0.753  0.1266  0.0865 -0.9095
15205SOL    HW147547   6.748   0.976   0.846  1.3667 -1.1838 -0.9587
15205SOL    HW247548   6.805   0.997   0.707 -1.2117  2.3247 -1.6180
15206SOL     OW47549   3.780   0.057   6.267  0.1832 -0.4468 -0.5933
15206SOL    HW147550   3.798  -0.009   6.335  2.7623  0.4197 -0.3122
15206SOL    HW247551   3.804   0.140   6.308  1.0921  0.1776 -2.3114
15207SOL     OW47552   2.789   6.174   2.725 -0.2013  0.3226 -0.4403
15207SOL    HW147553   2.770   6.090   2.683 -0.5587  0.2375 -0.1054
15207SOL    HW247554   2.840   6.222   2.660  0.1711 -0.2290 -0.5612
15208SOL     OW47555   3.028   4.879   6.444 -0.3706 -0.2343  0.0459
15208SOL    HW147556   3.052   4.930   6.367 -0.5878 -2.2355 -1.4220
15208SOL    HW247557   2.935   4.898   6.457 -0.5716 -0.6118 -0.7909
15209SOL     OW47558   4.065   8.684   0.338 -0.2582 -0.4092 -0.3435
15209SOL    HW147559   4.101   8.764   0.298  2.3909 -2.2769 -2.0138
15209SOL    HW247560   3.976   8.679   0.304 -0.6872  2.0555  0.2186
15210SOL     OW47561   1.095   3.854   0.363  0.0136  0.1205  0.2968
15210SOL    HW147562   1.137   3.932   0.401  0.5128  2.4434 -4.2900
15210SOL    HW247563   1.166   3.807   0.321 -0.8949 -0.1307 -1.0252
15211SOL     OW47564   0.358   2.923   4.014  0.8945  0.2381  0.2484
15211SOL    HW147565   0.320   3.010   4.027  1.7672  0.4633  1.5091
15211SOL    HW247566   0.286   2.870   3.980 -0.0667  1.0761  0.9229
15212SOL     OW47567   2.079   0.162   0.008 -0.8277  0.0182 -0.5470
15212SOL    HW147568   2.127   0.135  -0.070  1.2916  0.1186  0.6339
15212SOL    HW247569   2.076   0.083   0.063  0.4757  0.6977  0.5587
15213SOL     OW47570   5.780   2.709   5.999  0.5303 -0.1393  0.0322
15213SOL    HW147571   5.796   2.766   5.924  1.5403 -1.3420 -0.7089
15213SOL    HW247572   5.705   2.748   6.044  0.0236  0.7195 -1.4961
15214SOL     OW47573   2.409   7.948   1.195  0.1216  0.8373 -0.0726
15214SOL    HW147574   2.397   7.863   1.153  1.1113  0.7935 -0.3001
15214SOL    HW247575   2.335   8.001   1.166 -1.4186 -0.4295  1.3748
15215SOL     OW47576   1.349   5.104   1.649  0.3871 -0.2382 -0.6581
15215SOL    HW147577   1.274   5.106   1.709  0.2118 -0.2095 -0.8807
15215SOL    HW247578   1.382   5.194   1.651  1.4259 -0.6051  0.7168
15216SOL     OW47579   5.711   5.655   3.371 -0.6674  0.4057  0.2207
15216SOL    HW147580   5.753   5.707   3.302 -1.2897 -0.5123 -0.8955
15216SOL    HW247581   5.623   5.692   3.378 -0.0979  1.5743  1.7384
15217SOL     OW47582   2.536   4.241   7.754 -0.1629  0.1037 -0.3050
15217SOL    HW147583   2.575   4.247   7.667  1.3875 -0.1882  0.3362
15217SOL    HW247584   2.469   4.173   7.746  1.8500 -1.9710 -0.6544
15218SOL     OW47585   5.624   0.476   3.845 -0.8938 -0.1070  0.3415
15218SOL    HW147586   5.553   0.440   3.792 -0.6867 -2.9082  1.7783
15218SOL    HW247587   5.605   0.446   3.934  1.2365  0.4645  1.0420
15219SOL     OW47588   1.617   2.223   6.654 -0.1920 -0.0712 -0.0693
15219SOL    HW147589   1.580   2.302   6.616  0.8769 -0.0988 -1.2528
15219SOL    HW247590   1.632   2.165   6.579  2.1719 -0.0645  0.3389
15220SOL     OW47591   8.295   3.657   6.654  0.3278 -0.6209  0.1766
15220SOL    HW147592   8.244   3.581   6.681 -0.3380 -0.4588 -0.5885
15220SOL    HW247593   8.239   3.703   6.591  1.8365 -1.0587 -1.5976
15221SOL     OW47594   4.434   6.149   7.451 -0.2474  0.0965 -0.5414
15221SOL    HW147595   4.385   6.217   7.405 -0.9085 -1.1221 -1.7343
15221SOL    HW247596   4.460   6.189   7.533 -0.9986  1.6335 -1.0123
15222SOL     OW47597   3.097   6.468   6.303  0.1232  0.0190  0.1663
15222SOL    HW147598   3.152   6.389   6.295  0.0169  0.0981 -4.0005
15222SOL    HW247599   3.159   6.540   6.295 -0.2306  0.1560 -1.8332
15223SOL     OW47600   3.981   8.050   3.838  0.2455  0.3499  0.8364
15223SOL    HW147601   3.943   7.963   3.824  0.5325  0.2783  0.5064
15223SOL    HW247602   4.058   8.034   3.892  0.6913  0.3175  0.2006
15224SOL     OW47603   3.461   3.448   4.178 -1.1149  0.0693  0.3744
15224SOL    HW147604   3.371   3.471   4.155 -1.0120  0.1270  0.0217
15224SOL    HW247605   3.483   3.507   4.250 -0.6393  1.5324 -0.9230
15225SOL     OW47606   0.188   6.576   8.636  0.1274 -0.4291 -0.4852
15225SOL    HW147607   0.151   6.539   8.717 -1.0455 -0.1874 -0.8960
15225SOL    HW247608   0.115   6.579   8.575  0.4713  1.4522 -0.8673
15226SOL     OW47609   2.698   2.504   2.872  0.3405 -0.2443  0.3820
15226SOL    HW147610   2.638   2.573   2.901 -0.0125 -0.6283  0.5769
15226SOL    HW247611   2.649   2.455   2.806 -0.5045 -2.0406  2.2242
15227SOL     OW47612   1.470   0.866   6.239  0.6047  0.1693 -0.0286
15227SOL    HW147613   1.477   0.942   6.297 -2.6949 -0.0432  0.8389
15227SOL    HW247614   1.560   0.836   6.228  1.8402  3.0437  1.1201
15228SOL     OW47615   8.209   6.233   0.644  0.2194  0.0923 -0.3813
15228SOL    HW147616   8.242   6.281   0.569 -0.4731 -0.5381 -1.1052
15228SOL    HW247617   8.116   6.221   0.627  0.3217 -1.2985 -0.1277
15229SOL     OW47618   3.948   1.714   5.745 -0.4503  0.4355 -0.0569
15229SOL    HW147619   4.001   1.651   5.794  1.0602  1.0282 -0.8666
15229SOL    HW247620   3.893   1.756   5.811 -0.7258 -0.9779  0.6479
15230SOL     OW47621   6.356   0.574   4.257 -0.0188  0.5167  0.0622
15230SOL    HW147622   6.261   0.579   4.266  0.1050  1.5774  1.0214
15230SOL    HW247623   6.379   0.490   4.297 -0.8176 -1.4656 -3.2404
15231SOL     OW47624   6.031   7.027   8.781  0.1533  0.0696 -0.1964
15231SOL    HW147625   5.985   7.081   8.716  2.6975  0.3662 -1.8889
15231SOL    HW247626   6.103   7.082   8.811  0.1665 -0.8033  1.4916
15232SOL     OW47627   3.497   7.898   2.850 -0.5317 -0.3194  0.0722
15232SOL    HW147628   3.544   7.815   2.848 -0.5071 -0.2851 -0.8441
15232SOL    HW247629   3.563   7.963   2.873 -0.3143 -0.3991 -0.3206
15233SOL     OW47630   8.100   4.815   7.579 -0.2693  0.2157  0.8598
15233SOL    HW147631   8.080   4.907   7.558  0.2747  0.1402 -0.0377
15233SOL    HW247632   8.032   4.765   7.533 -0.6500  0.1640  1.4645
15234SOL     OW47633   8.196   2.179   5.089  0.2718 -0.3095 -0.3564
15234SOL    HW147634   8.108   2.214   5.080 -0.2091 -1.5512 -0.8113
15234SOL    HW247635   8.251   2.254   5.109 -0.6375  0.7394 -1.6725
15235SOL     OW47636   6.223   0.406   4.738  0.6856  0.1087  0.4722
15235SOL    HW147637   6.174   0.349   4.798  1.4910 -2.0610 -0.8331
15235SOL    HW247638   6.208   0.369   4.651  0.2116  2.6885 -0.6583
15236SOL     OW47639   6.675   7.207   2.179  0.5828 -0.0811 -0.0525
15236SOL    HW147640   6.636   7.286   2.142  1.8842  1.0538  0.8748
15236SOL    HW247641   6.611   7.177   2.244 -0.7789 -0.9235 -1.7217
15237SOL     OW47642   8.112   5.934   5.091 -0.2579  0.5279 -0.3258
15237SOL    HW147643   8.198   5.969   5.110 -0.0238 -0.3620  0.3118
15237SOL    HW247644   8.057   6.011   5.077 -0.1669  1.2616  2.7221
15238SOL     OW47645   1.145   3.114   5.479  0.2910 -0.3508  0.2393
15238SOL    HW147646   1.053   3.133   5.497  0.3337  0.2750 -0.1648
15238SOL    HW247647   1.152   3.117   5.384  0.9356  0.6476  0.3084
15239SOL     OW47648   6.482   0.941   8.031 -0.6402  0.2017 -0.0907
15239SOL    HW147649   6.395   0.941   7.990 -0.7473  0.1761  0.1295
15239SOL    HW247650   6.489   1.028   8.071 -1.7020 -0.6674  2.2157
15240SOL     OW47651   4.073   5.249   7.706 -0.2091  0.3029  0.0631
15240SOL    HW147652   4.119   5.168   7.726  0.6966  0.4271 -1.3893
15240SOL    HW247653   3.981   5.222   7.695  0.4356 -1.0918 -3.0712
15241SOL     OW47654   6.876   4.531   3.746 -0.2034 -0.5747 -0.1964
15241SOL    HW147655   6.884   4.453   3.801  1.9448  0.1862  0.6681
15241SOL    HW247656   6.810   4.584   3.791  1.1107 -0.2222  1.4040
15242SOL     OW47657   6.210   5.554   8.520 -0.3263 -0.1871  0.5705
15242SOL    HW147658   6.238   5.622   8.581 -0.6490  1.1227 -0.6686
15242SOL    HW247659   6.170   5.603   8.447 -0.8854 -1.7326 -0.1987
15243SOL     OW47660   5.452   7.984   2.339 -0.0437  0.2161  0.3144
15243SOL    HW147661   5.467   7.911   2.279  0.8310 -0.9355  1.8525
15243SOL    HW247662   5.523   7.978   2.403  0.3735  2.7882  0.1806
15244SOL     OW47663   0.541   1.223   3.524 -0.2622 -0.2265  0.7503
15244SOL    HW147664   0.447   1.222   3.505 -0.5385  0.4195  1.9897
15244SOL    HW247665   0.552   1.158   3.594  0.0379  0.4234  1.3140
15245SOL     OW47666   8.805   5.443   4.602  0.0326  1.0153 -0.0616
15245SOL    HW147667   8.717   5.479   4.594  1.3357  4.4653 -0.6358
15245SOL    HW247668   8.856   5.488   4.535  2.7425  1.0265  1.8285
15246SOL     OW47669   1.012   3.301   8.693 -0.1162 -0.4025 -0.3616
15246SOL    HW147670   0.919   3.318   8.705 -0.0672 -0.3663 -0.0220
15246SOL    HW247671   1.043   3.274   8.780  0.6882  1.9494  0.1525
15247SOL     OW47672   6.745   7.436   5.159  0.0069  0.2297  0.1989
15247SOL    HW147673   6.837   7.419   5.141  0.2276 -1.8456  2.7633
15247SOL    HW247674   6.698   7.388   5.091  0.8159 -1.2808  0.6723
15248SOL     OW47675   1.949   5.589   3.136  0.3118  0.1992 -0.1185
15248SOL    HW147676   1.861   5.621   3.117  0.4118  1.0210  0.7265
15248SOL    HW247677   2.007   5.651   3.092  0.4767  0.1977  0.0962
15249SOL     OW47678   4.975   3.085   1.793  0.1800  0.0809  0.5688
15249SOL    HW147679   4.993   3.014   1.731  0.9236  1.0784 -0.3824
15249SOL    HW247680   4.889   3.118   1.767  0.0490 -0.1521  0.7048
15250SOL     OW47681   4.410   0.335   3.918  0.2106 -0.4885 -0.3776
15250SOL    HW147682   4.387   0.259   3.865  1.8106  0.0458 -1.9439
15250SOL    HW247683   4.424   0.300   4.006  1.2754 -2.1035 -1.1409
15251SOL     OW47684   2.819   7.934   8.431  0.4002 -0.4547  0.2911
15251SOL    HW147685   2.789   7.862   8.375  0.4693 -0.7206  0.5901
15251SOL    HW247686   2.754   8.003   8.419 -0.2580 -0.9651  0.8212
15252SOL     OW47687   1.733   4.845   2.267 -0.2375  0.4593 -0.1504
15252SOL    HW147688   1.726   4.937   2.292  0.2426  0.5831 -0.4635
15252SOL    HW247689   1.826   4.831   2.251  0.2841 -0.9861  3.2899
15253SOL     OW47690   1.055   5.326   0.159 -0.0118  0.4652 -0.0993
15253SOL    HW147691   1.063   5.231   0.148  0.6514  0.1826  2.3988
15253SOL    HW247692   1.144   5.357   0.170 -0.2003  1.4621 -1.1476
15254SOL     OW47693   2.501   5.898   0.504 -0.0510  0.3068  0.1576
15254SOL    HW147694   2.533   5.884   0.593  0.6529 -0.4808 -0.2028
15254SOL    HW247695   2.513   5.813   0.461 -1.2777  0.3949 -0.4216
15255SOL     OW47696   2.251   8.188   4.339  0.6942 -0.2422  0.2479
15255SOL    HW147697   2.193   8.223   4.271  1.5293  1.0342  0.1375
15255SOL    HW247698   2.235   8.243   4.415  2.4597  0.8582 -0.1058
15256SOL     OW47699   5.164   6.425   7.176  0.3007 -0.0837  0.5190
15256SOL    HW147700   5.125   6.338   7.170  0.7288 -0.2239 -0.4480
15256SOL    HW247701   5.251   6.414   7.137  0.7161  0.5667  1.2445
15257SOL     OW47702   5.524   5.858   1.223 -0.1300 -0.0331  0.3794
15257SOL    HW147703   5.546   5.765   1.231 -2.3322 -0.4739  2.6123
15257SOL    HW247704   5.493   5.868   1.133 -0.0582 -1.5009  0.1730
15258SOL     OW47705   5.724   1.769   1.825  0.1437 -0.0434 -0.1070
15258SOL    HW147706   5.789   1.833   1.856  0.0393  0.2815 -0.5537
15258SOL    HW247707   5.679   1.741   1.905  0.5505  0.0408  0.1568
15259SOL     OW47708   4.806   8.788   5.140  0.6664 -0.7028 -0.2883
15259SOL    HW147709   4.732   8.731   5.123  1.4607 -2.0230  0.5551
15259SOL    HW247710   4.874   8.731   5.177  0.7818  1.0724  2.5947
15260SOL     OW47711   4.198   3.561   0.805 -0.2642  0.2500 -0.0667
15260SOL    HW147712   4.104   3.570   0.824 -0.4738 -1.5733 -0.1313
15260SOL    HW247713   4.233   3.512   0.879  0.7168  1.0880  0.0584
15261SOL     OW47714   2.869   8.559   1.260  0.8806 -0.2918 -0.3514
15261SOL    HW147715   2.922   8.616   1.317  2.4289  0.2908 -2.2468
15261SOL    HW247716   2.934   8.506   1.214 -0.3849 -1.4201 -0.8688
15262SOL     OW47717   6.965   2.742   7.202  0.5404  0.3196  0.7775
15262SOL    HW147718   7.038   2.681   7.198  0.0318 -0.9458  5.0069
15262SOL    HW247719   6.888   2.690   7.178  0.5305  0.3839  0.6688
15263SOL     OW47720   8.790   8.099   2.712  0.0578  0.3819  0.1168
15263SOL    HW147721   8.861   8.106   2.777 -0.2143  0.2722  0.4294
15263SOL    HW247722   8.733   8.173   2.731 -0.2331  0.1230  0.2625
15264SOL     OW47723   1.919   4.115   5.136  0.0358  0.5684 -0.4012
15264SOL    HW147724   1.917   4.210   5.149 -1.4353  0.4142  0.9249
15264SOL    HW247725   1.899   4.079   5.223  1.6072 -0.9961 -0.6415
15265SOL     OW47726   5.061   6.051   0.472  0.0479 -0.3948 -0.1943
15265SOL    HW147727   5.114   5.998   0.532 -1.4397 -1.4017  0.2809
15265SOL    HW247728   5.012   6.110   0.529 -2.0520 -1.9665 -0.2737
15266SOL     OW47729   0.542   2.834   7.250 -0.7623  0.3451  0.2497
15266SOL    HW147730   0.510   2.913   7.294  0.0557  0.4021  0.7675
15266SOL    HW247731   0.608   2.866   7.188 -1.1243  0.1556 -0.2434
15267SOL     OW47732   2.695   0.912   1.627  0.3904  0.3784 -0.2822
15267SOL    HW147733   2.748   0.967   1.570 -0.3061 -2.5551 -4.1545
15267SOL    HW247734   2.610   0.906   1.584 -0.1592 -2.1478  0.9330
15268SOL     OW47735   5.692   0.171   7.303  0.5576 -0.0939 -0.0183
15268SOL    HW147736   5.654   0.213   7.380 -0.2752 -0.7042 -0.0841
15268SOL    HW247737   5.618   0.129   7.260  1.5464 -3.0394  0.9328
15269SOL     OW47738   5.618   4.294   6.392 -0.5000  0.5367  0.0645
15269SOL    HW147739   5.528   4.273   6.368 -0.0280 -1.4208 -0.1406
15269SOL    HW247740   5.667   4.282   6.310  0.0251  1.1584  0.2807
15270SOL     OW47741   0.367   2.149   7.926 -0.6421  0.7701  0.0380
15270SOL    HW147742   0.414   2.073   7.891 -2.4176 -0.4050  0.1140
15270SOL    HW247743   0.423   2.223   7.902  1.1076 -0.5135 -0.1240
15271SOL     OW47744   6.073   3.228   6.225  0.4499  0.3562  0.3906
15271SOL    HW147745   6.164   3.226   6.253  0.7417  1.8311 -0.3615
15271SOL    HW247746   6.070   3.172   6.148  0.3201 -1.0919  1.4033
15272SOL     OW47747   7.932   2.400   6.376  0.2688 -0.4336  0.2738
15272SOL    HW147748   7.926   2.304   6.381  1.4650 -0.6162 -0.9653
15272SOL    HW247749   8.023   2.418   6.398  0.1735  0.3701  0.0222
15273SOL     OW47750   5.696   3.149   4.847 -0.4008  0.4498  0.0326
15273SOL    HW147751   5.785   3.183   4.859 -0.7824  1.2011  0.9042
15273SOL    HW247752   5.688   3.134   4.753  0.6025  0.4979 -0.0666
15274SOL     OW47753   8.642   8.666   3.039 -0.0135 -0.5161 -0.1122
15274SOL    HW147754   8.683   8.713   3.111  0.5129  0.1140 -0.8137
15274SOL    HW247755   8.712   8.612   3.002  0.0916  0.2077 -1.0122
15275SOL     OW47756   3.744   4.069   6.644 -0.1456  0.4207 -0.1109
15275SOL    HW147757   3.775   4.117   6.567  1.0150 -0.6239 -0.3373
15275SOL    HW247758   3.742   3.977   6.615  0.5375 -0.0166  1.1485
15276SOL     OW47759   1.598   2.619   5.214 -0.0720  0.1564 -0.1702
15276SOL    HW147760   1.676   2.565   5.219  2.1479  2.9113 -2.1528
15276SOL    HW247761   1.602   2.674   5.292 -1.1946 -1.0031  0.7531
15277SOL     OW47762   1.875   2.123   8.417 -0.3899  0.3938  0.5590
15277SOL    HW147763   1.804   2.083   8.467 -2.4717  1.1000 -1.6551
15277SOL    HW247764   1.904   2.196   8.471 -2.4929  1.0913  0.8379
15278SOL     OW47765   3.659   5.535   8.280 -0.5340 -0.3330 -0.3865
15278SOL    HW147766   3.695   5.622   8.295 -0.5918  0.0758 -2.3253
15278SOL    HW247767   3.603   5.518   8.356 -0.6082  1.3486 -0.0369
15279SOL     OW47768   1.578   2.482   1.404 -0.3754  0.2655 -0.4027
15279SOL    HW147769   1.662   2.485   1.448 -0.6846 -2.1423  0.4679
15279SOL    HW247770   1.514   2.494   1.474 -0.8636 -3.4058 -0.0176
15280SOL     OW47771   0.547   1.707   6.047  0.1371  0.4726 -0.1421
15280SOL    HW147772   0.548   1.631   6.105  0.8514  1.5487  1.3192
15280SOL    HW247773   0.616   1.689   5.983  0.8013  0.2238  0.6364
15281SOL     OW47774   3.355   0.348   4.754 -0.1199  0.2797  0.2443
15281SOL    HW147775   3.342   0.258   4.783  3.3484 -0.0624  1.2783
15281SOL    HW247776   3.383   0.340   4.663  0.6904  0.2044  0.4864
15282SOL     OW47777   8.068   3.840   5.178  0.1562 -0.3424 -0.0050
15282SOL    HW147778   8.042   3.826   5.269  1.6015 -2.9074  0.1187
15282SOL    HW247779   8.161   3.864   5.182 -0.1514  1.1422 -0.7771
15283SOL     OW47780   1.917   4.404   5.187  0.3663  0.6569 -0.1510
15283SOL    HW147781   1.856   4.475   5.165  0.3267  0.3571 -1.0766
15283SOL    HW247782   1.989   4.415   5.125  0.0556 -0.4803 -0.7384
15284SOL     OW47783   5.869   4.286   2.440 -0.4789 -0.2356 -0.0599
15284SOL    HW147784   5.858   4.315   2.349 -0.0726  0.3440  0.0735
15284SOL    HW247785   5.874   4.366   2.491 -1.9454 -0.5564  0.6462
15285SOL     OW47786   2.742   2.201   0.932  0.0021 -0.2764 -0.1289
15285SOL    HW147787   2.658   2.218   0.889 -0.2568  0.3369  0.5921
15285SOL    HW247788   2.722   2.134   0.997 -0.0270  0.1808  0.3379
15286SOL     OW47789   1.675   6.104   7.440 -0.3132 -0.3851  0.1536
15286SOL    HW147790   1.759   6.059   7.443 -0.7335 -1.5251 -2.4636
15286SOL    HW247791   1.633   6.082   7.523  1.4535 -0.7429  1.0106
15287SOL     OW47792   7.535   2.595   2.845 -0.2304 -0.6592  0.2220
15287SOL    HW147793   7.524   2.504   2.816  0.7128 -1.3077  1.7889
15287SOL    HW247794   7.605   2.629   2.789 -2.3995  0.0554 -2.2838
15288SOL     OW47795   5.526   7.611   7.792  0.2751  0.1793  0.2867
15288SOL    HW147796   5.554   7.698   7.820 -1.3329  1.1912 -1.0604
15288SOL    HW247797   5.548   7.607   7.699  1.7502 -1.5031  0.6518
15289SOL     OW47798   7.844   8.729   5.863 -0.0558  0.3118  0.9014
15289SOL    HW147799   7.749   8.715   5.867  0.2666 -2.1737  1.6820
15289SOL    HW247800   7.865   8.724   5.770 -0.6336  0.6145  0.7474
15290SOL     OW47801   2.424   2.040   1.549  0.0672  0.1817  0.1902
15290SOL    HW147802   2.365   2.101   1.505 -0.4590 -0.3578  0.1361
15290SOL    HW247803   2.393   1.953   1.522  0.6050 -0.1164  0.5223
15291SOL     OW47804   6.242   3.699   0.808 -0.3761 -0.2842  0.1025
15291SOL    HW147805   6.330   3.693   0.772 -0.2759  1.6494 -0.0520
15291SOL    HW247806   6.213   3.608   0.816  1.0551 -0.8964 -1.2571
15292SOL     OW47807   1.646   3.427   1.867  0.4877 -0.1009 -0.3910
15292SOL    HW147808   1.687   3.358   1.816 -0.3516 -1.1338  0.2836
15292SOL    HW247809   1.700   3.434   1.946 -1.0464 -2.0887  0.9189
15293SOL     OW47810   3.908   6.995   3.262 -0.0789  0.0914 -0.2351
15293SOL    HW147811   3.841   6.967   3.199  0.9831 -0.7316 -1.0539
15293SOL    HW247812   3.927   6.916   3.314  0.4464  0.2263 -0.2090
15294SOL     OW47813   1.695   1.046   2.343 -0.3593 -0.3534 -0.1277
15294SOL    HW147814   1.611   1.006   2.321  0.2150 -1.0311 -1.1325
15294SOL    HW247815   1.735   1.066   2.259  0.7365 -0.5733  0.3243
15295SOL     OW47816   6.194   6.204   8.339 -0.2562  0.6425  0.3815
15295SOL    HW147817   6.182   6.292   8.373 -1.1056  1.3447 -1.5908
15295SOL    HW247818   6.177   6.147   8.414 -0.6275  2.1247  1.4707
15296SOL     OW47819   3.122   3.825   3.085  0.5355 -0.1422 -0.4046
15296SOL    HW147820   3.175   3.808   3.162  1.4036 -0.8965 -1.1399
15296SOL    HW247821   3.040   3.777   3.101  1.1545 -1.2449 -0.4274
15297SOL     OW47822   2.934   7.652   3.853 -0.0040 -0.1311 -0.1143
15297SOL    HW147823   2.961   7.674   3.764  1.3305  0.1410  0.3409
15297SOL    HW247824   2.969   7.722   3.907  0.0565 -0.8133  0.7549
15298SOL     OW47825   2.074   8.768   1.102 -0.0182  0.5128 -0.3856
15298SOL    HW147826   2.125   8.695   1.136  1.4999  2.0140  0.7352
15298SOL    HW247827   2.067   8.829   1.176 -0.3650  1.9454 -1.5537
15299SOL     OW47828   0.842   4.448   2.303  0.2611  0.7378 -0.1170
15299SOL    HW147829   0.753   4.445   2.266  0.6382  0.5579 -1.0214
15299SOL    HW247830   0.897   4.405   2.238  0.8331 -0.2747  1.0047
15300SOL     OW47831   5.380   8.421   5.200 -0.1823  0.2900 -0.1247
15300SOL    HW147832   5.417   8.508   5.184 -0.8906  0.5519 -0.3511
15300SOL    HW247833   5.377   8.379   5.114 -0.2491  0.2028 -0.0805
15301SOL     OW47834   2.947   8.719   7.656  0.3227 -0.2874 -0.1188
15301SOL    HW147835   3.005   8.668   7.713  1.5626 -0.2150 -1.2601
15301SOL    HW247836   2.954   8.809   7.687  0.3544 -0.3679  0.1084
15302SOL     OW47837   7.090   8.143   2.459 -0.0508 -0.5435 -0.4492
15302SOL    HW147838   7.028   8.146   2.532  1.0545 -3.2122  0.7211
15302SOL    HW247839   7.165   8.194   2.489 -0.2110 -0.3691 -0.3495
15303SOL     OW47840   1.523   6.341   0.667 -0.1334  0.0736 -0.1554
15303SOL    HW147841   1.528   6.246   0.681 -1.8097 -0.2179 -1.2112
15303SOL    HW247842   1.479   6.375   0.745 -2.1577 -0.4581 -0.9878
15304SOL     OW47843   2.757   3.779   4.147  0.4694  0.1542 -0.0122
15304SOL    HW147844   2.760   3.773   4.051 -0.0405 -0.2786 -0.0092
15304SOL    HW247845   2.663   3.783   4.167  0.5998  1.1420  0.4230
15305SOL     OW47846   3.434   5.240   8.313  0.3058  0.2852  0.1706
15305SOL    HW147847   3.433   5.318   8.368 -0.2686  0.6771 -0.3778
15305SOL    HW247848   3.471   5.269   8.230 -0.2066  0.0665 -0.1449
15306SOL     OW47849   6.070   5.111   4.694  0.0133 -0.1455 -0.3378
15306SOL    HW147850   6.143   5.136   4.751  0.1128  1.1568 -0.9947
15306SOL    HW247851   6.006   5.181   4.705 -1.0367 -1.1310  0.0069
15307SOL     OW47852   7.648   1.250   0.190  0.3839  0.5280 -0.2851
15307SOL    HW147853   7.612   1.258   0.278  0.4680  0.8103 -0.2744
15307SOL    HW247854   7.672   1.340   0.165 -0.3350  0.5634 -0.8931
15308SOL     OW47855   6.303   3.217   5.649 -0.5448 -0.2954  0.2728
15308SOL    HW147856   6.302   3.304   5.610 -0.3791 -1.0545 -1.5323
15308SOL    HW247857   6.288   3.232   5.742  2.8212  1.9221  0.5995
15309SOL     OW47858   3.229   1.323   7.593  0.4252 -0.1681  0.4011
15309SOL    HW147859   3.135   1.340   7.601 -0.4174 -2.3005 -2.9291
15309SOL    HW247860   3.246   1.253   7.656 -0.2743  0.0628  0.8549
15310SOL     OW47861   5.358   2.367   6.075 -0.1954 -0.1984  0.2014
15310SOL    HW147862   5.331   2.299   6.137  1.7874  0.9249  2.4674
15310SOL    HW247863   5.311   2.445   6.104 -1.0208 -0.1397 -1.2169
15311SOL     OW47864   0.535   6.240   1.842  0.0638  0.1156  0.0515
15311SOL    HW147865   0.594   6.277   1.776 -0.8222  1.4247 -0.0426
15311SOL    HW247866   0.536   6.304   1.913  0.2824 -0.8300  0.9296
15312SOL     OW47867   6.093   5.616   1.271  0.3229  0.0318  0.4496
15312SOL    HW147868   6.011   5.665   1.272 -0.1476 -0.7431  0.1270
15312SOL    HW247869   6.131   5.634   1.185 -0.5138 -1.2359 -0.2096
15313SOL     OW47870   6.751   2.217   6.885  0.4308  0.3385  0.5127
15313SOL    HW147871   6.750   2.281   6.814 -0.5301  0.0651  0.2618
15313SOL    HW247872   6.737   2.268   6.964  1.7753  0.6790  0.5637
15314SOL     OW47873   3.920   5.577   5.086 -0.4548 -0.0461  0.2586
15314SOL    HW147874   3.988   5.509   5.089 -1.1127 -0.7194  0.0936
15314SOL    HW247875   3.928   5.614   4.999 -0.9599 -0.8278 -0.1343
15315SOL     OW47876   2.334   4.255   7.170  0.2474 -0.0267  0.3421
15315SOL    HW147877   2.413   4.230   7.217  0.5473  1.2204  0.5124
15315SOL    HW247878   2.263   4.215   7.221  0.5898  0.9687  1.6471
15316SOL     OW47879   1.360   1.950   5.516 -0.1271 -0.1182 -0.3040
15316SOL    HW147880   1.298   2.022   5.523  1.6715  1.6283 -1.3114
15316SOL    HW247881   1.430   1.972   5.577  1.6715  0.3915 -2.4114
15317SOL     OW47882   3.354   7.575   3.663 -0.2317 -0.2719  0.5120
15317SOL    HW147883   3.270   7.614   3.686  0.0365 -0.4585  1.9078
15317SOL    HW247884   3.343   7.482   3.681 -0.4108 -0.6756 -1.4473
15318SOL     OW47885   4.094   4.170   3.846 -0.0285  0.5646 -0.1604
15318SOL    HW147886   4.165   4.231   3.823 -0.0746  0.4185 -0.7079
15318SOL    HW247887   4.118   4.138   3.932  2.0519 -1.5644 -1.4049
15319SOL     OW47888   7.590   1.896   6.413  0.1076  0.2089  0.4052
15319SOL    HW147889   7.672   1.848   6.425 -0.6952 -0.9342  1.6182
15319SOL    HW247890   7.531   1.832   6.373 -0.6515  0.5310  0.9873
15320SOL     OW47891   1.940   8.793   7.089  0.8305  0.4725 -0.3680
15320SOL    HW147892   1.903   8.739   7.019  1.3188  0.3767 -0.5602
15320SOL    HW247893   2.028   8.814   7.058  1.1324  0.2483  0.3210
15321SOL     OW47894   0.679   7.250   4.074 -0.0025 -0.7394 -0.1662
15321SOL    HW147895   0.628   7.327   4.050  0.1464  0.1532  2.1444
15321SOL    HW247896   0.727   7.277   4.152  1.2299 -2.7085 -0.1933
15322SOL     OW47897   8.626   7.331   0.426  0.0389  0.0084 -0.6696
15322SOL    HW147898   8.583   7.408   0.462 -0.6676 -1.0165  0.7979
15322SOL    HW247899   8.610   7.262   0.491  1.8255 -1.0339 -1.2477
15323SOL     OW47900   1.717   5.718   3.069  0.3801  0.0617  0.4749
15323SOL    HW147901   1.630   5.685   3.049  1.2533 -0.7111 -2.5018
15323SOL    HW247902   1.731   5.791   3.009  2.0038 -0.2608  0.3969
15324SOL     OW47903   5.295   0.374   4.491  0.0119  0.0055  0.0109
15324SOL    HW147904   5.344   0.422   4.425 -0.1385  0.7237  0.4151
15324SOL    HW247905   5.215   0.346   4.446  1.1186 -1.9042 -0.9022
15325SOL     OW47906   3.482   1.556   4.995 -0.9678 -0.1852 -0.0484
15325SOL    HW147907   3.501   1.570   4.902  1.1765  1.0882  0.5027
15325SOL    HW247908   3.512   1.467   5.013  0.6344  0.3013 -0.1657
15326SOL     OW47909   7.053   4.605   6.493 -0.5854  0.3366 -0.0370
15326SOL    HW147910   6.966   4.616   6.530 -0.2009 -1.1763  1.4413
15326SOL    HW247911   7.086   4.524   6.531  1.6841  1.1268 -0.1387
15327SOL     OW47912   5.766   5.931   7.942  0.2334 -0.1306 -0.0528
15327SOL    HW147913   5.696   5.977   7.897 -0.8064 -1.0646  0.5698
15327SOL    HW247914   5.771   5.973   8.028  1.1849  0.6435 -0.4690
15328SOL     OW47915   3.039   1.650   8.099 -0.1380  0.6545  0.5084
15328SOL    HW147916   3.058   1.562   8.133 -0.9555  0.0637 -0.4954
15328SOL    HW247917   2.954   1.672   8.137  0.4334  1.3689  1.4005
15329SOL     OW47918   3.094   6.364   7.754  0.1899  0.6221 -0.1623
15329SOL    HW147919   3.019   6.347   7.810  0.0070 -0.6369 -0.7614
15329SOL    HW247920   3.169   6.327   7.801  0.1571  0.2926 -0.3625
15330SOL     OW47921   1.930   5.701   0.830 -0.6560 -0.1003  0.2964
15330SOL    HW147922   1.998   5.656   0.881  0.2354  0.5198 -0.3070
15330SOL    HW247923   1.934   5.792   0.860 -1.4060 -0.1113  0.4369
15331SOL     OW47924   2.508   1.172   8.322 -0.0126  0.2976  0.1256
15331SOL    HW147925   2.541   1.152   8.409 -1.0042 -0.0817  0.4277
15331SOL    HW247926   2.545   1.103   8.266  0.0522  0.1262  0.3782
15332SOL     OW47927   6.045   6.016   7.300 -0.8078 -0.2333  0.2108
15332SOL    HW147928   6.123   5.965   7.279 -0.7460 -0.6856  1.4840
15332SOL    HW247929   5.972   5.956   7.285 -0.9213  0.1291 -0.7870
15333SOL     OW47930   3.361   3.662   6.103 -0.0145  0.2134  0.4142
15333SOL    HW147931   3.371   3.744   6.055  2.3112  0.3204  0.9455
15333SOL    HW247932   3.370   3.687   6.195 -4.0546 -0.0384  1.0521
15334SOL     OW47933   3.053   1.608   6.472 -0.1316  0.6378 -0.6629
15334SOL    HW147934   3.048   1.703   6.458  0.2810  0.5052 -1.8480
15334SOL    HW247935   2.982   1.573   6.419 -1.0114  0.3465  0.6786
15335SOL     OW47936   0.100   0.881   0.604 -0.2435 -0.6342 -0.2830
15335SOL    HW147937   0.191   0.873   0.634  0.9278  4.3241 -1.6025
15335SOL    HW247938   0.105   0.867   0.509 -0.0758  2.5825 -0.8642
15336SOL     OW47939   7.572   7.773   0.328  0.1466 -0.4477  0.3286
15336SOL    HW147940   7.492   7.763   0.379  0.7773  0.9326  1.6887
15336SOL    HW247941   7.601   7.684   0.310 -0.7390 -0.9713  1.3967
15337SOL     OW47942   4.091   3.273   3.260 -0.0692 -0.3477 -0.6938
15337SOL    HW147943   4.093   3.186   3.301  2.7819 -0.0086  0.1073
15337SOL    HW247944   4.106   3.255   3.167 -2.3416 -0.8274 -1.0340
15338SOL     OW47945   2.371   4.260   6.008  0.7314  0.2392  0.2132
15338SOL    HW147946   2.331   4.344   6.030 -0.0309  0.2765 -1.1891
15338SOL    HW247947   2.465   4.273   6.022  0.6348  1.3644 -0.1350
15339SOL     OW47948   1.800   2.850   3.821 -0.6276  0.0598  0.2195
15339SOL    HW147949   1.724   2.795   3.843  0.6643 -1.6023  0.7151
15339SOL    HW247950   1.851   2.854   3.901 -0.8056  2.3045  0.2830
15340SOL     OW47951   3.250   1.629   2.886  0.0274 -0.3096  0.5420
15340SOL    HW147952   3.319   1.672   2.836  0.0011 -2.0918 -1.1268
15340SOL    HW247953   3.288   1.616   2.973  0.4064  2.0115  0.8015
15341SOL     OW47954   3.549   2.398   6.278 -0.1039  0.5041  0.6104
15341SOL    HW147955   3.548   2.427   6.369 -0.1645 -0.7374  1.0210
15341SOL    HW247956   3.620   2.334   6.274  0.6685  1.3908 -0.5010
15342SOL     OW47957   0.931   8.681   6.955  0.4031  0.4173 -0.3939
15342SOL    HW147958   0.893   8.594   6.964  0.3404  0.5344  0.6977
15342SOL    HW247959   0.885   8.721   6.882 -1.5218  0.5041  0.7943
15343SOL     OW47960   0.005   6.900   3.863  0.1822  0.3506  0.0708
15343SOL    HW147961  -0.000   6.922   3.956  2.5192 -0.4802  0.4723
15343SOL    HW247962   0.097   6.878   3.849 -0.6517 -2.4829 -1.7715
15344SOL     OW47963   6.898   7.297   6.992 -0.5964  0.6894  0.7683
15344SOL    HW147964   6.805   7.272   6.996 -0.1867 -1.4790 -1.1762
15344SOL    HW247965   6.943   7.233   7.046  0.1468 -1.1979 -1.8692
15345SOL     OW47966   7.212   4.384   4.947 -0.2789  0.4536 -0.7002
15345SOL    HW147967   7.138   4.380   4.886 -0.0983  0.8712 -0.9513
15345SOL    HW247968   7.253   4.297   4.940 -1.1869 -0.0552  0.0134
15346SOL     OW47969   2.915   6.792   0.395  0.3277 -0.0069  0.1068
15346SOL    HW147970   2.870   6.828   0.319  0.7417 -1.6548 -0.9861
15346SOL    HW247971   3.000   6.836   0.395  0.8094 -0.8767 -1.1724
15347SOL     OW47972   2.122   2.900   0.040  0.2453  0.0785  0.1539
15347SOL    HW147973   2.136   2.836  -0.030  0.0730 -0.7867  0.8906
15347SOL    HW247974   2.051   2.864   0.092  2.0829 -0.6721  2.3252
15348SOL     OW47975   0.284   6.943   1.150 -0.2746 -0.0416 -0.0076
15348SOL    HW147976   0.347   6.999   1.103 -2.1480  1.8316 -0.4233
15348SOL    HW247977   0.281   6.863   1.098  1.0161  0.2226 -0.5409
15349SOL     OW47978   0.547   2.823   4.988 -0.3745  0.3803  0.3130
15349SOL    HW147979   0.498   2.884   5.044 -1.3673 -2.0170  2.2212
15349SOL    HW247980   0.480   2.765   4.952  0.6575 -0.3649 -0.4553
15350SOL     OW47981   8.284   6.381   0.416 -0.2455 -0.0120 -0.7385
15350SOL    HW147982   8.333   6.450   0.371 -0.4790 -0.0145 -1.0012
15350SOL    HW247983   8.268   6.315   0.348 -0.1475 -0.2588 -0.5239
15351SOL     OW47984   4.527   2.529   3.812  0.6376 -0.3838  0.1994
15351SOL    HW147985   4.569   2.593   3.753 -0.5202 -0.1467 -0.3937
15351SOL    HW247986   4.438   2.562   3.824  0.4779 -1.1077  1.0876
15352SOL     OW47987   1.320   3.649   5.748 -0.1521  0.1664  0.2564
15352SOL    HW147988   1.404   3.605   5.736 -0.1840 -0.6282  2.4505
15352SOL    HW247989   1.263   3.582   5.786 -1.0759  1.3037  0.9726
15353SOL     OW47990   5.400   4.590   2.608 -0.0059 -0.4110  0.2248
15353SOL    HW147991   5.476   4.578   2.665  0.2888 -0.5645 -0.1939
15353SOL    HW247992   5.349   4.659   2.650  0.8285  0.3342  0.0465
15354SOL     OW47993   4.517   7.489   1.186 -0.0279 -0.0432 -0.3302
15354SOL    HW147994   4.536   7.490   1.279  0.3983  0.1836 -0.4174
15354SOL    HW247995   4.600   7.514   1.144 -0.5438  1.0873 -0.7148
15355SOL     OW47996   8.046   2.276   4.503 -0.2203 -0.1109 -0.3043
15355SOL    HW147997   8.033   2.316   4.417  3.2307  1.3278 -0.3123
15355SOL    HW247998   8.066   2.349   4.561 -1.5146 -1.1602  1.5730
15356SOL     OW47999   1.997   8.209   6.834  0.0760  0.1287  0.0988
15356SOL    HW148000   2.064   8.154   6.793  0.5833 -0.1505  1.2525
15356SOL    HW248001   2.045   8.280   6.874 -0.4164  0.4436  0.1410
15357SOL     OW48002   6.752   6.742   0.219  0.0755 -0.0212  0.2674
15357SOL    HW148003   6.813   6.669   0.217  1.6528  1.0829  2.7977
15357SOL    HW248004   6.764   6.786   0.134  1.1275 -1.1185 -0.1742
15358SOL     OW48005   4.473   5.642   5.777  0.1599  0.4061  0.0404
15358SOL    HW148006   4.470   5.676   5.867 -1.0183  1.5816 -0.4087
15358SOL    HW248007   4.476   5.720   5.722 -2.6899 -0.1278 -1.0425
15359SOL     OW48008   1.041   8.516   0.364 -0.1261  0.5836  0.0523
15359SOL    HW148009   1.052   8.455   0.437 -0.7026 -0.2413 -0.5332
15359SOL    HW248010   1.106   8.584   0.380  1.9682 -1.2108 -0.3324
15360SOL     OW48011   0.416   0.480   2.092  0.0845  0.0319 -0.3184
15360SOL    HW148012   0.372   0.486   2.007  0.6740  0.1105 -0.6236
15360SOL    HW248013   0.467   0.561   2.098  0.5472 -0.2626 -0.1799
15361SOL     OW48014   4.188   4.893   1.694  0.1226  0.4606 -0.6083
15361SOL    HW148015   4.156   4.964   1.750 -2.0745  0.6097 -1.9070
15361SOL    HW248016   4.250   4.845   1.748 -0.4807  1.6930  1.2748
15362SOL     OW48017   5.593   3.763   6.885 -0.1052  0.2727  0.1693
15362SOL    HW148018   5.511   3.799   6.852  0.4853  2.8829  1.3114
15362SOL    HW248019   5.634   3.835   6.932  2.8519 -0.9583 -0.3064
15363SOL     OW48020   4.222   0.960   4.558  0.1825 -0.1053 -0.6667
15363SOL    HW148021   4.313   0.932   4.565  0.4322  0.8164  0.2074
15363SOL    HW248022   4.176   0.886   4.519  1.3114 -0.5660 -1.1613
15364SOL     OW48023   6.674   7.481   4.706 -0.1522  0.1706 -0.5158
15364SOL    HW148024   6.729   7.513   4.635 -0.6161  2.3565  0.0025
15364SOL    HW248025   6.732   7.429   4.761  0.2013 -1.5936 -2.4656
15365SOL     OW48026   5.412   4.328   8.045  0.5462 -0.3029  0.4787
15365SOL    HW148027   5.407   4.411   8.093 -0.0714 -0.8213  1.3260
15365SOL    HW248028   5.424   4.262   8.112  1.5269 -0.8764 -0.2294
15366SOL     OW48029   3.727   7.007   7.331  0.0402  0.0472  0.1420
15366SOL    HW148030   3.799   7.002   7.393  0.8893  2.4055 -0.5020
15366SOL    HW248031   3.761   7.062   7.260 -1.7643 -0.3733 -1.1317
15367SOL     OW48032   5.635   3.972   6.342  0.1253  0.2960  0.1436
15367SOL    HW148033   5.698   3.978   6.271 -1.1560  0.9965 -0.9686
15367SOL    HW248034   5.634   4.059   6.380 -0.0381  0.2285  0.2934
15368SOL     OW48035   0.697   0.617   0.502  0.2734 -0.4980  0.1530
15368SOL    HW148036   0.768   0.641   0.562 -0.8966 -0.6738  1.6799
15368SOL    HW248037   0.741   0.569   0.432  1.6807 -0.5502  1.0081
15369SOL     OW48038   3.996   3.780   7.730  0.5013 -0.2547  0.1859
15369SOL    HW148039   3.988   3.735   7.814 -2.0394 -0.8894 -0.3181
15369SOL    HW248040   3.955   3.866   7.744 -1.1112 -0.8350 -0.6664
15370SOL     OW48041   5.260   2.761   8.122  0.4451  0.3164 -0.6054
15370SOL    HW148042   5.321   2.716   8.064  1.3097  0.1136  0.4320
15370SOL    HW248043   5.245   2.698   8.193  0.6421  1.1549  0.1945
15371SOL     OW48044   0.318   0.395   5.479 -0.4595  0.5768 -0.0557
15371SOL    HW148045   0.361   0.480   5.475 -1.2806  1.0991  1.3979
15371SOL    HW248046   0.250   0.406   5.545 -0.6182 -1.2057  0.1229
15372SOL     OW48047   5.516   7.424   3.132 -0.3845 -0.3619  0.1184
15372SOL    HW148048   5.565   7.468   3.202  1.2770 -2.1859  0.1964
15372SOL    HW248049   5.583   7.385   3.076 -1.6807 -2.7815  0.0755
15373SOL     OW48050   2.303   7.655   0.340  0.2865 -0.3603  0.7105
15373SOL    HW148051   2.382   7.679   0.291  0.8139 -0.3427  1.5451
15373SOL    HW248052   2.263   7.738   0.363 -0.4812 -0.3779 -0.4842
15374SOL     OW48053   1.234   4.435   7.555 -0.2837 -0.5162 -0.9008
15374SOL    HW148054   1.279   4.352   7.568 -0.7484 -0.5593  0.5990
15374SOL    HW248055   1.144   4.419   7.584  0.2955  1.2455  2.3564
15375SOL     OW48056   3.338   6.594   0.830  0.2439 -0.0394  0.6568
15375SOL    HW148057   3.310   6.521   0.776  0.9633  1.5621 -2.0940
15375SOL    HW248058   3.424   6.569   0.863  1.6377  0.3761 -2.3028
15376SOL     OW48059   5.707   8.460   5.583  0.0704  0.3152 -0.5538
15376SOL    HW148060   5.672   8.381   5.541 -0.4587  0.9455 -1.3165
15376SOL    HW248061   5.641   8.527   5.568  0.7305  1.0322 -0.3256
15377SOL     OW48062   6.939   0.239   3.741 -0.0056 -0.6105  0.2268
15377SOL    HW148063   6.924   0.184   3.664  0.0016  1.7931 -1.6061
15377SOL    HW248064   7.031   0.224   3.763 -0.3973 -2.4633  0.7872
15378SOL     OW48065   1.665   0.151   1.515 -0.0015 -0.0579  0.1475
15378SOL    HW148066   1.597   0.198   1.564  0.8019  0.7197  0.5489
15378SOL    HW248067   1.733   0.217   1.498  0.3826 -0.6600 -0.7887
15379SOL     OW48068   7.566   5.142   7.232 -0.0224 -0.1996  0.1593
15379SOL    HW148069   7.548   5.135   7.326 -0.8096  0.0777  0.0376
15379SOL    HW248070   7.489   5.102   7.191  1.3152 -2.4336 -0.3591
15380SOL     OW48071   3.924   5.899   8.130  0.1399  0.5356  0.1483
15380SOL    HW148072   3.955   5.823   8.081 -3.0724  1.6927 -4.2869
15380SOL    HW248073   3.996   5.962   8.123  0.8080 -0.2973 -0.7880
15381SOL     OW48074   7.850   6.018   3.189 -0.5927 -0.8118 -0.4754
15381SOL    HW148075   7.939   5.998   3.218  0.3519  1.9469 -1.0905
15381SOL    HW248076   7.823   5.941   3.139  1.4224 -1.7652 -0.2008
15382SOL     OW48077   3.591   5.215   3.300  0.1760  0.1118  0.5468
15382SOL    HW148078   3.569   5.282   3.236 -0.7964  0.7773  1.5336
15382SOL    HW248079   3.686   5.214   3.303  0.2363  0.0815 -0.8691
15383SOL     OW48080   7.616   3.737   4.908 -0.2188 -0.0200  0.1843
15383SOL    HW148081   7.700   3.769   4.940  0.5477 -1.7280  0.0231
15383SOL    HW248082   7.555   3.752   4.980 -0.1058  2.4057 -0.1670
15384SOL     OW48083   0.066   6.559   3.905  0.1616 -0.1277  0.4648
15384SOL    HW148084   0.052   6.560   3.999 -0.8277  0.7036  0.3252
15384SOL    HW248085  -0.011   6.514   3.870  0.9391 -1.2255  0.0985
15385SOL     OW48086   3.812   8.845   6.771  1.1193 -0.0433 -0.2500
15385SOL    HW148087   3.842   8.879   6.856  0.6388 -1.0828  0.3614
15385SOL    HW248088   3.804   8.750   6.785 -2.2972  0.1023 -0.3728
15386SOL     OW48089   1.957   1.470   0.655 -0.3353  0.1355 -0.4133
15386SOL    HW148090   2.002   1.498   0.734 -1.2213  0.3229  0.0318
15386SOL    HW248091   2.024   1.423   0.605  0.3544  0.4238  0.2223
15387SOL     OW48092   6.699   2.252   2.290 -0.3967 -0.6390  0.1291
15387SOL    HW148093   6.762   2.233   2.360 -0.7800 -0.0081  0.6489
15387SOL    HW248094   6.641   2.177   2.289  0.2644 -1.1618 -0.2556
15388SOL     OW48095   4.319   5.054   1.944 -0.1788 -0.5297  0.2672
15388SOL    HW148096   4.352   4.998   2.014  1.3084 -1.6908 -1.2821
15388SOL    HW248097   4.395   5.069   1.888 -1.2983  0.4417 -1.0507
15389SOL     OW48098   5.612   7.587   7.531  0.0963 -0.1562  0.0452
15389SOL    HW148099   5.608   7.587   7.435  0.6332 -2.3715 -0.0554
15389SOL    HW248100   5.618   7.679   7.556 -1.2819  0.5383 -1.9755
15390SOL     OW48101   2.174   2.012   3.576 -0.0496 -0.1809  0.9469
15390SOL    HW148102   2.114   1.938   3.573 -0.3623  0.0780 -1.0164
15390SOL    HW248103   2.258   1.975   3.605 -0.0780 -1.4238 -0.4620
15391SOL     OW48104   0.428   6.934   1.476 -0.4275 -0.1345 -0.3815
15391SOL    HW148105   0.451   7.021   1.507 -0.9355 -0.2090  0.2282
15391SOL    HW248106   0.332   6.935   1.470 -0.5342 -1.0146  0.7738
15392SOL     OW48107   3.594   7.604   5.588 -0.4135 -0.1150  0.0058
15392SOL    HW148108   3.619   7.603   5.681  3.8080 -0.8395 -0.9291
15392SOL    HW248109   3.564   7.693   5.572  0.9083  0.6793  1.6335
15393SOL     OW48110   8.222   4.997   3.760 -0.2596 -0.0923 -0.4622
15393SOL    HW148111   8.200   4.941   3.834  0.1536 -2.1427 -1.8057
15393SOL    HW248112   8.171   5.077   3.774 -0.3443 -0.4929  1.8916
15394SOL     OW48113   6.811   4.504   1.467 -0.1797 -0.0397 -0.2742
15394SOL    HW148114   6.824   4.583   1.520  1.0713 -0.5721  0.2523
15394SOL    HW248115   6.881   4.445   1.494  0.8921 -0.1229 -2.9251
15395SOL     OW48116   0.317   1.881   3.252 -0.6809 -0.0655  0.4617
15395SOL    HW148117   0.316   1.791   3.220  1.0742  0.7311 -2.1371
15395SOL    HW248118   0.241   1.921   3.211 -0.9735 -0.1257  0.9342
15396SOL     OW48119   2.671   1.746   2.840  0.4778  1.1139 -0.4683
15396SOL    HW148120   2.739   1.728   2.905  1.6887 -1.1884 -2.2651
15396SOL    HW248121   2.680   1.840   2.822  0.6646  1.6304  1.9975
15397SOL     OW48122   6.727   3.843   2.196  0.0769  0.1597  0.5065
15397SOL    HW148123   6.784   3.767   2.207  0.5107  0.5648  1.1613
15397SOL    HW248124   6.675   3.824   2.118  0.9625 -0.3116  0.0228
15398SOL     OW48125   1.684   2.728   0.418 -0.4064 -0.3491 -0.4010
15398SOL    HW148126   1.686   2.665   0.346 -0.5590 -1.3379  0.4266
15398SOL    HW248127   1.708   2.676   0.495 -3.5106 -0.1467  0.8352
15399SOL     OW48128   8.868   4.907   0.604 -0.5830 -0.2711  0.3378
15399SOL    HW148129   8.781   4.913   0.643 -0.8231  2.3850 -0.4134
15399SOL    HW248130   8.851   4.878   0.514 -0.5858 -0.6527  0.4586
15400SOL     OW48131   4.392   4.250   8.306 -1.1917  0.0205 -0.7606
15400SOL    HW148132   4.462   4.277   8.248 -1.1201  1.5223 -0.0217
15400SOL    HW248133   4.315   4.244   8.250 -1.1255  1.4352 -1.0468
15401SOL     OW48134   3.117   4.760   1.115 -0.2646  0.0756  0.1252
15401SOL    HW148135   3.189   4.821   1.131 -0.6799  1.3520 -2.3524
15401SOL    HW248136   3.145   4.678   1.156  3.1689  0.1717 -1.6924
15402SOL     OW48137   1.724   4.580   2.200  0.0282 -0.4592 -0.2744
15402SOL    HW148138   1.725   4.517   2.272  3.0816  0.1553  0.3800
15402SOL    HW248139   1.730   4.665   2.244  0.9766 -0.0203 -1.2271
15403SOL     OW48140   0.842   7.885   4.121 -0.0846 -0.6227 -0.0631
15403SOL    HW148141   0.905   7.834   4.172  0.2410 -0.6969 -0.5242
15403SOL    HW248142   0.806   7.823   4.058  0.1933 -0.3313 -0.5210
15404SOL     OW48143   1.338   1.892   5.155  0.7852 -0.6670  0.0632
15404SOL    HW148144   1.418   1.887   5.103  0.5647 -1.4438 -0.2095
15404SOL    HW248145   1.323   1.803   5.185 -0.9639 -0.9097 -1.4006
15405SOL     OW48146   8.451   2.053   4.685 -0.2136  0.3888  0.8657
15405SOL    HW148147   8.465   1.998   4.762 -0.4024 -0.4562  0.3186
15405SOL    HW248148   8.356   2.052   4.672 -0.0761 -0.9958 -0.4084
15406SOL     OW48149   6.493   4.325   6.897  0.2469  0.6742  0.4818
15406SOL    HW148150   6.416   4.292   6.944 -0.7640  0.7216 -1.0923
15406SOL    HW248151   6.468   4.323   6.805  1.3246  2.8228  0.0895
15407SOL     OW48152   7.470   4.411   8.682  0.0172  0.2023 -0.8516
15407SOL    HW148153   7.534   4.428   8.613  0.0830 -1.4050 -1.2446
15407SOL    HW248154   7.428   4.328   8.656  0.3465 -0.6914  1.2345
15408SOL     OW48155   6.078   2.549   4.050  0.1689 -0.2144  0.0275
15408SOL    HW148156   6.079   2.550   3.954 -0.9976 -2.5791 -0.0854
15408SOL    HW248157   5.996   2.594   4.074 -0.9629 -2.0128 -0.2645
15409SOL     OW48158   5.856   3.918   0.489 -0.0554  0.7979 -0.0113
15409SOL    HW148159   5.904   3.863   0.427 -0.3668  0.3454  0.1475
15409SOL    HW248160   5.794   3.859   0.532  1.0542  0.7802  1.6923
15410SOL     OW48161   4.441   8.855   2.527 -0.2665 -0.2203 -0.1728
15410SOL    HW148162   4.531   8.848   2.559 -0.4514 -2.4570  0.0530
15410SOL    HW248163   4.436   8.941   2.486  2.6919 -0.9012 -2.3053
15411SOL     OW48164   2.741   1.168   4.497 -0.1229  0.5082 -0.3879
15411SOL    HW148165   2.652   1.136   4.481 -0.0194  0.2987 -0.5512
15411SOL    HW248166   2.731   1.234   4.565 -0.5064  1.0681 -0.9710
15412SOL     OW48167   5.116   1.939   3.130  0.0133 -0.2430  0.1267
15412SOL    HW148168   5.109   1.849   3.162 -0.6288 -0.0923  0.4145
15412SOL    HW248169   5.099   1.933   3.036  2.0611 -0.7089 -0.2657
15413SOL     OW48170   4.057   8.456   0.885  0.4988 -0.3361  0.5235
15413SOL    HW148171   4.059   8.542   0.927 -0.2701  0.1097 -0.3104
15413SOL    HW248172   4.144   8.420   0.900  0.0824 -0.4507  2.9637
15414SOL     OW48173   1.960   3.736   8.169  0.0993 -0.2771  0.3763
15414SOL    HW148174   2.019   3.811   8.155 -0.7182  0.3008 -0.0162
15414SOL    HW248175   1.874   3.775   8.182 -0.3745 -1.1647 -0.0044
15415SOL     OW48176   4.073   7.960   0.715 -0.1163 -0.3589  0.1510
15415SOL    HW148177   4.147   7.929   0.766 -0.5212  1.2965  1.8519
15415SOL    HW248178   4.050   8.044   0.754 -3.1486 -0.9846 -0.0200
15416SOL     OW48179   6.631   4.836   3.656  0.2090 -0.4849 -0.5411
15416SOL    HW148180   6.557   4.787   3.693  0.5876 -0.5224  0.1904
15416SOL    HW248181   6.706   4.810   3.709  0.2739  1.5167  0.4377
15417SOL     OW48182   0.299   5.878   4.850 -0.2577  0.1041 -0.3007
15417SOL    HW148183   0.235   5.840   4.789  0.2344  1.5518 -1.7803
15417SOL    HW248184   0.248   5.942   4.900 -0.3577 -0.0560 -0.1968
15418SOL     OW48185   7.966   1.799   2.096  0.2011  0.1468  0.4470
15418SOL    HW148186   8.048   1.846   2.086  0.3484 -0.3547 -0.9205
15418SOL    HW248187   7.990   1.706   2.093 -0.4687 -0.0067 -0.7011
15419SOL     OW48188   2.234   2.417   4.971 -0.0521  0.1675 -0.4266
15419SOL    HW148189   2.161   2.362   4.942  0.3062  0.5114 -2.0471
15419SOL    HW248190   2.231   2.493   4.914  0.5743  0.9902  0.6021
15420SOL     OW48191   0.187   2.916   8.092  0.2357 -0.0749  0.0542
15420SOL    HW148192   0.172   2.827   8.125  1.9211 -0.2321  0.5046
15420SOL    HW248193   0.169   2.973   8.167  1.1381 -0.2086  0.3860
15421SOL     OW48194   8.832   8.804   5.862 -0.3381  0.1062  0.0552
15421SOL    HW148195   8.884   8.871   5.908 -0.9848  0.2249  0.6299
15421SOL    HW248196   8.742   8.821   5.890 -0.3639 -1.9285  1.3935
15422SOL     OW48197   4.030   0.835   6.770  0.3459 -0.1282 -0.1639
15422SOL    HW148198   4.115   0.874   6.788  1.1897 -1.7155 -0.4736
15422SOL    HW248199   4.023   0.764   6.833 -0.2292 -0.7277 -0.8835
15423SOL     OW48200   7.857   0.103   6.470  0.1527  0.4208  0.3340
15423SOL    HW148201   7.784   0.163   6.455  0.2071 -0.0559 -2.2992
15423SOL    HW248202   7.817   0.027   6.511 -0.6623  0.5873 -0.1371
15424SOL     OW48203   7.570   3.950   7.754  0.1084 -0.5468  0.2571
15424SOL    HW148204   7.525   3.925   7.674 -0.8796 -3.1515  1.5173
15424SOL    HW248205   7.530   4.034   7.779 -0.4412 -0.3278 -1.2949
15425SOL     OW48206   6.529   5.223   3.420 -0.2738 -0.3438  0.2323
15425SOL    HW148207   6.496   5.280   3.350 -0.3740  1.6327  1.8112
15425SOL    HW248208   6.452   5.204   3.474  0.1685 -0.2192  0.9140
15426SOL     OW48209   2.680   7.863   7.199  0.0043 -0.0517 -0.0960
15426SOL    HW148210   2.722   7.943   7.230 -1.1345  0.8959 -0.9080
15426SOL    HW248211   2.661   7.880   7.107  0.8116 -1.7236 -0.6201
15427SOL     OW48212   6.109   7.523   7.249 -0.3981  0.1267  0.5653
15427SOL    HW148213   6.188   7.568   7.219  0.9652 -1.0009  2.2554
15427SOL    HW248214   6.049   7.528   7.175  1.4451  0.5692 -0.9804
15428SOL     OW48215   3.405   5.012   6.395 -0.4779  0.0561  0.4169
15428SOL    HW148216   3.450   4.930   6.379 -2.7861 -0.9773 -1.5087
15428SOL    HW248217   3.412   5.061   6.313 -1.5557  0.4804  0.5454
15429SOL     OW48218   3.132   3.598   1.591 -0.2905 -0.3329 -0.0782
15429SOL    HW148219   3.044   3.632   1.573  0.3006  1.8908  0.9156
15429SOL    HW248220   3.178   3.606   1.507 -0.4493  0.4374 -0.1009
15430SOL     OW48221   7.137   5.945   1.605 -0.0528 -0.7917 -0.0385
15430SOL    HW148222   7.092   6.003   1.666  0.8432  0.8334 -0.8165
15430SOL    HW248223   7.069   5.914   1.545 -0.6970 -1.2567  0.9284
15431SOL     OW48224   4.504   1.217   7.647  0.1395  0.3788  0.7668
15431SOL    HW148225   4.504   1.302   7.604  0.4474  0.6718  1.3373
15431SOL    HW248226   4.424   1.175   7.617  1.1615 -0.1370 -1.4700
15432SOL     OW48227   4.667   6.730   8.604  0.7553 -0.2903 -0.0499
15432SOL    HW148228   4.572   6.736   8.616  0.6883 -1.6168  0.2240
15432SOL    HW248229   4.698   6.820   8.613 -0.2647 -0.0683  1.7636
15433SOL     OW48230   6.093   1.532   6.718  0.4051 -0.1892  0.1624
15433SOL    HW148231   6.141   1.554   6.638  1.4457 -1.8277  0.2909
15433SOL    HW248232   6.002   1.556   6.699  0.6275 -0.5600 -1.5402
15434SOL     OW48233   2.524   7.828   0.219 -0.0747  0.2176  0.5508
15434SOL    HW148234   2.616   7.810   0.239  0.0442  1.6958  1.4851
15434SOL    HW248235   2.521   7.834   0.123  0.5667 -0.9218  0.4410
15435SOL     OW48236   2.460   6.734   4.119 -0.2083  0.8867 -0.4281
15435SOL    HW148237   2.385   6.786   4.089  0.1719  0.4318 -2.3034
15435SOL    HW248238   2.461   6.658   4.061 -0.0177 -0.6431  1.4745
15436SOL     OW48239   7.094   5.999   3.086 -0.2229 -0.1717  0.5829
15436SOL    HW148240   7.055   5.991   2.999  0.8899 -2.5157  0.2027
15436SOL    HW248241   7.082   5.913   3.125 -0.0245  0.6229  2.4813
15437SOL     OW48242   2.916   5.081   7.263  0.4410  0.2348  0.8671
15437SOL    HW148243   2.853   5.073   7.192 -0.3758  2.1228  1.3296
15437SOL    HW248244   2.898   5.004   7.318 -1.3859  0.6392  0.9134
15438SOL     OW48245   5.624   6.364   4.194 -0.1745  0.0179 -0.0404
15438SOL    HW148246   5.554   6.335   4.136  1.3283 -0.1692 -1.8418
15438SOL    HW248247   5.601   6.455   4.216 -1.1864 -0.1794 -0.2223
15439SOL     OW48248   3.046   7.880   3.062  0.3847 -0.1996 -0.0510
15439SOL    HW148249   3.141   7.875   3.074  0.5778 -0.9343 -1.6125
15439SOL    HW248250   3.019   7.955   3.114  1.3326 -1.8563  3.1063
15440SOL     OW48251   4.609   1.344   0.309  0.2105 -0.2974 -0.4834
15440SOL    HW148252   4.557   1.413   0.349 -0.9320 -0.5014 -1.5444
15440SOL    HW248253   4.621   1.371   0.219 -0.0111 -1.3298 -0.8439
15441SOL     OW48254   7.238   2.811   6.293 -0.7647  0.2139 -0.3357
15441SOL    HW148255   7.208   2.901   6.298 -2.1885 -0.2919  0.8116
15441SOL    HW248256   7.196   2.775   6.215 -0.2855  0.5073 -0.7301
15442SOL     OW48257   1.624   8.831   0.225  0.0873  0.2319  0.0472
15442SOL    HW148258   1.623   8.898   0.157  0.9474 -0.2347 -0.4414
15442SOL    HW248259   1.679   8.761   0.190  1.9171  0.6635  1.8399
15443SOL     OW48260   5.802   3.328   4.258 -0.3513  0.2711  0.3862
15443SOL    HW148261   5.779   3.243   4.221 -2.3970  0.8241  0.2647
15443SOL    HW248262   5.898   3.331   4.255 -0.3367 -0.8560 -2.2521
15444SOL     OW48263   7.797   3.551   1.175 -0.2568 -0.0876  0.8990
15444SOL    HW148264   7.747   3.477   1.209 -0.6043 -0.0906  0.3893
15444SOL    HW248265   7.738   3.626   1.185  0.2267  0.1957  1.7469
15445SOL     OW48266   1.997   1.733   7.455 -0.2865  0.4930 -0.5400
15445SOL    HW148267   1.926   1.733   7.518 -1.5367  0.2814 -1.8970
15445SOL    HW248268   1.998   1.643   7.420  1.4125  0.1551  0.2657
15446SOL     OW48269   2.875   5.595   2.060  0.0515 -0.7207  0.2312
15446SOL    HW148270   2.813   5.558   2.123  0.1065 -0.9606  0.1480
15446SOL    HW248271   2.875   5.689   2.078 -2.4427 -0.2715 -1.6146
15447SOL     OW48272   1.889   8.192   4.742  0.1242 -0.7474  0.0691
15447SOL    HW148273   1.981   8.207   4.723  0.0275 -1.0410 -0.6612
15447SOL    HW248274   1.885   8.181   4.837  0.7477 -0.1141  0.1723
15448SOL     OW48275   0.867   8.864   4.331  0.5888 -0.5908  0.3980
15448SOL    HW148276   0.824   8.779   4.318 -1.0796 -0.2133  2.6413
15448SOL    HW248277   0.809   8.927   4.289  1.4877 -0.4753 -0.7012
15449SOL     OW48278   6.678   0.592   6.988 -0.5476 -0.2494 -0.7396
15449SOL    HW148279   6.701   0.532   7.059 -2.4320  0.1347  0.2670
15449SOL    HW248280   6.682   0.679   7.028  0.2569  0.1496 -1.6586
15450SOL     OW48281   2.100   0.689   2.458 -0.4871 -0.6504  0.4082
15450SOL    HW148282   2.126   0.599   2.479  0.1084  0.0621  3.0585
15450SOL    HW248283   2.049   0.718   2.533 -0.1961  1.4110 -0.1230
15451SOL     OW48284   4.868   1.519   8.695 -0.4814  0.2748 -0.7135
15451SOL    HW148285   4.874   1.466   8.775 -0.8671 -0.3733 -1.1062
15451SOL    HW248286   4.883   1.456   8.624 -0.7030  0.7406 -1.1752
15452SOL     OW48287   1.780   8.628   0.094  0.0938 -0.3265 -0.4941
15452SOL    HW148288   1.701   8.574   0.089 -1.7729  2.3625 -2.2443
15452SOL    HW248289   1.852   8.565   0.083 -1.8430 -2.6337 -0.8646
15453SOL     OW48290   6.565   3.390   4.977 -0.2549 -0.1557  0.4728
15453SOL    HW148291   6.485   3.358   5.018 -0.2609  0.0057  0.5848
15453SOL    HW248292   6.607   3.311   4.942 -1.5019 -0.0353 -1.4620
15454SOL     OW48293   0.979   8.019   0.605 -0.5605  0.0964  0.4208
15454SOL    HW148294   0.941   8.050   0.687  0.9527  0.4211  1.0329
15454SOL    HW248295   1.058   8.072   0.593 -0.4232 -0.3611 -0.9408
15455SOL     OW48296   4.144   1.275   5.210 -0.0507 -0.3663  0.2545
15455SOL    HW148297   4.163   1.216   5.138 -1.8589  1.6577 -2.0852
15455SOL    HW248298   4.227   1.317   5.231  0.4607 -0.8259 -0.8262
15456SOL     OW48299   3.777   8.192   4.581  0.2264  0.3615  0.0394
15456SOL    HW148300   3.829   8.130   4.632  1.9675  1.4718 -0.2893
15456SOL    HW248301   3.826   8.203   4.500 -0.3316  1.7478 -0.1362
15457SOL     OW48302   3.431   3.420   3.668  0.6826  0.1700  0.0087
15457SOL    HW148303   3.522   3.427   3.638  1.1070 -0.3374  1.1179
15457SOL    HW248304   3.415   3.502   3.715  0.4544  0.3961 -0.4580
15458SOL     OW48305   2.934   8.271   2.393 -0.1753 -0.0023  0.0257
15458SOL    HW148306   2.968   8.350   2.351 -1.0595  0.9769  1.0600
15458SOL    HW248307   2.869   8.304   2.456 -0.1069 -1.5143  0.9328
15459SOL     OW48308   1.234   5.589   6.297  0.1387  0.1428  0.1212
15459SOL    HW148309   1.288   5.657   6.338  1.1318  1.0103 -2.4056
15459SOL    HW248310   1.222   5.524   6.366  2.1986  1.1861  1.6036
15460SOL     OW48311   3.743   6.826   4.357  0.6567  0.3818  0.2090
15460SOL    HW148312   3.794   6.745   4.364  0.1051 -0.0911 -0.8461
15460SOL    HW248313   3.807   6.896   4.364  1.2011 -0.1580  0.7340
15461SOL     OW48314   3.890   7.312   3.211  0.1560  0.8673 -0.4956
15461SOL    HW148315   3.880   7.218   3.222 -1.1960  1.0595  0.1513
15461SOL    HW248316   3.983   7.325   3.193  0.8595 -0.3625  1.9287
15462SOL     OW48317   5.566   6.581   6.031 -0.4738 -0.2386  0.2964
15462SOL    HW148318   5.476   6.606   6.051  0.4311  1.9683  1.9647
15462SOL    HW248319   5.600   6.545   6.113  0.1602 -1.1158 -0.3360
15463SOL     OW48320   1.306   1.589   2.681  0.4157 -0.2344 -0.3085
15463SOL    HW148321   1.278   1.679   2.699 -1.1358 -0.8793  0.7339
15463SOL    HW248322   1.377   1.573   2.743  2.0020  0.8322 -1.7543
15464SOL     OW48323   4.988   2.106   3.397 -0.4956  0.3759  0.3867
15464SOL    HW148324   5.042   2.132   3.322 -1.5410 -0.4024 -0.6723
15464SOL    HW248325   4.993   2.011   3.398 -0.3460  0.3890  1.4383
15465SOL     OW48326   8.142   0.127   1.300  0.4006  0.0715 -0.0665
15465SOL    HW148327   8.196   0.103   1.225  0.3676  1.6167 -0.6192
15465SOL    HW248328   8.143   0.049   1.356  0.6950 -1.0042 -1.4978
15466SOL     OW48329   7.701   1.690   7.850 -0.0128 -0.9095 -0.1246
15466SOL    HW148330   7.685   1.653   7.937 -0.0233 -0.6787 -0.0263
15466SOL    HW248331   7.724   1.615   7.795  0.7933 -0.9546  0.2690
15467SOL     OW48332   0.243   5.639   3.811 -0.4779 -0.5160 -0.4803
15467SOL    HW148333   0.265   5.660   3.901  0.4737 -0.2021 -0.7737
15467SOL    HW248334   0.251   5.543   3.806  1.5765 -0.3811 -0.7293
15468SOL     OW48335   0.355   8.081   5.193  0.1554 -0.7959  0.4114
15468SOL    HW148336   0.272   8.034   5.196 -1.6253  2.1110  3.0502
15468SOL    HW248337   0.384   8.084   5.284 -0.2760  3.5168  0.6414
15469SOL     OW48338   3.474   4.007   4.835 -0.3399  0.6441 -0.2186
15469SOL    HW148339   3.507   4.085   4.792 -1.5734  1.1837 -0.2397
15469SOL    HW248340   3.519   4.005   4.919  0.0194  1.1402 -0.3939
15470SOL     OW48341   7.710   3.313   6.964 -0.3977  0.0277  0.4206
15470SOL    HW148342   7.678   3.316   6.874  0.4268  0.2658  0.1256
15470SOL    HW248343   7.691   3.224   6.994 -0.0055 -0.2839 -0.2403
15471SOL     OW48344   0.697   6.342   1.649 -0.1804  0.1684  0.6713
15471SOL    HW148345   0.723   6.428   1.617  1.0824  0.4634  2.3946
15471SOL    HW248346   0.683   6.290   1.569 -1.9761  2.1889 -0.4379
15472SOL     OW48347   1.533   3.898   7.367  0.5636  0.2371 -0.7257
15472SOL    HW148348   1.493   3.956   7.302 -1.0663  0.5239  0.4431
15472SOL    HW248349   1.501   3.932   7.451 -0.4947 -2.3442  0.0180
15473SOL     OW48350   3.265   1.934   2.815 -0.6202  0.1414 -0.0189
15473SOL    HW148351   3.329   1.948   2.884 -1.4000 -0.3313  0.8126
15473SOL    HW248352   3.286   2.000   2.749  1.1501 -0.4345 -0.0825
15474SOL     OW48353   1.074   6.666   3.644 -0.2084 -0.5953 -0.3320
15474SOL    HW148354   0.987   6.660   3.683  0.6818 -0.2706  1.8700
15474SOL    HW248355   1.080   6.757   3.614 -0.6388 -0.6218 -0.5039
15475SOL     OW48356   5.714   8.680   5.801  0.0262  0.0322 -0.2535
15475SOL    HW148357   5.676   8.689   5.889 -1.6935 -0.2516 -0.9304
15475SOL    HW248358   5.639   8.671   5.743  1.0108  2.0010 -2.0000
15476SOL     OW48359   7.349   3.242   0.985 -0.2212  0.2672  0.5487
15476SOL    HW148360   7.281   3.275   0.926  0.4404  0.0844 -0.3349
15476SOL    HW248361   7.323   3.276   1.072 -0.7884  1.1977  0.0402
15477SOL     OW48362   0.749   4.703   0.720 -0.1174  0.1484  0.2024
15477SOL    HW148363   0.715   4.788   0.750 -2.7253 -1.4640  2.2609
15477SOL    HW248364   0.822   4.684   0.780  0.0504  0.6474  0.1577
15478SOL     OW48365   7.166   1.739   8.565 -0.6030 -0.0523 -0.0642
15478SOL    HW148366   7.223   1.811   8.592  2.2252 -1.4626 -1.7665
15478SOL    HW248367   7.141   1.695   8.646 -0.8538  1.7240  0.8566
15479SOL     OW48368   0.174   2.889   6.723 -0.4355  0.0127 -0.0038
15479SOL    HW148369   0.168   2.861   6.814 -1.0518  0.1745  0.0106
15479SOL    HW248370   0.231   2.967   6.725  1.3055 -1.1898 -0.0496
15480SOL     OW48371   5.699   7.026   3.295 -0.2647  0.0690 -0.0021
15480SOL    HW148372   5.606   7.013   3.281  0.2051 -0.3698 -3.8343
15480SOL    HW248373   5.706   7.107   3.345 -2.6668  0.5259 -0.3186
15481SOL     OW48374   2.305   7.267   8.050 -0.1016 -0.0241 -0.6838
15481SOL    HW148375   2.221   7.296   8.013 -0.4216 -1.3289 -1.0557
15481SOL    HW248376   2.325   7.187   8.001  0.8057 -0.3313  0.1695
15482SOL     OW48377   1.527   6.458   0.424 -0.3724  0.1529 -0.3084
15482SOL    HW148378   1.613   6.440   0.385  0.0726  1.0792  0.2150
15482SOL    HW248379   1.525   6.405   0.503  0.1003  0.8043  0.1536
15483SOL     OW48380   5.565   6.609   6.722 -0.6639 -0.2491  0.1348
15483SOL    HW148381   5.586   6.519   6.749 -2.3346 -0.3091  1.4062
15483SOL    HW248382   5.514   6.644   6.794  0.0079  1.7803 -0.3239
15484SOL     OW48383   0.336   0.123   3.911  0.4190  0.3228  0.2349
15484SOL    HW148384   0.289   0.186   3.967 -0.0412 -0.8321  1.1929
15484SOL    HW248385   0.372   0.059   3.973 -3.2871 -3.2085 -0.8621
15485SOL     OW48386   8.320   0.013   0.895  0.1149 -0.1329  0.4569
15485SOL    HW148387   8.404   0.059   0.901 -0.5001  0.9699  1.0282
15485SOL    HW248388   8.258   0.081   0.867 -0.3101 -1.2975 -1.7133
15486SOL     OW48389   5.526   6.071   3.867  0.1195 -0.3886  0.1881
15486SOL    HW148390   5.521   6.043   3.775  1.6701 -2.2739  0.6156
15486SOL    HW248391   5.598   6.134   3.869 -1.2601  1.2776 -0.1981
15487SOL     OW48392   7.765   4.131   0.116 -0.2928  0.1058 -0.2450
15487SOL    HW148393   7.696   4.099   0.057 -0.8041 -0.0749  0.4376
15487SOL    HW248394   7.756   4.078   0.195 -0.5389  1.2738  0.5392
15488SOL     OW48395   4.970   3.910   7.818 -0.1726  0.2463 -0.3796
15488SOL    HW148396   5.064   3.922   7.809  0.1842 -1.6536  0.3608
15488SOL    HW248397   4.939   3.991   7.858  1.1626  0.8448 -0.5185
15489SOL     OW48398   8.390   8.138   0.864 -0.5151 -0.1847  0.4511
15489SOL    HW148399   8.396   8.044   0.880 -0.3010 -0.0993  0.8811
15489SOL    HW248400   8.297   8.153   0.843 -0.2804 -0.7026 -1.0451
15490SOL     OW48401   4.211   3.331   1.679  0.2577 -0.2442 -0.1389
15490SOL    HW148402   4.166   3.394   1.735 -0.3245 -0.6602 -0.1270
15490SOL    HW248403   4.141   3.292   1.626  0.6645 -0.5753 -0.4399
15491SOL     OW48404   3.289   4.380   0.681 -0.4793  0.1789  0.5778
15491SOL    HW148405   3.373   4.342   0.707 -0.6084  0.4076  1.3850
15491SOL    HW248406   3.258   4.326   0.609  0.0458 -0.3219  0.7250
15492SOL     OW48407   3.761   0.790   3.029 -0.4527 -0.3127 -0.6395
15492SOL    HW148408   3.778   0.860   2.966  1.0254  0.8507  0.9566
15492SOL    HW248409   3.674   0.810   3.064 -0.5905 -0.0324 -1.1373
15493SOL     OW48410   3.084   2.646   1.522 -0.2051 -0.4965 -0.8078
15493SOL    HW148411   3.037   2.689   1.593  3.6235  0.2095  1.5449
15493SOL    HW248412   3.073   2.705   1.447 -0.8178  0.9715  0.3968
15494SOL     OW48413   1.089   5.009   8.195  0.1938  0.3184  0.6830
15494SOL    HW148414   1.093   5.056   8.278 -3.0211  1.6036  0.2755
15494SOL    HW248415   1.123   5.071   8.130 -1.9491  1.3957  0.4663
15495SOL     OW48416   0.732   0.187   3.745  0.3215 -0.1854 -0.5608
15495SOL    HW148417   0.805   0.165   3.687  1.1526  0.2029  0.3165
15495SOL    HW248418   0.675   0.242   3.691  0.4758 -0.7874 -1.3677
15496SOL     OW48419   8.811   5.765   1.419 -0.1374  0.0193 -0.3121
15496SOL    HW148420   8.784   5.673   1.422  0.7732 -0.3136 -1.6145
15496SOL    HW248421   8.750   5.806   1.357 -1.0090  0.4894  0.8142
15497SOL     OW48422   1.486   2.619   4.744 -0.0242 -0.4490  0.5600
15497SOL    HW148423   1.394   2.593   4.749  0.0375 -0.6057  0.9080
15497SOL    HW248424   1.533   2.539   4.722  0.0140 -0.3385  0.2348
15498SOL     OW48425   5.550   2.045   4.268  0.1222 -0.4271  0.2961
15498SOL    HW148426   5.579   2.026   4.178  0.5927  2.3535 -0.2448
15498SOL    HW248427   5.459   2.015   4.271  0.2769 -1.0836 -0.9190
15499SOL     OW48428   8.410   6.650   3.629  0.2028  0.4577 -0.3743
15499SOL    HW148429   8.468   6.574   3.620 -1.1824 -0.4576 -2.4647
15499SOL    HW248430   8.461   6.723   3.594  0.2500 -0.2788 -1.9474
15500SOL     OW48431   0.593   3.031   3.967  0.2685 -0.4553 -0.2906
15500SOL    HW148432   0.580   3.030   3.873 -0.0262  0.5556 -0.2640
15500SOL    HW248433   0.510   2.997   4.003  0.1575 -0.2656 -0.3695
15501SOL     OW48434   3.827   3.393   6.806  0.3345 -0.6172  0.6276
15501SOL    HW148435   3.740   3.368   6.775  0.0948 -1.4042  1.8838
15501SOL    HW248436   3.853   3.324   6.866  0.8580  0.7588  2.0555
15502SOL     OW48437   3.990   8.646   1.815 -0.1238  0.0329  0.0159
15502SOL    HW148438   4.060   8.691   1.863 -0.0879 -0.4733  0.4401
15502SOL    HW248439   4.014   8.656   1.723  0.2597  0.2666  0.1385
15503SOL     OW48440   2.844   3.973   4.357 -0.2573  0.1529  0.4020
15503SOL    HW148441   2.928   3.955   4.398 -0.7873  0.4543  1.6959
15503SOL    HW248442   2.833   3.904   4.292  0.4877 -0.5359  0.9887
15504SOL     OW48443   1.762   8.360   7.480  0.0807  0.5489 -0.0677
15504SOL    HW148444   1.775   8.380   7.387 -2.1715  1.1035 -0.3079
15504SOL    HW248445   1.683   8.305   7.482  0.8813 -0.6239  1.4173
15505SOL     OW48446   1.353   0.891   7.750  0.8917  0.1605 -0.1334
15505SOL    HW148447   1.407   0.885   7.828 -0.9332  2.0639  1.3921
15505SOL    HW248448   1.269   0.925   7.781 -0.2834 -0.0397 -2.7747
15506SOL     OW48449   4.428   0.139   0.058  0.5230  0.3441  0.0397
15506SOL    HW148450   4.427   0.141   0.154 -2.3478 -1.4023  0.1765
15506SOL    HW248451   4.337   0.124   0.034  1.4283 -1.1935 -2.8962
15507SOL     OW48452   1.735   3.243   4.935  0.0319  0.0232 -0.0251
15507SOL    HW148453   1.775   3.302   4.999 -1.5090  1.1036 -0.0021
15507SOL    HW248454   1.731   3.158   4.980 -1.2584  0.8146  1.4638
15508SOL     OW48455   6.699   4.208   7.654 -0.5627  0.0602 -0.3197
15508SOL    HW148456   6.772   4.239   7.707 -1.0783  4.7207 -1.9298
15508SOL    HW248457   6.739   4.180   7.571 -0.4259  0.4304 -0.3776
15509SOL     OW48458   6.202   0.372   0.149 -0.8352 -0.2297 -0.2612
15509SOL    HW148459   6.197   0.467   0.163 -1.1450 -0.4923  1.6393
15509SOL    HW248460   6.294   0.351   0.164 -0.7638 -0.2301 -0.6983
15510SOL     OW48461   1.717   0.508   4.326 -0.3789  0.8006  0.3675
15510SOL    HW148462   1.785   0.553   4.276  0.7104  0.1047  1.1555
15510SOL    HW248463   1.640   0.511   4.271  0.5982  0.6624 -1.0513
15511SOL     OW48464   8.597   0.443   7.145  0.4639 -0.0238 -0.2768
15511SOL    HW148465   8.671   0.391   7.115  0.9364  0.6626 -0.3206
15511SOL    HW248466   8.574   0.499   7.070 -0.4498 -0.6057 -0.4524
15512SOL     OW48467   3.472   4.998   0.131 -0.0973  0.2415 -0.0416
15512SOL    HW148468   3.391   4.970   0.088 -0.5139  2.7077 -1.0318
15512SOL    HW248469   3.530   5.024   0.059  0.7419  0.6147  0.7385
15513SOL     OW48470   8.576   4.185   0.522  0.3631 -0.0181 -0.1881
15513SOL    HW148471   8.543   4.209   0.435  1.3660 -0.3255 -0.6648
15513SOL    HW248472   8.560   4.091   0.528  1.2615 -0.1939 -0.4770
15514SOL     OW48473   7.069   1.284   6.481 -0.4242 -0.5559 -0.4023
15514SOL    HW148474   7.036   1.284   6.571 -1.6719 -1.1970 -0.8346
15514SOL    HW248475   7.037   1.202   6.444 -0.3369 -0.0762 -1.5795
15515SOL     OW48476   4.465   2.151   5.149 -0.1682 -0.7253  0.2079
15515SOL    HW148477   4.389   2.104   5.183 -0.3580 -0.1821  0.5504
15515SOL    HW248478   4.474   2.121   5.059 -0.8394 -0.7312  0.1394
15516SOL     OW48479   0.566   2.903   5.675 -0.3321  0.1433 -0.2436
15516SOL    HW148480   0.545   2.813   5.698  0.5140 -0.5429 -2.0474
15516SOL    HW248481   0.498   2.955   5.719 -0.3446 -1.2715  1.5053
15517SOL     OW48482   0.076   2.612   5.094  0.2680 -0.4124  0.6979
15517SOL    HW148483  -0.002   2.561   5.072  0.3998 -0.5799  0.6115
15517SOL    HW248484   0.078   2.613   5.189 -0.0067 -0.1485  0.7008
15518SOL     OW48485   1.966   1.621   3.017 -0.1030  0.1565  0.5325
15518SOL    HW148486   2.058   1.612   3.044 -0.4219  0.7941  1.8760
15518SOL    HW248487   1.929   1.683   3.079 -1.3763  0.1505 -0.2026
15519SOL     OW48488   4.318   1.973   8.314  0.3363  0.3516  0.0530
15519SOL    HW148489   4.282   2.058   8.339  0.2789  0.1231  0.7702
15519SOL    HW248490   4.413   1.985   8.317  0.3432  0.1739  0.9760
15520SOL     OW48491   4.960   6.320   8.586 -0.1715 -0.0792  0.0094
15520SOL    HW148492   4.942   6.323   8.680 -3.4843 -1.1149 -0.4824
15520SOL    HW248493   5.030   6.385   8.574 -0.4748  0.9941  2.9760
15521SOL     OW48494   1.395   7.175   7.310 -0.1061  0.4490 -0.1485
15521SOL    HW148495   1.400   7.080   7.323  0.8987  0.6356  0.9144
15521SOL    HW248496   1.483   7.206   7.327 -1.2668  2.1136  3.9823
15522SOL     OW48497   1.658   1.193   7.120  0.4362 -0.2660 -0.2074
15522SOL    HW148498   1.575   1.183   7.074 -0.5809 -1.5373  1.7276
15522SOL    HW248499   1.635   1.240   7.200  1.9239  0.8868 -0.4175
15523SOL     OW48500   7.374   5.175   7.775 -0.0581  0.2904 -0.1408
15523SOL    HW148501   7.341   5.248   7.723 -0.2149  0.0872 -0.3308
15523SOL    HW248502   7.469   5.178   7.762 -0.2066 -0.7334 -1.7743
15524SOL     OW48503   1.137   5.461   3.045 -0.1091 -0.3640  0.4534
15524SOL    HW148504   1.198   5.403   2.999  0.2427  1.1922 -1.1512
15524SOL    HW248505   1.050   5.429   3.021  0.0804 -0.0840 -0.6369
15525SOL     OW48506   1.302   3.987   4.844  0.4146 -0.5068 -0.1357
15525SOL    HW148507   1.297   3.996   4.749 -1.8453 -0.1501 -0.0359
15525SOL    HW248508   1.215   3.957   4.870  1.2700 -1.5581  1.7449
15526SOL     OW48509   7.642   3.507   3.230 -0.5201 -0.1890 -0.2783
15526SOL    HW148510   7.719   3.495   3.175 -1.3708  0.6225 -1.7049
15526SOL    HW248511   7.585   3.433   3.208 -0.9293  0.2243 -0.6406
15527SOL     OW48512   8.209   4.169   3.573  0.2008  0.0021  0.8946
15527SOL    HW148513   8.200   4.086   3.620 -0.0480  0.5151  1.7894
15527SOL    HW248514   8.279   4.215   3.620 -0.0388  0.5228  0.7479
15528SOL     OW48515   8.799   7.589   7.398 -0.0360  0.4243  0.5746
15528SOL    HW148516   8.749   7.619   7.322  0.8241 -0.1993 -0.2740
15528SOL    HW248517   8.734   7.575   7.466 -0.6247  2.8311  0.5856
15529SOL     OW48518   0.224   8.561   3.102  0.0386  0.0222  0.3862
15529SOL    HW148519   0.316   8.537   3.111 -0.1639 -0.0868  2.7866
15529SOL    HW248520   0.225   8.648   3.063  1.2530  0.6912  1.8495
15530SOL     OW48521   6.637   0.173   2.793  0.1494 -0.2911  0.3364
15530SOL    HW148522   6.544   0.159   2.808  0.2910 -2.3607 -0.3447
15530SOL    HW248523   6.643   0.196   2.700  0.2672  0.6295  0.5630
15531SOL     OW48524   5.766   8.810   1.030  0.4029 -0.5232  0.1780
15531SOL    HW148525   5.778   8.829   0.937 -1.8509  0.0194 -0.0453
15531SOL    HW248526   5.769   8.896   1.072 -3.3361 -0.1481 -0.0423
15532SOL     OW48527   0.705   7.298   2.395 -0.2166 -0.0074  0.2604
15532SOL    HW148528   0.649   7.292   2.317  0.4224  0.8418 -0.2783
15532SOL    HW248529   0.667   7.369   2.446  0.8390  1.1674 -0.5269
15533SOL     OW48530   0.994   4.164   6.320 -0.2145 -0.2794  0.2303
15533SOL    HW148531   0.982   4.112   6.241 -1.7786 -1.1078  0.9707
15533SOL    HW248532   1.061   4.228   6.296 -1.3811  0.1844 -2.1012
15534SOL     OW48533   8.296   8.292   8.041 -0.2153 -0.4887 -0.2215
15534SOL    HW148534   8.294   8.240   7.961 -0.7469 -2.5316  1.0344
15534SOL    HW248535   8.214   8.341   8.040  1.4433  2.5527 -2.7128
15535SOL     OW48536   3.118   4.668   6.609 -0.2742  0.2721 -0.3023
15535SOL    HW148537   3.037   4.628   6.641  0.6598 -1.1615  0.3732
15535SOL    HW248538   3.090   4.750   6.569 -1.8624  0.7416  1.5938
15536SOL     OW48539   3.279   6.235   8.817  0.2150  0.1162 -0.4539
15536SOL    HW148540   3.310   6.174   8.750 -0.2663 -2.5075  1.5497
15536SOL    HW248541   3.195   6.267   8.783  0.3852 -0.4539 -1.4702
15537SOL     OW48542   5.804   6.268   4.574  0.1624  0.0322 -0.5846
15537SOL    HW148543   5.814   6.359   4.548  0.2624 -0.1968 -1.4044
15537SOL    HW248544   5.732   6.235   4.520 -0.8757  0.0024  0.7692
15538SOL     OW48545   5.123   2.686   5.080  0.1629 -0.3771 -0.2901
15538SOL    HW148546   5.097   2.706   5.170  2.0367  0.3278  0.1409
15538SOL    HW248547   5.118   2.770   5.035  2.2000 -0.0304 -0.0043
15539SOL     OW48548   7.321   1.872   0.971  0.1433 -0.4503 -0.0488
15539SOL    HW148549   7.254   1.813   1.004 -0.9793  0.8797  0.1160
15539SOL    HW248550   7.330   1.939   1.038 -0.9395  1.3472 -1.6087
15540SOL     OW48551   0.723   8.508   2.098  0.3936 -0.4649 -0.2347
15540SOL    HW148552   0.794   8.571   2.098  1.4701 -1.6325 -0.5141
15540SOL    HW248553   0.766   8.423   2.105 -1.0542 -1.1179  4.2392
15541SOL     OW48554   4.562   4.316   0.784 -0.5927  0.4042 -0.3186
15541SOL    HW148555   4.651   4.350   0.794  0.0488 -1.2679 -0.0460
15541SOL    HW248556   4.563   4.270   0.700 -0.9867 -0.1938 -0.0048
15542SOL     OW48557   1.695   6.795   8.825 -0.3842 -0.0185  0.3189
15542SOL    HW148558   1.631   6.790   8.755  3.4269  3.8792 -4.1454
15542SOL    HW248559   1.728   6.706   8.834 -2.0299 -0.9371 -1.9248
15543SOL     OW48560   2.902   3.016   0.084 -0.2482  0.7676 -0.3960
15543SOL    HW148561   2.922   3.001   0.177  0.9318 -0.0622 -0.7688
15543SOL    HW248562   2.817   2.976   0.071 -1.3946  2.6658  0.7871
15544SOL     OW48563   5.973   0.600   7.589  0.0112 -0.3368  0.2289
15544SOL    HW148564   5.987   0.684   7.633 -0.3887 -0.6457  0.9486
15544SOL    HW248565   5.994   0.534   7.654 -0.6460 -0.7983 -0.0213
15545SOL     OW48566   1.267   5.960   5.729  0.6124  0.6217  0.0382
15545SOL    HW148567   1.313   5.960   5.813 -1.3885  1.8654  1.1809
15545SOL    HW248568   1.232   6.048   5.720 -0.4124  0.0975 -1.4440
15546SOL     OW48569   4.102   5.352   3.935 -0.1333  0.2070  0.2546
15546SOL    HW148570   4.099   5.348   4.031  0.7143  0.5960  0.3127
15546SOL    HW248571   4.137   5.267   3.908 -1.7591 -0.4639  0.1878
15547SOL     OW48572   8.807   4.425   4.727 -0.4290 -0.4535 -0.1302
15547SOL    HW148573   8.885   4.370   4.734  0.5496  0.8584 -0.2816
15547SOL    HW248574   8.738   4.376   4.772  0.4879 -1.6267  0.0301
15548SOL     OW48575   8.850   5.387   1.116  0.2744  0.0986  0.4129
15548SOL    HW148576   8.842   5.356   1.206  0.2292  0.8873  0.6847
15548SOL    HW248577   8.763   5.372   1.078 -0.1105  0.9697  0.9014
15549SOL     OW48578   5.240   2.094   7.984  0.6011  0.5295  0.5579
15549SOL    HW148579   5.297   2.121   8.055  1.3199  1.6111 -0.3976
15549SOL    HW248580   5.232   2.171   7.928 -0.2816 -0.1609 -0.3225
15550SOL     OW48581   1.940   0.924   8.342 -0.4505  0.2694 -0.2893
15550SOL    HW148582   1.956   0.829   8.347  0.1005  0.2733 -1.5652
15550SOL    HW248583   1.973   0.949   8.256  0.4424  1.8319  0.4545
15551SOL     OW48584   2.035   5.797   5.399  0.0966  0.4734  0.1054
15551SOL    HW148585   2.045   5.844   5.482  0.1667 -0.6309  0.7444
15551SOL    HW248586   2.102   5.729   5.402  1.1810  1.4133 -1.6012
15552SOL     OW48587   8.264   6.912   0.923  0.6632 -0.3096 -0.1503
15552SOL    HW148588   8.272   6.828   0.968 -1.3198 -0.6991 -0.4500
15552SOL    HW248589   8.257   6.976   0.994 -0.1755 -0.6675  0.0983
15553SOL     OW48590   3.947   1.060   7.343 -0.5110  0.5541  0.2104
15553SOL    HW148591   3.889   1.019   7.408 -1.2428  2.1821  0.6258
15553SOL    HW248592   3.907   1.145   7.325  1.3753  1.4296 -0.0545
15554SOL     OW48593   3.531   2.387   3.355 -0.6247  0.6064  0.0689
15554SOL    HW148594   3.485   2.407   3.437 -1.1475  1.1173 -0.3447
15554SOL    HW248595   3.518   2.464   3.301  0.8133  0.7972 -0.0247
15555SOL     OW48596   7.220   7.422   0.980 -0.5549  0.7148 -0.1971
15555SOL    HW148597   7.156   7.352   0.966 -2.6278  2.5724 -0.5991
15555SOL    HW248598   7.207   7.449   1.071  2.1080 -1.0712  0.8395
15556SOL     OW48599   6.716   3.088   1.832  0.0562  0.5196  0.0585
15556SOL    HW148600   6.704   3.054   1.920  0.6171  1.5121  0.5347
15556SOL    HW248601   6.807   3.066   1.809 -0.1554  0.0656 -0.3678
15557SOL     OW48602   3.763   4.760   6.186 -0.1610  1.0318  0.1083
15557SOL    HW148603   3.684   4.752   6.133  0.6175 -0.3288 -0.9234
15557SOL    HW248604   3.792   4.850   6.174 -0.2819  0.8891 -1.4003
15558SOL     OW48605   5.467   4.159   1.725 -0.2231 -0.0594  0.4844
15558SOL    HW148606   5.491   4.165   1.817  0.9865  2.8157  0.0812
15558SOL    HW248607   5.432   4.245   1.703 -0.3325 -0.6053 -1.7946
15559SOL     OW48608   4.433   3.682   2.035 -0.4473  0.7270  0.2021
15559SOL    HW148609   4.507   3.722   2.081  0.3512  0.1677 -0.5584
15559SOL    HW248610   4.440   3.714   1.945 -0.6550  0.0461 -0.0639
15560SOL     OW48611   4.521   4.055   8.871 -0.1497 -0.5329 -0.1529
15560SOL    HW148612   4.608   4.087   8.893 -0.7110  0.0329  1.3614
15560SOL    HW248613   4.497   4.105   8.793  0.2687  0.4468  0.3219
15561SOL     OW48614   3.678   2.082   1.487  0.0398  0.2627  0.2174
15561SOL    HW148615   3.747   2.022   1.456  0.8296  0.0201  2.3369
15561SOL    HW248616   3.707   2.111   1.573 -2.7614 -0.3017  1.4731
15562SOL     OW48617   7.296   4.711   4.567 -0.0674  0.0814 -0.0476
15562SOL    HW148618   7.370   4.669   4.521  0.3765 -0.1713  0.8779
15562SOL    HW248619   7.261   4.773   4.503  1.9751  1.4184  0.0311
15563SOL     OW48620   4.072   4.661   8.462 -0.0914 -0.1004 -0.1013
15563SOL    HW148621   3.999   4.611   8.498  1.1915 -1.6890  0.3886
15563SOL    HW248622   4.078   4.634   8.371 -1.9601  2.3052 -1.0584
15564SOL     OW48623   4.647   0.549   5.065 -0.0368  0.2503  0.0189
15564SOL    HW148624   4.698   0.587   5.137 -0.7877  0.9779  0.1835
15564SOL    HW248625   4.655   0.455   5.077  1.2788  0.3462  0.0314
15565SOL     OW48626   4.626   3.636   4.839 -0.4856 -0.2419 -0.3517
15565SOL    HW148627   4.705   3.629   4.893 -0.5194 -0.0610 -0.2765
15565SOL    HW248628   4.641   3.714   4.786 -0.2692 -0.6568 -0.9086
15566SOL     OW48629   0.367   0.835   2.110  0.1180  0.2902  0.1384
15566SOL    HW148630   0.346   0.840   2.204  0.3203 -1.4339  0.3193
15566SOL    HW248631   0.454   0.795   2.108  0.5917  1.3343 -0.7728
15567SOL     OW48632   8.448   3.660   2.255 -1.2605  0.2313  0.0603
15567SOL    HW148633   8.372   3.622   2.298 -0.6546  1.9361  2.9624
15567SOL    HW248634   8.416   3.691   2.171 -3.3156 -0.6642  0.4517
15568SOL     OW48635   3.910   4.989   5.951 -0.4516 -0.3897  0.1450
15568SOL    HW148636   3.840   5.002   6.015 -1.3181  0.7022 -0.9741
15568SOL    HW248637   3.977   5.053   5.975 -0.0045 -1.1317  0.9475
15569SOL     OW48638   7.985   2.331   3.133  0.3108 -0.2880 -0.5401
15569SOL    HW148639   7.998   2.319   3.227  3.1236 -1.9785 -1.0159
15569SOL    HW248640   7.911   2.274   3.111 -0.9951  0.8457  0.7357
15570SOL     OW48641   1.550   7.844   6.338 -0.3470  0.3334 -0.2660
15570SOL    HW148642   1.557   7.837   6.242 -1.1781 -1.6297 -0.2298
15570SOL    HW248643   1.475   7.788   6.360 -1.1017  1.9209  1.4178
15571SOL     OW48644   3.499   5.991   7.753  1.1406 -0.0393  0.2498
15571SOL    HW148645   3.521   5.965   7.664  3.0884 -0.3031  0.7673
15571SOL    HW248646   3.502   6.087   7.752 -0.9316  0.0671 -0.4247
15572SOL     OW48647   5.249   8.657   6.230 -0.1428 -0.8310 -0.5341
15572SOL    HW148648   5.262   8.739   6.277 -1.4423 -0.8169 -0.1663
15572SOL    HW248649   5.193   8.604   6.287 -0.0332 -1.6283 -1.1411
15573SOL     OW48650   4.448   8.223   0.435 -0.1825 -0.1280 -0.2442
15573SOL    HW148651   4.522   8.272   0.398 -0.1891 -0.5347 -0.8001
15573SOL    HW248652   4.426   8.272   0.514  0.4139  0.2383 -0.2892
15574SOL     OW48653   0.118   4.137   1.628 -0.2270  0.1299 -0.6839
15574SOL    HW148654   0.157   4.059   1.668  1.3618  0.7902 -0.8567
15574SOL    HW248655   0.127   4.205   1.694  1.9095  1.0840 -1.8283
15575SOL     OW48656   7.496   0.693   7.420 -0.5054  0.1314 -0.3008
15575SOL    HW148657   7.534   0.660   7.501 -0.7320 -1.0476 -0.6541
15575SOL    HW248658   7.501   0.788   7.428  2.4293  0.0589 -0.3138
15576SOL     OW48659   5.541   1.349   6.945  0.2837  0.1950  0.3697
15576SOL    HW148660   5.473   1.416   6.934 -1.7860 -1.5801  1.4946
15576SOL    HW248661   5.575   1.335   6.856 -1.0244  0.9364 -0.2839
15577SOL     OW48662   7.213   6.017   7.546 -0.4335  0.6251  0.0686
15577SOL    HW148663   7.206   5.922   7.549 -0.7490  0.6483  0.1370
15577SOL    HW248664   7.306   6.035   7.556 -0.3260  0.3070 -0.3262
15578SOL     OW48665   8.720   6.992   6.142  0.5512 -0.7578 -0.4453
15578SOL    HW148666   8.757   6.915   6.185  0.5294 -0.3688  0.3010
15578SOL    HW248667   8.676   7.040   6.213  3.2315  1.5541 -0.1351
15579SOL     OW48668   4.175   4.804   2.117  0.0837  0.1864 -0.1750
15579SOL    HW148669   4.163   4.809   2.212 -0.5606  1.4620 -0.3001
15579SOL    HW248670   4.265   4.835   2.102  0.6811 -1.3265  0.1025
15580SOL     OW48671   5.553   1.135   2.166  0.3108  0.4882 -0.6592
15580SOL    HW148672   5.555   1.059   2.108 -0.1035 -1.3223  1.5252
15580SOL    HW248673   5.629   1.123   2.223 -0.0932  1.4002  0.1034
15581SOL     OW48674   5.920   6.582   8.408  0.1945  0.3340 -0.0554
15581SOL    HW148675   5.926   6.561   8.501 -0.7609  0.1293 -0.0310
15581SOL    HW248676   6.005   6.620   8.386  0.9468 -0.9106  0.5729
15582SOL     OW48677   3.159   3.344   3.319 -0.0645  0.0899 -0.0089
15582SOL    HW148678   3.162   3.360   3.413 -0.2451  1.1211 -0.1654
15582SOL    HW248679   3.251   3.349   3.291 -0.0963  0.7569 -0.0251
15583SOL     OW48680   2.034   2.710   2.097 -0.0859  0.6908  0.2855
15583SOL    HW148681   2.107   2.672   2.047 -0.9609  1.3771 -1.6194
15583SOL    HW248682   2.033   2.802   2.071 -0.7420  1.0122  1.4165
15584SOL     OW48683   6.403   4.285   2.635  0.1846 -0.3063  0.0254
15584SOL    HW148684   6.461   4.281   2.711 -0.6267  1.3153  0.7700
15584SOL    HW248685   6.460   4.264   2.561  1.4641  0.1150  0.8537
15585SOL     OW48686   8.073   7.082   5.162 -0.3848 -0.2448  0.7986
15585SOL    HW148687   8.167   7.096   5.152 -0.5426  1.5827  1.4484
15585SOL    HW248688   8.050   7.023   5.090  1.0754  0.1161 -0.0171
15586SOL     OW48689   0.941   0.412   2.425 -0.2056 -0.2116  0.2156
15586SOL    HW148690   0.963   0.320   2.436 -0.8024 -0.6752 -2.1139
15586SOL    HW248691   0.876   0.429   2.493 -1.1618 -1.9120 -0.2264
15587SOL     OW48692   1.806   0.632   8.227  0.0531 -0.2816  0.3979
15587SOL    HW148693   1.786   0.555   8.281 -1.8051  0.3244  0.6580
15587SOL    HW248694   1.742   0.698   8.255 -1.4180 -0.1268 -2.8734
15588SOL     OW48695   2.686   1.519   8.380 -0.0692  0.8176  0.0604
15588SOL    HW148696   2.756   1.578   8.406  0.3599  0.4328 -0.2205
15588SOL    HW248697   2.720   1.472   8.304 -1.0133  1.3678 -0.7316
15589SOL     OW48698   3.951   7.704   0.671  0.1412  0.1777  0.1190
15589SOL    HW148699   3.964   7.684   0.578  1.5838 -0.2975  0.3972
15589SOL    HW248700   4.011   7.776   0.689  0.5940 -0.3869  0.9029
15590SOL     OW48701   2.201   5.242   2.419 -0.2315  0.2357  0.2383
15590SOL    HW148702   2.200   5.227   2.325  0.4876  0.7643  0.1357
15590SOL    HW248703   2.220   5.336   2.428  0.0449  0.1229  0.9050
15591SOL     OW48704   5.482   5.480   7.915  0.0558  0.3482  0.1484
15591SOL    HW148705   5.534   5.553   7.950  1.5112 -0.4673 -0.2159
15591SOL    HW248706   5.490   5.490   7.820  1.9018 -1.3441  0.0675
15592SOL     OW48707   7.251   7.706   3.311  0.4288  0.8122 -0.5768
15592SOL    HW148708   7.284   7.742   3.229 -0.1320  2.2844 -0.1947
15592SOL    HW248709   7.226   7.616   3.290  0.9771  0.9338 -1.8305
15593SOL     OW48710   1.858   1.387   7.051  0.6325 -0.3259  0.0985
15593SOL    HW148711   1.889   1.357   6.966  1.9199  0.2509  0.3395
15593SOL    HW248712   1.770   1.350   7.059 -0.5252  1.5536 -2.5213
15594SOL     OW48713   7.723   3.771   7.869 -0.1809 -0.1224  0.8395
15594SOL    HW148714   7.798   3.826   7.893  0.2312 -1.3063  2.4393
15594SOL    HW248715   7.669   3.827   7.813  1.9723  0.6927 -0.5513
15595SOL     OW48716   4.307   8.674   0.754  0.3988  0.6019 -0.6668
15595SOL    HW148717   4.331   8.611   0.822 -1.0551  0.6205 -0.0974
15595SOL    HW248718   4.353   8.754   0.778  0.6396  0.3400 -0.2410
15596SOL     OW48719   8.249   7.276   0.738  0.0013 -0.0804  0.2255
15596SOL    HW148720   8.310   7.339   0.698  1.3407 -2.9082 -2.6086
15596SOL    HW248721   8.177   7.270   0.675  0.1624 -1.7138  0.1669
15597SOL     OW48722   3.336   5.549   8.056  0.5313  0.6796 -0.3591
15597SOL    HW148723   3.326   5.458   8.028  0.3083  0.6857 -0.2988
15597SOL    HW248724   3.428   5.557   8.079  0.4432  0.3297  0.1200
15598SOL     OW48725   2.849   6.550   8.804  0.4125  0.1496 -0.1224
15598SOL    HW148726   2.800   6.628   8.780 -0.9897 -0.4687  0.5512
15598SOL    HW248727   2.898   6.575   8.882  0.7927  0.6428 -0.5181
15599SOL     OW48728   7.073   7.237   2.652 -0.0429 -0.4436 -0.1119
15599SOL    HW148729   7.160   7.253   2.615 -0.1260 -1.6571 -0.8951
15599SOL    HW248730   7.054   7.145   2.629 -1.1829 -0.4424  0.7534
15600SOL     OW48731   5.508   5.927   0.712  0.2183  0.0200  0.3449
15600SOL    HW148732   5.496   5.862   0.782  1.1182  0.5584  1.0309
15600SOL    HW248733   5.597   5.909   0.679  0.9398  1.5981  1.3217
15601SOL     OW48734   0.326   2.774   6.523 -0.0820  0.3292  0.5751
15601SOL    HW148735   0.393   2.838   6.497 -0.2260  0.2177 -0.0847
15601SOL    HW248736   0.267   2.823   6.580 -1.3760  1.3833 -1.5641
15602SOL     OW48737   1.218   8.564   3.915  0.1242  0.3957  0.1805
15602SOL    HW148738   1.213   8.509   3.993  0.7119  1.2129  0.8259
15602SOL    HW248739   1.311   8.566   3.894 -0.0401  0.1360 -0.5848
15603SOL     OW48740   6.904   2.438   3.921  0.2262  0.1104 -0.2973
15603SOL    HW148741   6.876   2.495   3.993 -0.5496  1.4736 -1.6278
15603SOL    HW248742   6.824   2.395   3.891  0.4514 -0.0221 -0.7154
15604SOL     OW48743   0.653   6.182   4.065  0.4739  0.3457 -0.0592
15604SOL    HW148744   0.573   6.235   4.069  1.4771  1.8950  0.3924
15604SOL    HW248745   0.681   6.188   3.974  0.1879 -0.0439 -0.1759
15605SOL     OW48746   0.560   2.459   1.282 -0.7605 -0.4225  0.8920
15605SOL    HW148747   0.563   2.417   1.368 -0.6331  2.2991  2.2949
15605SOL    HW248748   0.650   2.487   1.266 -0.9683 -0.0870  0.3045
15606SOL     OW48749   3.801   5.621   3.962  0.2584 -0.4509 -0.2623
15606SOL    HW148750   3.784   5.587   3.874  0.2175  0.2661 -0.5378
15606SOL    HW248751   3.874   5.683   3.950 -0.7143  0.7717 -0.0637
15607SOL     OW48752   1.023   8.089   0.122 -0.4540  0.0155 -0.0828
15607SOL    HW148753   1.007   8.057   0.034 -1.5084 -1.5129  0.6237
15607SOL    HW248754   1.118   8.098   0.128 -0.3522 -0.1629 -1.2558
15608SOL     OW48755   6.246   1.696   2.522  0.6931 -0.6150 -0.6555
15608SOL    HW148756   6.180   1.676   2.456 -1.0283  2.3561  0.0024
15608SOL    HW248757   6.223   1.783   2.554  2.2328 -1.3664  2.9540
15609SOL     OW48758   4.890   5.210   4.586 -0.1674  0.3041  0.2561
15609SOL    HW148759   4.953   5.274   4.619 -0.2848 -0.0027  1.0856
15609SOL    HW248760   4.872   5.238   4.496  0.4687  0.9087  0.3128
15610SOL     OW48761   5.735   4.400   8.212 -0.2233 -0.1979  0.6307
15610SOL    HW148762   5.722   4.324   8.269  0.3763 -0.5028  0.3672
15610SOL    HW248763   5.823   4.389   8.176 -0.8516 -0.3842 -0.9230
15611SOL     OW48764   1.913   2.956   6.954  0.1000  0.2279  0.0788
15611SOL    HW148765   1.931   2.998   6.870  0.5840  0.4137  0.2718
15611SOL    HW248766   1.984   2.892   6.965 -0.8175 -0.9181 -0.3773
15612SOL     OW48767   5.836   5.574   5.596  0.3797  0.2445  0.3120
15612SOL    HW148768   5.746   5.553   5.620 -1.2509  1.6186 -3.7072
15612SOL    HW248769   5.841   5.669   5.604  1.3739  0.2134  0.1768
15613SOL     OW48770   6.501   2.981   7.876  0.5545  0.3280  0.1582
15613SOL    HW148771   6.476   2.909   7.934  0.7011 -0.5519 -0.8376
15613SOL    HW248772   6.443   2.972   7.801  2.1093 -0.1700 -1.0231
15614SOL     OW48773   5.752   7.444   5.876 -0.1906  0.0091 -0.2140
15614SOL    HW148774   5.739   7.418   5.968  2.3143  0.4042  0.3217
15614SOL    HW248775   5.664   7.462   5.844 -1.2981 -1.6277  1.6521
15615SOL     OW48776   3.166   6.648   3.932 -0.8608  0.0895  0.1035
15615SOL    HW148777   3.084   6.686   3.902 -1.5622  0.9533  2.8476
15615SOL    HW248778   3.180   6.686   4.019  2.1617 -0.4684 -0.0168
15616SOL     OW48779   5.788   0.035   6.045  0.2741  0.2051 -0.0210
15616SOL    HW148780   5.811   0.128   6.048  1.4167  0.0075 -1.4336
15616SOL    HW248781   5.842  -0.005   6.112 -0.9441  0.6688  1.2786
15617SOL     OW48782   4.535   7.473   1.455  0.3051  0.5370 -0.4639
15617SOL    HW148783   4.622   7.445   1.484  0.5505  2.2044  0.5857
15617SOL    HW248784   4.476   7.444   1.524 -0.2318 -1.7095 -1.7678
15618SOL     OW48785   8.450   4.975   4.918  0.3358 -0.0652  0.3847
15618SOL    HW148786   8.448   4.938   4.830 -2.0772  0.9909 -0.0961
15618SOL    HW248787   8.512   5.047   4.912 -0.5853  0.6767 -0.8064
15619SOL     OW48788   5.510   3.093   8.821  0.1029  0.0361 -0.4035
15619SOL    HW148789   5.517   3.004   8.857  0.8017  0.0720 -0.4333
15619SOL    HW248790   5.560   3.091   8.740 -0.5125  0.2626 -0.7930
15620SOL     OW48791   3.566   0.300   7.214 -0.2039  0.1283  0.6234
15620SOL    HW148792   3.625   0.226   7.224  1.8685  1.7541  1.1375
15620SOL    HW248793   3.542   0.299   7.121  0.5457 -0.6304  0.4248
15621SOL     OW48794   5.722   5.376   7.980  0.4592 -0.1817 -0.3911
15621SOL    HW148795   5.637   5.401   7.945  0.0778 -1.6490 -0.5888
15621SOL    HW248796   5.702   5.310   8.046  1.2930  1.2159  1.3595
15622SOL     OW48797   7.323   1.410   3.256  0.1000  0.2510 -0.3086
15622SOL    HW148798   7.355   1.350   3.188  0.8427  0.5949 -0.2777
15622SOL    HW248799   7.263   1.357   3.308  0.5618 -0.4104 -0.4245
15623SOL     OW48800   3.075   3.692   7.762 -0.4504 -0.0192  0.2677
15623SOL    HW148801   3.110   3.681   7.673  0.2406 -1.7476  0.7107
15623SOL    HW248802   3.129   3.633   7.816 -0.8586  1.0037  1.8385
15624SOL     OW48803   1.360   4.475   1.091  0.8624  0.0526  0.0423
15624SOL    HW148804   1.271   4.494   1.062  1.0030  0.0672 -0.3872
15624SOL    HW248805   1.373   4.529   1.169  0.0980 -0.8000  0.7833
15625SOL     OW48806   1.376   5.350   6.147  0.1144  0.7870 -0.0724
15625SOL    HW148807   1.303   5.397   6.108  0.5772  0.4038 -1.4570
15625SOL    HW248808   1.384   5.270   6.096  1.5252  0.8441 -0.0002
15626SOL     OW48809   1.812   1.312   7.917  0.3130 -0.1650 -0.0627
15626SOL    HW148810   1.893   1.363   7.916  1.9666 -2.3235 -4.4573
15626SOL    HW248811   1.757   1.353   7.849  0.5969 -2.4019 -1.7684
15627SOL     OW48812   5.772   7.102   8.100  0.3887 -0.5550  0.5056
15627SOL    HW148813   5.825   7.050   8.040  0.5878  0.7769 -0.5158
15627SOL    HW248814   5.696   7.130   8.048 -0.3304 -0.8127  1.3809
15628SOL     OW48815   0.922   4.227   2.490 -0.2245 -0.1407 -0.4376
15628SOL    HW148816   0.932   4.302   2.432 -0.9353  0.3744  0.0742
15628SOL    HW248817   0.855   4.255   2.553  1.2676 -0.2542  1.2815
15629SOL     OW48818   5.023   6.337   0.559  0.0678 -0.4138  0.1709
15629SOL    HW148819   5.086   6.365   0.625 -0.5233 -0.9454  0.9831
15629SOL    HW248820   5.070   6.345   0.476 -0.1857  3.4571  0.2146
15630SOL     OW48821   6.136   6.521   6.311 -0.7079 -0.0545  0.1701
15630SOL    HW148822   6.219   6.492   6.273 -0.6559  0.6625 -0.2790
15630SOL    HW248823   6.106   6.446   6.364  1.0203  0.2428  1.6597
15631SOL     OW48824   7.710   2.145   0.912  0.2740 -0.4155 -0.1426
15631SOL    HW148825   7.674   2.078   0.971 -1.2945  0.3768 -0.1533
15631SOL    HW248826   7.650   2.219   0.921  0.5793  0.0958 -1.9701
15632SOL     OW48827   3.821   1.473   3.317 -0.2243 -0.3861  0.3681
15632SOL    HW148828   3.826   1.386   3.278  0.0057 -0.8143  1.3198
15632SOL    HW248829   3.911   1.492   3.343 -0.5101 -0.4764  1.4487
15633SOL     OW48830   1.012   3.486   4.387  0.4850 -0.1368 -0.3768
15633SOL    HW148831   0.937   3.429   4.367  0.4025  0.2230 -1.1257
15633SOL    HW248832   0.974   3.572   4.400  0.7509  0.0219 -0.6287
15634SOL     OW48833   4.175   5.630   3.984  0.3037 -0.1435 -0.0207
15634SOL    HW148834   4.153   5.540   3.961 -0.4624  0.0603 -0.1440
15634SOL    HW248835   4.124   5.683   3.922  0.3833  0.3738  0.3496
15635SOL     OW48836   1.036   2.956   3.010 -0.2865 -0.3389  0.5623
15635SOL    HW148837   1.095   2.882   3.025  2.5539  1.7934  0.7541
15635SOL    HW248838   1.050   3.013   3.086  0.3433  2.0001 -1.1960
15636SOL     OW48839   6.106   7.227   8.334  0.7922  0.1994  0.7412
15636SOL    HW148840   6.153   7.187   8.261 -0.6790  0.1497 -0.2237
15636SOL    HW248841   6.027   7.264   8.295 -0.0186  0.2219  2.2997
15637SOL     OW48842   4.818   4.342   0.753 -0.5714 -0.5351 -0.1852
15637SOL    HW148843   4.890   4.304   0.803 -1.1877 -0.2714  0.9285
15637SOL    HW248844   4.861   4.392   0.683  0.3001 -0.9883  0.0170
15638SOL     OW48845   8.149   0.929   5.889  0.3002  0.2046 -0.1782
15638SOL    HW148846   8.162   0.974   5.806  1.9979 -1.3769 -0.8455
15638SOL    HW248847   8.148   0.836   5.866  1.8787 -0.3374  1.6363
15639SOL     OW48848   3.427   8.053   6.547 -0.0629 -0.1926 -0.5754
15639SOL    HW148849   3.503   8.079   6.496  0.1957  0.8428  0.2837
15639SOL    HW248850   3.432   7.958   6.551  2.1655 -0.1001  0.8387
15640SOL     OW48851   0.287   6.526   6.564 -0.9939  0.0023  0.6024
15640SOL    HW148852   0.366   6.481   6.596 -0.8912 -0.1271  0.1663
15640SOL    HW248853   0.230   6.455   6.535 -0.5405  0.1735 -0.7659
15641SOL     OW48854   6.839   1.299   1.133 -0.1909 -0.4780  0.1583
15641SOL    HW148855   6.764   1.239   1.128  0.9679 -1.8673 -1.9591
15641SOL    HW248856   6.799   1.386   1.136 -1.8988 -1.2277  0.5095
15642SOL     OW48857   1.510   7.562   0.228  0.0190 -0.0421 -0.6883
15642SOL    HW148858   1.545   7.651   0.235  0.4084 -0.2411 -0.0365
15642SOL    HW248859   1.521   7.525   0.315 -1.5712 -0.2097 -0.5315
15643SOL     OW48860   8.709   4.631   2.450  0.0583  0.2690  0.1545
15643SOL    HW148861   8.671   4.544   2.435  0.8527  0.1633 -1.4873
15643SOL    HW248862   8.794   4.614   2.490 -0.4774  0.3993  1.4127
15644SOL     OW48863   7.629   5.570   3.934 -0.1186  0.7185  0.2957
15644SOL    HW148864   7.572   5.504   3.893 -0.2556  1.1517 -0.2306
15644SOL    HW248865   7.598   5.575   4.024  0.2621 -0.3408  0.5018
15645SOL     OW48866   3.984   3.715   3.013 -0.1685 -0.6688 -0.0230
15645SOL    HW148867   3.977   3.768   3.092 -0.4309 -0.0252 -0.4714
15645SOL    HW248868   3.941   3.766   2.945 -1.8140 -2.1175 -0.1577
15646SOL     OW48869   4.209   8.612   6.147  0.1817  0.0702 -0.4985
15646SOL    HW148870   4.205   8.702   6.179  0.5097 -0.2717  0.5127
15646SOL    HW248871   4.280   8.571   6.196  0.1031 -0.7231 -1.0163
15647SOL     OW48872   8.133   8.678   2.370  0.2389 -0.0083  0.1836
15647SOL    HW148873   8.146   8.586   2.346  0.5527 -0.2793  1.3416
15647SOL    HW248874   8.060   8.677   2.432 -1.6768  0.8748 -1.9001
15648SOL     OW48875   5.490   6.769   4.946 -0.0109 -0.1274 -0.1341
15648SOL    HW148876   5.411   6.753   4.997  1.5066 -1.2712  2.0015
15648SOL    HW248877   5.558   6.718   4.990  1.9943  1.0310 -1.7152
15649SOL     OW48878   2.432   3.733   6.895 -0.3193 -0.2625 -0.0118
15649SOL    HW148879   2.359   3.718   6.955  0.0446 -0.9790  0.2588
15649SOL    HW248880   2.430   3.658   6.836  1.2706 -1.2145  1.0982
15650SOL     OW48881   7.639   5.508   2.694  0.0023 -0.1693 -0.3628
15650SOL    HW148882   7.648   5.576   2.760  1.8083 -0.6982 -0.0251
15650SOL    HW248883   7.592   5.437   2.739  0.5604 -0.2319  0.1270
15651SOL     OW48884   8.324   6.658   1.075 -0.6941 -0.1688  0.3764
15651SOL    HW148885   8.417   6.637   1.087 -0.6343 -0.1686 -0.0422
15651SOL    HW248886   8.302   6.714   1.149 -0.5361 -0.7251  0.8425
15652SOL     OW48887   2.253   3.015   7.163  0.2504 -0.3636 -0.0340
15652SOL    HW148888   2.263   2.997   7.069 -0.1981 -0.6161 -0.0356
15652SOL    HW248889   2.288   3.103   7.174 -1.1524  0.3155 -0.7322
15653SOL     OW48890   1.079   2.722   1.837  0.2156  0.4988  0.0505
15653SOL    HW148891   0.985   2.734   1.847  0.6665  3.3790  2.3270
15653SOL    HW248892   1.112   2.716   1.926  2.2818  0.7468 -0.6405
15654SOL     OW48893   1.336   6.201   2.780  0.3369 -0.4153 -0.6647
15654SOL    HW148894   1.320   6.245   2.863  0.1561 -0.2775 -0.7711
15654SOL    HW248895   1.256   6.215   2.730  1.0097  0.8293 -1.4451
15655SOL     OW48896   5.521   5.899   4.297 -0.3561 -0.5187 -0.2134
15655SOL    HW148897   5.596   5.943   4.337 -0.1997 -2.5232  1.8921
15655SOL    HW248898   5.445   5.933   4.345 -0.3496 -1.5472  0.5626
15656SOL     OW48899   2.130   1.764   6.453  0.1275 -0.0662 -0.1668
15656SOL    HW148900   2.052   1.819   6.447 -1.0310 -1.5928  0.3436
15656SOL    HW248901   2.185   1.809   6.517 -0.5241  0.8061 -0.2017
15657SOL     OW48902   0.469   8.043   5.467 -0.2355 -0.7446 -0.1424
15657SOL    HW148903   0.475   7.992   5.547  0.8047 -0.8219 -0.2545
15657SOL    HW248904   0.489   8.133   5.493  0.3769 -0.8150 -0.3519
15658SOL     OW48905   8.822   6.938   7.909 -0.5246 -0.2439  0.4795
15658SOL    HW148906   8.740   6.922   7.862 -1.0736 -1.4748  1.7634
15658SOL    HW248907   8.828   6.865   7.971  1.6710 -0.2981  0.2756
15659SOL     OW48908   7.938   0.094   7.899  0.0302 -0.0712  0.5256
15659SOL    HW148909   8.014   0.144   7.928  0.1046 -0.4523  1.0172
15659SOL    HW248910   7.958   0.069   7.809 -0.2488  1.2367  0.0848
15660SOL     OW48911   2.125   6.507   8.311  0.3434  0.3987  0.0500
15660SOL    HW148912   2.213   6.474   8.331  0.1434 -0.4070 -0.3551
15660SOL    HW248913   2.083   6.517   8.396  0.4028 -0.4481  0.1863
15661SOL     OW48914   1.299   1.720   3.091  0.2582 -0.0452  0.7801
15661SOL    HW148915   1.305   1.816   3.087 -0.5120 -0.0290 -0.8339
15661SOL    HW248916   1.322   1.698   3.181  2.5650  1.4951  0.6663
15662SOL     OW48917   8.420   0.098   6.496 -0.3826 -0.3271  0.1924
15662SOL    HW148918   8.493   0.156   6.515  0.3381 -1.0107 -0.4024
15662SOL    HW248919   8.349   0.156   6.470  0.0631  0.3279  0.4120
15663SOL     OW48920   0.214   2.099   7.674  0.1023 -0.1296  0.3676
15663SOL    HW148921   0.211   2.003   7.678  2.1558 -0.2563 -0.0617
15663SOL    HW248922   0.242   2.126   7.761 -2.6224  0.2795  1.1993
15664SOL     OW48923   8.305   2.953   3.695 -0.9805 -0.0108  0.2553
15664SOL    HW148924   8.247   2.889   3.653 -1.1166  0.0092  0.4109
15664SOL    HW248925   8.299   2.932   3.789 -0.1536 -0.5029  0.2136
15665SOL     OW48926   6.537   1.360   7.633 -0.5591  0.2591  0.6264
15665SOL    HW148927   6.501   1.289   7.687 -1.0274  0.5560  0.7086
15665SOL    HW248928   6.469   1.378   7.569  0.9891 -1.9026 -1.8390
15666SOL     OW48929   2.037   1.694   2.104 -0.3599 -0.1571  0.0442
15666SOL    HW148930   2.101   1.628   2.080  0.7768  0.0572  2.2909
15666SOL    HW248931   2.065   1.727   2.189 -0.9928  3.0693 -0.8215
15667SOL     OW48932   1.654   7.925   0.054  0.1403 -0.0237 -0.0910
15667SOL    HW148933   1.614   8.012   0.051  2.3858  1.0564 -1.7466
15667SOL    HW248934   1.640   7.896   0.144 -0.0018  2.4210  0.7643
15668SOL     OW48935   8.444   3.915   5.958 -0.1480  0.2907  0.4321
15668SOL    HW148936   8.518   3.924   6.019  0.5043  0.2492 -0.3330
15668SOL    HW248937   8.408   4.003   5.951 -1.1806  0.0448  2.0080
15669SOL     OW48938   2.513   7.353   2.618 -0.1852  0.3506  0.5250
15669SOL    HW148939   2.423   7.329   2.596  0.1866  0.5878 -1.4336
15669SOL    HW248940   2.521   7.444   2.591  0.8114  0.1362  0.0376
15670SOL     OW48941   6.439   4.814   3.860  0.6327 -0.4372  0.4701
15670SOL    HW148942   6.418   4.897   3.903  2.2898 -0.2431  0.9875
15670SOL    HW248943   6.356   4.766   3.858 -0.0466  0.6398  1.4808
15671SOL     OW48944   6.851   3.591   7.237 -0.3053  0.7187  0.1643
15671SOL    HW148945   6.925   3.618   7.182 -1.6203 -0.9601 -2.6749
15671SOL    HW248946   6.798   3.670   7.245  0.5730  1.3273  0.1876
15672SOL     OW48947   0.536   1.393   5.340 -0.3775 -0.1253  0.2282
15672SOL    HW148948   0.600   1.364   5.406  1.1951 -0.0361 -1.1780
15672SOL    HW248949   0.454   1.399   5.388  0.7151  0.0678  2.2228
15673SOL     OW48950   4.426   0.962   0.130  0.2900  0.3245 -0.1027
15673SOL    HW148951   4.415   1.008   0.047  1.6923 -1.8099 -1.5758
15673SOL    HW248952   4.375   0.881   0.119 -0.5256  0.5577  1.6430
15674SOL     OW48953   1.899   2.731   5.314 -0.2409  0.0566 -0.2085
15674SOL    HW148954   1.939   2.799   5.369 -1.0904 -0.8042  1.5519
15674SOL    HW248955   1.919   2.649   5.359 -0.4429 -0.7372 -1.5339
15675SOL     OW48956   7.162   4.960   7.491  0.6828 -0.4037 -0.6141
15675SOL    HW148957   7.069   4.951   7.513  0.6902  0.1620 -0.3065
15675SOL    HW248958   7.162   5.019   7.416  0.7957 -0.3477 -0.5698
15676SOL     OW48959   5.493   6.348   3.691  0.4444  0.0652 -0.0502
15676SOL    HW148960   5.515   6.365   3.600  1.8082  0.7585  0.3818
15676SOL    HW248961   5.572   6.309   3.728 -0.3116 -0.8149  0.6930
15677SOL     OW48962   2.712   3.297   8.461  0.3405 -0.5923 -0.1057
15677SOL    HW148963   2.695   3.390   8.453 -0.5778 -0.6947  0.5051
15677SOL    HW248964   2.664   3.270   8.540  3.7258 -0.8377  2.0827
15678SOL     OW48965   6.392   7.475   5.054 -0.9497 -0.2589 -0.3713
15678SOL    HW148966   6.354   7.541   4.996  2.3130  0.3624 -2.0562
15678SOL    HW248967   6.436   7.414   4.995  2.4971  0.3418  1.3227
15679SOL     OW48968   5.858   4.962   6.747  0.8104 -0.8096  0.1162
15679SOL    HW148969   5.805   4.890   6.712  1.0096 -0.2881 -1.3439
15679SOL    HW248970   5.795   5.016   6.796  0.8284 -2.4195  2.0364
15680SOL     OW48971   4.842   2.116   5.127 -0.3892 -0.0555 -0.1616
15680SOL    HW148972   4.764   2.061   5.139 -1.9152  1.9160 -0.5187
15680SOL    HW248973   4.849   2.129   5.033  0.0230  0.2683 -0.0903
15681SOL     OW48974   8.509   1.481   6.376  0.0589 -0.1859  0.2227
15681SOL    HW148975   8.546   1.540   6.310 -0.4781  0.7123  0.7038
15681SOL    HW248976   8.567   1.490   6.451 -0.4592  0.3518  0.5732
15682SOL     OW48977   2.774   6.015   2.204  0.6494 -0.1310  0.4581
15682SOL    HW148978   2.708   5.951   2.228 -0.4425  0.9341  0.3895
15682SOL    HW248979   2.724   6.090   2.171  1.9363  0.1070 -1.0744
15683SOL     OW48980   1.295   7.757   4.847  0.2675 -0.1984  0.2700
15683SOL    HW148981   1.362   7.777   4.913  0.0071  0.7287  0.2739
15683SOL    HW248982   1.224   7.818   4.867 -0.6153 -1.2058  0.3073
15684SOL     OW48983   1.277   6.845   3.444  0.4618  0.7172 -0.3469
15684SOL    HW148984   1.263   6.752   3.427 -0.7943  0.9451 -0.7156
15684SOL    HW248985   1.302   6.881   3.359  0.3421  0.8115 -0.3427
15685SOL     OW48986   3.488   4.280   3.520 -0.0250  0.1217 -0.1686
15685SOL    HW148987   3.409   4.314   3.563  1.2093  1.7205  0.9813
15685SOL    HW248988   3.471   4.289   3.427 -0.8357  1.3767  0.0815
15686SOL     OW48989   5.216   2.055   6.276 -0.4727  0.3869  0.3307
15686SOL    HW148990   5.216   1.998   6.199 -2.2779 -0.7326  1.0690
15686SOL    HW248991   5.302   2.097   6.276  0.2830 -1.0565 -1.2015
15687SOL     OW48992   5.818   5.856   5.568  0.0864  0.5711 -0.7560
15687SOL    HW148993   5.723   5.865   5.573 -0.2233 -1.8023 -1.1110
15687SOL    HW248994   5.835   5.829   5.478  0.7897 -1.4367 -0.0755
15688SOL     OW48995   3.951   3.796   5.904 -0.1076  0.2551 -0.4407
15688SOL    HW148996   3.939   3.704   5.929 -0.0431  0.3152 -0.1851
15688SOL    HW248997   3.989   3.837   5.981  2.0546  0.0103 -1.2949
15689SOL     OW48998   4.235   6.069   3.183  0.2154 -0.1373  0.0549
15689SOL    HW148999   4.265   6.145   3.133 -0.0235  0.6795  1.1083
15689SOL    HW249000   4.264   5.993   3.132  1.6471  0.6492 -0.3403
15690SOL     OW49001   0.598   5.723   7.991  0.1934  0.2684 -0.0262
15690SOL    HW149002   0.682   5.722   8.038 -0.1827 -4.5721  1.1217
15690SOL    HW249003   0.612   5.664   7.917 -1.4016  1.8841 -1.7117
15691SOL     OW49004   0.165   2.710   7.539 -0.2903  0.2684 -0.2090
15691SOL    HW149005   0.088   2.729   7.592 -1.0067  0.1240 -1.1835
15691SOL    HW249006   0.227   2.671   7.600 -0.8376  0.7436  0.6666
15692SOL     OW49007   7.662   6.706   8.237 -0.2178 -0.2164  0.0087
15692SOL    HW149008   7.672   6.623   8.189 -1.0129 -0.8243  0.8686
15692SOL    HW249009   7.652   6.772   8.169  2.3009 -0.5247 -0.7694
15693SOL     OW49010   3.204   5.208   0.604  0.3484 -0.1948 -0.5701
15693SOL    HW149011   3.147   5.283   0.583 -0.9673 -1.1325 -0.4883
15693SOL    HW249012   3.273   5.211   0.538 -0.0185  0.7348 -0.9337
15694SOL     OW49013   3.887   2.545   2.490  0.3196 -0.5355  0.4663
15694SOL    HW149014   3.888   2.639   2.475  0.7472 -0.5804  0.1925
15694SOL    HW249015   3.960   2.530   2.550 -0.2735 -0.5868  1.1895
15695SOL     OW49016   5.078   3.829   3.223  0.4480 -1.0178 -0.4810
15695SOL    HW149017   5.070   3.745   3.270 -1.2547 -1.6998 -1.8850
15695SOL    HW249018   5.148   3.813   3.159 -0.8009 -1.8940 -1.6870
15696SOL     OW49019   8.858   2.225   1.967 -0.4333 -0.6215 -0.0518
15696SOL    HW149020   8.778   2.194   1.924 -1.1568  1.2821 -0.1589
15696SOL    HW249021   8.872   2.312   1.931  1.9230 -1.0407 -0.2791
15697SOL     OW49022   4.502   1.975   0.801 -0.3869  0.2593 -1.2472
15697SOL    HW149023   4.427   2.014   0.757 -0.5180  3.2236  1.2524
15697SOL    HW249024   4.465   1.927   0.875  0.0366  1.3201 -0.2942
15698SOL     OW49025   3.272   7.453   8.456  0.2196 -0.4869 -0.3922
15698SOL    HW149026   3.263   7.525   8.392  0.2898 -1.4146 -1.4790
15698SOL    HW249027   3.294   7.377   8.402 -0.5396 -1.4773  0.6750
15699SOL     OW49028   8.246   7.067   0.044  0.1818  1.1685  0.3252
15699SOL    HW149029   8.295   7.125  -0.015  0.3656 -0.4532 -1.2237
15699SOL    HW249030   8.301   6.989   0.050 -0.1200  1.0743  2.2456
15700SOL     OW49031   2.178   3.716   7.087 -0.0470 -0.2935  0.0285
15700SOL    HW149032   2.257   3.755   7.125  0.7431 -1.8761  0.0895
15700SOL    HW249033   2.106   3.755   7.138  0.9206 -1.6085  2.5793
15701SOL     OW49034   7.030   4.780   1.889 -0.1014 -1.0374 -0.6467
15701SOL    HW149035   7.016   4.802   1.981 -0.3122 -1.9697 -0.4522
15701SOL    HW249036   6.987   4.851   1.841 -1.8757 -1.6466 -0.0322
15702SOL     OW49037   7.258   4.171   4.665  0.1024  0.4278 -0.2103
15702SOL    HW149038   7.220   4.246   4.620  0.3615  0.8373  0.2405
15702SOL    HW249039   7.309   4.126   4.599  0.4725  1.0167 -0.3277
15703SOL     OW49040   3.053   1.900   6.392  0.2455  0.2552 -0.0085
15703SOL    HW149041   3.093   1.986   6.381  2.6523 -0.6356  0.9763
15703SOL    HW249042   2.979   1.900   6.332  1.6759  2.1036 -1.9243
15704SOL     OW49043   7.370   6.458   7.840 -0.8519 -0.0997 -0.1909
15704SOL    HW149044   7.302   6.438   7.776  0.2464  1.7106 -2.0503
15704SOL    HW249045   7.409   6.374   7.861 -3.6307 -1.2265  1.0169
15705SOL     OW49046   1.167   5.625   0.437  0.9565  0.2334 -0.0293
15705SOL    HW149047   1.086   5.573   0.443 -0.1069  1.7559 -0.6901
15705SOL    HW249048   1.191   5.642   0.528  0.6144 -0.3391  0.1779
15706SOL     OW49049   4.031   1.029   3.804  0.5239 -0.3517  0.3361
15706SOL    HW149050   4.010   0.968   3.875  0.0774  0.5900  1.0401
15706SOL    HW249051   4.071   1.104   3.849  0.5537  0.1076 -0.4496
15707SOL     OW49052   7.485   0.366   1.935 -0.0410  0.8508 -0.1706
15707SOL    HW149053   7.400   0.336   1.969 -0.1267  0.4478 -0.7285
15707SOL    HW249054   7.523   0.416   2.007  0.4057 -1.1641  1.0499
15708SOL     OW49055   4.550   2.847   8.176  0.1685  0.4986 -0.0283
15708SOL    HW149056   4.629   2.793   8.172  0.1737  0.5138 -0.1275
15708SOL    HW249057   4.563   2.914   8.109  0.1049  0.5462  0.0062
15709SOL     OW49058   7.689   5.324   3.342 -0.1015  0.3466 -0.6095
15709SOL    HW149059   7.740   5.294   3.417 -0.3012 -1.3077 -1.0993
15709SOL    HW249060   7.716   5.267   3.270 -1.0058  0.9194 -1.4314
15710SOL     OW49061   7.997   1.512   5.998  0.1009  0.3139 -0.2949
15710SOL    HW149062   8.065   1.570   6.031  0.8085  0.8099 -2.4185
15710SOL    HW249063   8.012   1.428   6.041  0.8783  0.9301  0.6488
15711SOL     OW49064   8.464   5.251   0.265 -0.0587 -0.0544 -0.1968
15711SOL    HW149065   8.487   5.158   0.267  0.0286 -0.0280  0.0418
15711SOL    HW249066   8.369   5.252   0.274 -0.1207 -0.1445 -0.7624
15712SOL     OW49067   6.157   2.757   4.910  0.6885  0.4023  0.3340
15712SOL    HW149068   6.190   2.831   4.859 -0.1298  1.4609  1.2924
15712SOL    HW249069   6.231   2.730   4.964  1.1561  0.1540 -0.4222
15713SOL     OW49070   0.836   8.735   3.433 -0.0410  0.0534 -0.4070
15713SOL    HW149071   0.756   8.724   3.486  1.2725  1.7642  2.1930
15713SOL    HW249072   0.900   8.677   3.474  0.9684  1.2888 -0.1502
15714SOL     OW49073   3.334   3.762   2.078  0.2057 -0.4439  0.1405
15714SOL    HW149074   3.325   3.858   2.083 -0.0056 -0.4233 -0.5456
15714SOL    HW249075   3.310   3.731   2.165  0.2463  0.1252  0.3602
15715SOL     OW49076   2.821   8.522   1.676 -0.0912 -0.1237 -0.2796
15715SOL    HW149077   2.794   8.439   1.637 -0.9714 -0.4882  1.0431
15715SOL    HW249078   2.913   8.509   1.699  0.4068  0.0631 -2.0853
15716SOL     OW49079   3.134   3.388   6.411 -0.0838  0.4798 -0.4765
15716SOL    HW149080   3.097   3.383   6.323 -0.2585  0.9992 -0.4357
15716SOL    HW249081   3.140   3.482   6.429 -1.4536  0.3831  0.6611
15717SOL     OW49082   1.186   8.338   8.564  0.2275 -0.3814  0.0994
15717SOL    HW149083   1.114   8.294   8.610 -0.2507  0.8872  0.6306
15717SOL    HW249084   1.259   8.334   8.625  0.5188 -1.3501 -0.2921
15718SOL     OW49085   8.555   3.776   6.374  0.1084  0.6884  0.3178
15718SOL    HW149086   8.635   3.824   6.355  0.2996  0.4725  0.5762
15718SOL    HW249087   8.579   3.684   6.365 -0.4534  0.6412 -0.9896
15719SOL     OW49088   0.260   1.516   8.410  0.6467  0.2694  0.1321
15719SOL    HW149089   0.166   1.498   8.419  0.4768  0.5197 -0.9857
15719SOL    HW249090   0.303   1.442   8.453 -0.0540 -0.5019 -0.4700
15720SOL     OW49091   7.977   1.899   7.602 -0.3429 -0.4003  0.1380
15720SOL    HW149092   8.010   1.813   7.574  0.8279  1.0576 -3.5937
15720SOL    HW249093   8.032   1.922   7.677  0.3325 -2.2445  0.2714
15721SOL     OW49094   4.971   1.441   5.053 -0.6398 -0.7044  1.0805
15721SOL    HW149095   5.020   1.445   5.135 -1.7707 -1.2906  1.7981
15721SOL    HW249096   4.920   1.360   5.058 -0.8874 -0.6499 -0.1154
15722SOL     OW49097   2.040   2.705   0.903  0.0404  0.4152 -0.2362
15722SOL    HW149098   1.962   2.731   0.952  0.5675 -1.1011  1.5159
15722SOL    HW249099   2.048   2.770   0.834 -2.1678  1.2083  0.1953
15723SOL     OW49100   5.922   1.820   4.073  0.0145  0.2374 -0.0590
15723SOL    HW149101   5.857   1.890   4.081  0.4936  0.9682 -2.0536
15723SOL    HW249102   6.004   1.865   4.055  1.9522 -0.4335  5.3792
15724SOL     OW49103   4.452   2.046   3.340 -0.1444 -0.2080 -0.1025
15724SOL    HW149104   4.484   2.009   3.257  0.1167  1.3863 -0.7437
15724SOL    HW249105   4.530   2.080   3.383 -0.6627  2.2057 -0.9072
15725SOL     OW49106   0.087   5.885   3.453 -0.2599  0.5350  0.1466
15725SOL    HW149107   0.026   5.827   3.407  0.2836 -0.0930  0.1905
15725SOL    HW249108   0.170   5.873   3.406  0.1062  0.4921  0.7957
15726SOL     OW49109   0.855   8.039   6.919  0.8355 -0.6353 -0.2011
15726SOL    HW149110   0.811   8.029   7.004  0.2311  0.6007 -0.3387
15726SOL    HW249111   0.795   7.998   6.857 -0.0499  0.8219 -0.3544
15727SOL     OW49112   5.891   3.037   5.073 -0.7252  0.1927 -0.0646
15727SOL    HW149113   5.875   3.033   5.167 -0.2645  0.2838  0.0181
15727SOL    HW249114   5.890   3.131   5.052 -3.4437  0.1248 -0.6130
15728SOL     OW49115   6.558   0.056   5.701 -0.4351  0.1096  0.1865
15728SOL    HW149116   6.523   0.023   5.618  0.6129 -0.2092 -0.1395
15728SOL    HW249117   6.485   0.105   5.739 -1.2639 -0.5939 -0.4337
15729SOL     OW49118   6.025   3.177   0.297 -0.1259 -0.0795 -0.6188
15729SOL    HW149119   6.038   3.267   0.265 -1.6028  0.5255  0.3819
15729SOL    HW249120   5.948   3.183   0.353  0.8518 -1.5897  0.9879
15730SOL     OW49121   7.058   0.310   5.964  0.3820  0.3051  0.0912
15730SOL    HW149122   7.071   0.254   5.887 -2.5221 -1.2727  0.6233
15730SOL    HW249123   7.093   0.395   5.937  1.1310 -0.6693 -2.2926
15731SOL     OW49124   3.535   4.904   7.426 -0.5779 -0.5759  0.4010
15731SOL    HW149125   3.572   4.822   7.392 -0.2024  0.4306 -1.7376
15731SOL    HW249126   3.441   4.888   7.428 -0.6562 -0.5510 -1.5606
15732SOL     OW49127   0.911   4.968   6.898 -0.2790 -0.0371  0.1631
15732SOL    HW149128   0.981   5.017   6.941 -0.5903  0.1693  0.4355
15732SOL    HW249129   0.929   4.876   6.920  1.6465 -0.3363 -2.2323
15733SOL     OW49130   5.305   5.795   6.022  0.0269  0.0153 -0.5017
15733SOL    HW149131   5.355   5.817   6.101  0.3975  0.5280 -0.8702
15733SOL    HW249132   5.368   5.805   5.951 -0.4617  0.1265 -0.9218
15734SOL     OW49133   4.413   1.138   8.768  0.1611 -0.4080 -0.0454
15734SOL    HW149134   4.363   1.206   8.811  0.0198 -0.4110 -0.2016
15734SOL    HW249135   4.420   1.167   8.677 -0.0872 -0.7046 -0.1620
15735SOL     OW49136   3.614   2.581   1.801  0.3268 -0.0426 -0.1012
15735SOL    HW149137   3.661   2.497   1.803  0.9021  0.2488  2.7010
15735SOL    HW249138   3.521   2.557   1.804  0.3882 -0.5601 -1.5040
15736SOL     OW49139   0.134   1.381   7.119 -1.1526  0.3657  0.3575
15736SOL    HW149140   0.216   1.421   7.149  0.1908 -0.5566 -1.8424
15736SOL    HW249141   0.065   1.436   7.157  0.5256  3.1396 -0.3368
15737SOL     OW49142   6.486   2.870   3.193  0.0820  1.1761  0.1041
15737SOL    HW149143   6.507   2.958   3.226 -1.3788  1.0842  1.3688
15737SOL    HW249144   6.403   2.880   3.148 -1.3162  0.0670  2.2760
15738SOL     OW49145   8.240   0.395   0.761  0.2060 -0.5303 -0.2910
15738SOL    HW149146   8.241   0.439   0.676 -0.4314 -1.1323 -0.6140
15738SOL    HW249147   8.226   0.302   0.740 -0.0820 -0.6652  0.4799
15739SOL     OW49148   5.389   6.296   8.013 -0.4692  0.3481 -0.0285
15739SOL    HW149149   5.474   6.314   7.973  0.2041  0.1926  1.2889
15739SOL    HW249150   5.353   6.224   7.961  1.6018 -1.7347  1.2580
15740SOL     OW49151   6.716   0.418   1.124 -0.2058 -0.2527 -0.1311
15740SOL    HW149152   6.709   0.371   1.207 -1.3612 -1.2608 -0.7711
15740SOL    HW249153   6.807   0.406   1.097 -0.1689 -1.0859  0.3219
15741SOL     OW49154   2.516   2.557   8.867  0.7772  0.1901  0.3905
15741SOL    HW149155   2.608   2.571   8.846  0.7991  0.0072  0.3640
15741SOL    HW249156   2.516   2.526   8.957  0.7127  0.5705  0.5251
15742SOL     OW49157   1.685   7.281   0.738 -0.0474 -0.2167  0.1571
15742SOL    HW149158   1.674   7.204   0.682 -2.7231  0.4292 -0.3493
15742SOL    HW249159   1.634   7.262   0.816  0.2011  0.5867  0.5279
15743SOL     OW49160   8.310   4.923   3.255  0.2719  0.9594 -0.0271
15743SOL    HW149161   8.344   4.990   3.196 -1.6353  0.8495 -1.3107
15743SOL    HW249162   8.215   4.931   3.250 -0.2027 -3.1344 -1.9375
15744SOL     OW49163   6.685   3.926   2.650 -0.0069 -0.3959  0.0347
15744SOL    HW149164   6.743   3.951   2.578  0.0581 -0.0209  0.2187
15744SOL    HW249165   6.737   3.940   2.729 -0.2009 -0.4730  0.1763
15745SOL     OW49166   5.630   7.849   7.898  0.2855 -0.3686  0.4611
15745SOL    HW149167   5.698   7.891   7.846  0.0852 -1.3489 -0.6274
15745SOL    HW249168   5.674   7.826   7.980  0.0739  3.0735  1.7012
15746SOL     OW49169   1.229   3.935   1.271 -0.2313 -0.2964  0.3736
15746SOL    HW149170   1.258   3.901   1.356 -2.0251 -0.1711  1.0843
15746SOL    HW249171   1.138   3.906   1.264 -0.1029 -0.3251 -1.5400
15747SOL     OW49172   8.624   0.859   8.370  0.2282 -0.2404 -0.5428
15747SOL    HW149173   8.665   0.774   8.382  0.8129  0.1393  0.2456
15747SOL    HW249174   8.605   0.890   8.459 -0.2422  0.3285 -0.8291
15748SOL     OW49175   4.938   3.108   5.562  0.5055 -0.7216 -0.2906
15748SOL    HW149176   4.919   3.015   5.547  1.3790 -1.0067  0.3683
15748SOL    HW249177   5.029   3.110   5.591  0.8454  0.4463 -1.3433
15749SOL     OW49178   1.467   5.814   8.851 -0.2912  0.2532 -0.0366
15749SOL    HW149179   1.551   5.774   8.873  1.3168  1.8881 -2.6675
15749SOL    HW249180   1.460   5.888   8.912 -0.5396 -0.6939  1.1105
15750SOL     OW49181   6.454   6.534   1.348  0.1852  0.0133  0.4047
15750SOL    HW149182   6.394   6.500   1.414 -1.1725  0.9290 -0.2911
15750SOL    HW249183   6.451   6.629   1.359  2.2613  0.0663  0.9411
15751SOL     OW49184   2.148   3.519   0.008 -0.0087  0.4113  0.1118
15751SOL    HW149185   2.222   3.566  -0.029 -1.4377  1.1084 -2.0527
15751SOL    HW249186   2.138   3.556   0.096  1.6112  0.9398  0.1103
15752SOL     OW49187   1.631   0.945   8.139  0.2906 -0.3389  0.3544
15752SOL    HW149188   1.641   0.906   8.226  0.2468 -1.5504 -0.1630
15752SOL    HW249189   1.571   1.019   8.152  0.4752 -0.3555  1.3859
15753SOL     OW49190   5.716   7.738   4.217  0.0095  0.3770 -0.0518
15753SOL    HW149191   5.805   7.741   4.181  0.6927 -0.2249  1.5151
15753SOL    HW249192   5.720   7.793   4.295 -0.6163 -0.7837  0.8179
15754SOL     OW49193   1.117   0.087   1.919  0.3617 -0.4427  0.0246
15754SOL    HW149194   1.133   0.114   1.829 -0.6421  0.0405 -0.0256
15754SOL    HW249195   1.172   0.010   1.931 -0.1873 -1.0810 -1.3097
15755SOL     OW49196   0.668   0.632   2.451  0.6979 -0.3599  0.0887
15755SOL    HW149197   0.717   0.581   2.516  1.1833 -0.4486 -0.3462
15755SOL    HW249198   0.713   0.716   2.445  0.8687 -0.4815 -0.3926
15756SOL     OW49199   3.324   7.365   0.950  0.1825 -0.5377 -0.0751
15756SOL    HW149200   3.311   7.425   1.024 -2.4123 -0.2864 -0.6288
15756SOL    HW249201   3.376   7.414   0.888  1.3523 -0.3017  1.0519
15757SOL     OW49202   4.342   7.970   5.431  0.4356 -0.0835  0.3914
15757SOL    HW149203   4.248   7.989   5.434  0.3892 -0.3891  1.4452
15757SOL    HW249204   4.370   8.000   5.345 -0.2747  1.7437  0.7471
15758SOL     OW49205   7.362   6.296   3.671 -0.0268  0.0081 -0.3131
15758SOL    HW149206   7.316   6.313   3.589  0.9792 -0.9887 -1.1262
15758SOL    HW249207   7.451   6.274   3.644  0.9306  1.7547  1.1869
15759SOL     OW49208   5.789   7.111   0.069  0.5732  0.1358 -0.2051
15759SOL    HW149209   5.813   7.180   0.131  0.3604  0.6615 -0.6989
15759SOL    HW249210   5.852   7.119  -0.002  1.3129 -0.9814  0.3006
15760SOL     OW49211   3.806   1.582   4.968 -0.1967  0.2564 -0.2250
15760SOL    HW149212   3.780   1.582   5.060  2.4214  0.3769  0.6162
15760SOL    HW249213   3.724   1.572   4.920 -1.7974  1.4019  2.0503
15761SOL     OW49214   3.337   6.279   4.440 -0.0249 -0.0583  0.1842
15761SOL    HW149215   3.319   6.373   4.433 -1.8935 -0.2768  1.1627
15761SOL    HW249216   3.401   6.261   4.372  0.6905  1.9975  0.2418
15762SOL     OW49217   3.192   8.253   8.109 -0.1466 -0.1711  0.5234
15762SOL    HW149218   3.161   8.167   8.081 -0.0484 -0.4391  1.2071
15762SOL    HW249219   3.228   8.293   8.030 -0.5979 -0.5809  0.1089
15763SOL     OW49220   2.608   4.352   5.532 -0.0760  0.2519 -0.3988
15763SOL    HW149221   2.556   4.271   5.531  0.2193  0.0180  1.0858
15763SOL    HW249222   2.582   4.396   5.612  1.6618  0.3578  0.1415
15764SOL     OW49223   3.388   5.355   2.357  0.7861 -0.2832  0.1414
15764SOL    HW149224   3.293   5.343   2.363  0.9642 -1.2381  1.5256
15764SOL    HW249225   3.405   5.372   2.264 -0.9875  2.2419  0.1818
15765SOL     OW49226   5.823   1.619   3.490  0.2607 -0.0077  0.3719
15765SOL    HW149227   5.860   1.554   3.551  0.0104  0.2329  0.7789
15765SOL    HW249228   5.848   1.586   3.403  0.1332 -0.6559  0.5733
15766SOL     OW49229   2.435   4.912   0.603  0.5543 -0.6731 -0.2637
15766SOL    HW149230   2.368   4.912   0.535  1.0158 -0.7445 -0.7211
15766SOL    HW249231   2.430   5.000   0.641  1.7226  0.1318 -1.8299
15767SOL     OW49232   0.991   5.848   0.412 -0.4107  0.5291  0.0519
15767SOL    HW149233   1.074   5.801   0.406 -0.9643 -0.4922  0.0317
15767SOL    HW249234   0.935   5.790   0.464 -1.9744 -0.1231 -2.2018
15768SOL     OW49235   6.885   4.462   5.995 -0.2690 -0.0394 -0.8080
15768SOL    HW149236   6.916   4.434   5.909 -0.0833 -0.2478 -0.6722
15768SOL    HW249237   6.820   4.396   6.020 -1.1352  0.6120 -1.2705
15769SOL     OW49238   5.574   1.965   3.971 -0.1653  0.0238  0.0819
15769SOL    HW149239   5.635   1.990   3.902  0.4379  1.7918  1.1900
15769SOL    HW249240   5.488   1.989   3.937  0.1634  1.2437  0.0542
15770SOL     OW49241   8.208   4.986   0.373 -0.5135 -0.0887 -0.0255
15770SOL    HW149242   8.301   4.971   0.354 -0.5361 -0.0399 -0.1737
15770SOL    HW249243   8.186   4.920   0.439 -0.6829 -0.9132 -0.8795
15771SOL     OW49244   5.427   3.379   8.623  0.1005  0.4507 -0.1723
15771SOL    HW149245   5.474   3.315   8.568  1.1645  0.4679  0.6784
15771SOL    HW249246   5.494   3.443   8.646 -0.6240  1.0876  0.1809
15772SOL     OW49247   3.752   3.078   1.020 -0.2034  0.3020 -0.0546
15772SOL    HW149248   3.687   3.016   1.055 -0.0298  0.1815  0.0565
15772SOL    HW249249   3.736   3.159   1.069  0.6022 -0.1146  0.9259
15773SOL     OW49250   1.315   4.587   2.806 -0.3189  0.4087 -0.2159
15773SOL    HW149251   1.235   4.535   2.802 -0.1511  0.1158  0.1866
15773SOL    HW249252   1.289   4.669   2.849 -0.1534 -0.1826  1.0661
15774SOL     OW49253   8.572   3.711   3.058  0.1225  0.1963  0.1400
15774SOL    HW149254   8.589   3.708   3.152  1.6137  0.4259 -0.1005
15774SOL    HW249255   8.599   3.799   3.031  0.3934 -0.1038 -0.6157
15775SOL     OW49256   4.270   0.796   3.838  0.1376 -0.1815 -0.5159
15775SOL    HW149257   4.190   0.750   3.864 -1.3487  3.3569  2.0656
15775SOL    HW249258   4.332   0.779   3.910 -0.3499  1.4502  0.3498
15776SOL     OW49259   3.957   1.730   7.060 -0.2447 -0.0161 -0.1132
15776SOL    HW149260   4.029   1.668   7.067 -0.0236  0.2355 -0.1302
15776SOL    HW249261   3.996   1.815   7.081 -0.6137  0.0754  0.2168
15777SOL     OW49262   6.478   6.945   2.602 -0.3910  0.0405  0.7559
15777SOL    HW149263   6.448   7.027   2.562  1.4130  1.1362  1.5016
15777SOL    HW249264   6.521   6.973   2.683  1.9106 -1.4216  0.1523
15778SOL     OW49265   6.667   3.783   8.764 -0.6693 -0.7891 -0.2313
15778SOL    HW149266   6.717   3.856   8.800 -1.4331  0.3006 -1.3159
15778SOL    HW249267   6.586   3.823   8.731 -1.0896 -2.1192 -0.8815
15779SOL     OW49268   4.052   6.536   6.689 -0.5768  0.3541  0.4355
15779SOL    HW149269   4.069   6.459   6.635  0.9404  0.0642  1.2352
15779SOL    HW249270   4.139   6.575   6.701 -1.2041  1.6764  0.7847
15780SOL     OW49271   2.398   0.162   1.899  0.1640 -0.2055 -0.0304
15780SOL    HW149272   2.396   0.229   1.968  1.3800 -0.7466  0.5572
15780SOL    HW249273   2.437   0.207   1.824  0.9848 -0.2411  0.3646
15781SOL     OW49274   4.491   5.194   7.722 -0.5852  0.2147  0.0159
15781SOL    HW149275   4.515   5.225   7.809 -0.3505 -0.6516  0.2726
15781SOL    HW249276   4.541   5.249   7.662  0.1268  0.0846  0.4728
15782SOL     OW49277   6.899   7.486   8.310 -0.0663  0.2318 -0.8997
15782SOL    HW149278   6.989   7.460   8.330  0.0166  0.5559 -0.8444
15782SOL    HW249279   6.895   7.578   8.336 -0.6261  0.0227 -0.2011
15783SOL     OW49280   0.014   7.610   1.251  0.4017  0.3198 -0.2574
15783SOL    HW149281   0.014   7.704   1.267 -1.2628  0.2541  0.2449
15783SOL    HW249282   0.070   7.599   1.174  3.7199  1.2909  1.7919
15784SOL     OW49283   7.950   1.861   2.929  0.9026 -1.1836  0.6569
15784SOL    HW149284   7.955   1.856   3.024  1.8622 -1.0414  0.6164
15784SOL    HW249285   7.984   1.777   2.898  0.2724 -1.3657  0.4437
15785SOL     OW49286   7.405   7.531   3.021 -0.1791 -0.0888 -0.5271
15785SOL    HW149287   7.312   7.520   3.039 -0.3033  0.4010 -0.8262
15785SOL    HW249288   7.438   7.443   3.005 -0.6642 -0.2283 -0.7553
15786SOL     OW49289   7.821   3.559   2.398 -0.2811  0.3357 -0.2433
15786SOL    HW149290   7.789   3.509   2.323  0.6628 -1.9733  0.7853
15786SOL    HW249291   7.745   3.567   2.456 -0.5027  0.2826 -0.5232
15787SOL     OW49292   1.641   0.809   3.658  0.1931  0.6209 -0.0542
15787SOL    HW149293   1.597   0.848   3.582  1.9312  0.6862 -1.0904
15787SOL    HW249294   1.605   0.721   3.665 -0.8326  1.0143 -0.2119
15788SOL     OW49295   8.446   8.006   7.513  0.5300 -0.3148  0.7084
15788SOL    HW149296   8.537   8.023   7.490  0.7772 -3.1613 -0.8279
15788SOL    HW249297   8.444   8.010   7.609  2.4569 -0.8767  0.8087
15789SOL     OW49298   5.637   3.225   2.961  0.2891  0.1336 -0.2034
15789SOL    HW149299   5.721   3.197   2.923  1.0296 -2.7384  3.0422
15789SOL    HW249300   5.662   3.272   3.041 -1.1657  0.3416  0.1478
15790SOL     OW49301   6.793   0.379   1.444  0.3746  0.2230  0.1314
15790SOL    HW149302   6.777   0.306   1.384  1.0573 -1.3777  1.8084
15790SOL    HW249303   6.731   0.365   1.516 -0.2462  1.9499 -0.0384
15791SOL     OW49304   4.423   4.835   5.191  0.1614  0.0693  0.5156
15791SOL    HW149305   4.330   4.855   5.194 -0.0162 -0.7215  0.6040
15791SOL    HW249306   4.434   4.785   5.110  0.7237  1.1558 -0.0969
15792SOL     OW49307   7.044   2.650   7.538  0.0474  0.6755 -0.1282
15792SOL    HW149308   6.988   2.574   7.552  1.6447 -0.5390 -0.1461
15792SOL    HW249309   6.993   2.723   7.574 -1.2392 -0.4785  0.5122
15793SOL     OW49310   2.799   2.942   1.578  0.2699 -0.6102 -0.3878
15793SOL    HW149311   2.823   2.982   1.495  0.9407 -0.7259 -0.2590
15793SOL    HW249312   2.782   3.016   1.637  1.5066 -0.4847 -0.1483
15794SOL     OW49313   7.361   6.913   0.656  0.8070 -0.2565  0.1698
15794SOL    HW149314   7.382   6.999   0.692 -0.6662  0.2946 -0.1723
15794SOL    HW249315   7.445   6.871   0.641  1.5136  0.4758  1.8899
15795SOL     OW49316   3.355   4.524   7.791 -0.4811 -0.0417 -0.0586
15795SOL    HW149317   3.259   4.526   7.789 -0.5910 -1.7454  1.3652
15795SOL    HW249318   3.378   4.587   7.860 -0.7742 -1.5598  1.5150
15796SOL     OW49319   0.602   4.893   2.120 -0.3455  0.2389  0.3471
15796SOL    HW149320   0.618   4.980   2.155 -1.2597 -0.0144  1.4778
15796SOL    HW249321   0.614   4.834   2.195  0.2234 -0.6042 -0.3893
15797SOL     OW49322   1.394   6.533   1.205 -0.0900 -0.0959 -0.1003
15797SOL    HW149323   1.476   6.541   1.254 -0.9123 -2.4497  1.8574
15797SOL    HW249324   1.340   6.605   1.237  1.0173  1.2355 -1.1210
15798SOL     OW49325   7.682   8.258   2.244  0.3541 -0.5164 -0.0475
15798SOL    HW149326   7.709   8.177   2.288  1.5093 -0.6733 -0.9978
15798SOL    HW249327   7.761   8.288   2.199  0.0191  1.2831  0.4746
15799SOL     OW49328   0.799   3.340   1.064  0.1037 -0.6965  0.3852
15799SOL    HW149329   0.715   3.363   1.026  0.1442 -1.5140 -0.2156
15799SOL    HW249330   0.778   3.309   1.152 -0.2823 -1.3830  0.0566
15800SOL     OW49331   6.220   2.039   2.150 -0.0442 -0.4805  0.3200
15800SOL    HW149332   6.170   1.958   2.142 -0.8226  0.0598 -0.5404
15800SOL    HW249333   6.312   2.012   2.150 -0.3087 -1.3873  0.4881
15801SOL     OW49334   6.257   3.204   1.800  0.4328  0.1917 -0.2518
15801SOL    HW149335   6.321   3.206   1.870  0.5471  1.2735 -0.3646
15801SOL    HW249336   6.268   3.289   1.755  0.6783 -0.6474 -1.8531
15802SOL     OW49337   2.036   4.668   2.311  0.1935 -0.0593  0.0522
15802SOL    HW149338   2.013   4.575   2.317 -0.6809  0.2287  3.6504
15802SOL    HW249339   2.112   4.677   2.367 -0.5565  1.5839  0.8536
15803SOL     OW49340   6.308   8.449   8.584 -0.1449  0.0703  0.2296
15803SOL    HW149341   6.267   8.365   8.606 -0.3224 -0.0355 -0.4579
15803SOL    HW249342   6.370   8.426   8.514  2.6948 -0.1628  2.6476
15804SOL     OW49343   5.411   7.727   3.935  0.2125 -0.8861 -0.0474
15804SOL    HW149344   5.332   7.764   3.896  0.5139 -0.9642 -0.7654
15804SOL    HW249345   5.385   7.701   4.023 -0.6255 -1.1293 -0.3548
15805SOL     OW49346   7.788   0.459   7.802  0.2222  0.2692 -0.0679
15805SOL    HW149347   7.812   0.400   7.731 -2.0606 -0.6910 -0.1303
15805SOL    HW249348   7.819   0.415   7.881  0.7927  0.2493 -0.3002
15806SOL     OW49349   1.913   8.097   0.224  0.5270  0.1763  0.1079
15806SOL    HW149350   1.940   8.126   0.137 -0.5827 -2.5674 -1.2592
15806SOL    HW249351   1.820   8.120   0.228  0.0747 -1.4858 -0.2908
15807SOL     OW49352   7.540   6.837   2.842 -0.2257  0.1100  0.2931
15807SOL    HW149353   7.521   6.899   2.772  0.0300 -0.8867 -0.6714
15807SOL    HW249354   7.564   6.756   2.798  1.9061  0.0110  1.5044
15808SOL     OW49355   3.584   5.067   4.063 -0.1449 -0.2814 -0.3134
15808SOL    HW149356   3.551   5.156   4.073  0.2655 -0.0438 -1.0514
15808SOL    HW249357   3.679   5.077   4.061 -0.0106 -0.8999  1.2037
15809SOL     OW49358   4.892   5.152   6.658  0.0790  0.1379 -0.6233
15809SOL    HW149359   4.802   5.135   6.686 -0.3104  0.5665 -1.5874
15809SOL    HW249360   4.916   5.073   6.609 -0.1354  0.4445 -1.2306
15810SOL     OW49361   1.068   6.454   7.539 -0.3343 -0.4408  0.3320
15810SOL    HW149362   1.136   6.388   7.524 -1.7498 -1.7815 -0.5587
15810SOL    HW249363   0.998   6.406   7.585 -0.6618  0.9248  1.3387
15811SOL     OW49364   1.590   1.223   7.491  0.3214 -0.6524 -0.6787
15811SOL    HW149365   1.547   1.205   7.574 -0.4168  2.0139 -0.3937
15811SOL    HW249366   1.553   1.159   7.430 -1.3443 -0.7693  0.3958
15812SOL     OW49367   5.997   8.665   3.577  0.0175  0.1476 -0.0003
15812SOL    HW149368   6.007   8.758   3.556  1.0685  0.2083  0.6987
15812SOL    HW249369   6.011   8.620   3.493  2.9967  0.4550  0.2243
15813SOL     OW49370   7.046   4.185   2.391 -0.0081  0.6386 -0.5122
15813SOL    HW149371   7.022   4.148   2.306  0.3054  0.1745 -0.4045
15813SOL    HW249372   7.133   4.221   2.378  0.5565 -0.5033 -0.0942
15814SOL     OW49373   4.778   4.160   6.610  0.6487 -0.2009  0.3095
15814SOL    HW149374   4.837   4.112   6.667 -0.4123 -0.5561  1.1414
15814SOL    HW249375   4.697   4.109   6.610  0.3393  0.2544 -0.8310
15815SOL     OW49376   4.959   6.306   2.545  0.2428  0.4402 -0.7034
15815SOL    HW149377   4.938   6.218   2.575  2.0220 -0.0402 -0.7581
15815SOL    HW249378   4.874   6.350   2.537 -0.5399 -0.4161  1.8974
15816SOL     OW49379   4.308   2.321   0.758  0.2083  0.1026 -0.3847
15816SOL    HW149380   4.245   2.251   0.742  0.7837 -0.7139  0.8325
15816SOL    HW249381   4.346   2.339   0.672  1.2422 -2.2416 -0.4964
15817SOL     OW49382   6.896   4.129   7.408 -0.3013  0.1250  0.3519
15817SOL    HW149383   6.976   4.093   7.446 -0.0719 -0.3402 -0.5528
15817SOL    HW249384   6.877   4.073   7.333 -0.2573  1.5199 -0.7409
15818SOL     OW49385   2.813   6.687   1.626 -0.1838 -0.4819  0.3681
15818SOL    HW149386   2.790   6.602   1.590 -0.6591  0.4282 -1.6095
15818SOL    HW249387   2.905   6.699   1.602 -1.2982  1.5163 -3.7915
15819SOL     OW49388   6.766   5.711   1.283 -0.4880 -0.2924  0.1933
15819SOL    HW149389   6.849   5.662   1.288 -0.3988 -0.4152 -1.6782
15819SOL    HW249390   6.747   5.716   1.189 -2.2793  0.3088  0.5471
15820SOL     OW49391   4.554   2.421   4.158  0.2486  0.2317  0.0484
15820SOL    HW149392   4.514   2.336   4.176  1.5559 -0.1494  1.3938
15820SOL    HW249393   4.641   2.416   4.198  0.0400  2.5237  0.9506
15821SOL     OW49394   4.276   2.671   1.293 -0.1659 -0.1025 -0.3127
15821SOL    HW149395   4.198   2.655   1.346  0.0546 -1.9110 -0.4943
15821SOL    HW249396   4.279   2.598   1.231  1.1314  0.4698 -0.9626
15822SOL     OW49397   2.928   0.667   0.703  0.0363 -0.3395 -0.7069
15822SOL    HW149398   3.021   0.678   0.721  0.2741 -2.2533 -0.5999
15822SOL    HW249399   2.907   0.579   0.734 -1.9127  0.1879 -0.3510
15823SOL     OW49400   3.343   3.566   4.895  0.9330  0.4924 -0.0660
15823SOL    HW149401   3.306   3.653   4.880 -0.8232 -0.1157  0.4139
15823SOL    HW249402   3.437   3.579   4.897  0.7051  2.3451 -0.1984
15824SOL     OW49403   4.777   5.723   5.534 -0.2111 -0.2280  0.1911
15824SOL    HW149404   4.743   5.635   5.549 -2.7537  0.5893 -0.2450
15824SOL    HW249405   4.753   5.772   5.613 -2.9655  1.1358 -1.3708
15825SOL     OW49406   1.955   3.665   4.539 -0.2632  0.3327  0.4126
15825SOL    HW149407   1.875   3.631   4.500  0.6050  0.0210 -1.2152
15825SOL    HW249408   2.011   3.588   4.552  1.9708  0.9053 -3.9094
15826SOL     OW49409   6.912   4.135   6.773  0.2381  0.0792  0.2977
15826SOL    HW149410   6.833   4.164   6.819  0.5515  0.9455  0.3127
15826SOL    HW249411   6.903   4.170   6.685  0.5651  0.1104  0.2753
15827SOL     OW49412   6.561   3.709   3.817 -0.3692  0.0276  0.2472
15827SOL    HW149413   6.516   3.715   3.901 -1.5159 -2.2344 -0.1337
15827SOL    HW249414   6.491   3.707   3.752  0.4941  1.4419 -0.8024
15828SOL     OW49415   4.418   7.671   2.233 -0.2338 -0.3789  0.5699
15828SOL    HW149416   4.386   7.753   2.194 -0.4023 -0.8885 -0.3939
15828SOL    HW249417   4.467   7.699   2.310  0.4200  0.6942 -0.2063
15829SOL     OW49418   0.225   0.529   6.915  0.6178 -0.0080  0.3464
15829SOL    HW149419   0.305   0.582   6.911 -0.0042  0.8878 -1.5275
15829SOL    HW249420   0.157   0.585   6.878 -0.4869 -1.4212  0.1377
15830SOL     OW49421   5.491   8.405   7.649 -0.1135 -0.1256 -0.0739
15830SOL    HW149422   5.397   8.420   7.655 -0.0852  0.3434 -0.7580
15830SOL    HW249423   5.518   8.449   7.569  0.5124 -1.2031 -0.4785
15831SOL     OW49424   3.415   3.119   3.984 -0.1438  0.1167  0.4939
15831SOL    HW149425   3.479   3.185   3.960  0.4313 -0.4463  0.4392
15831SOL    HW249426   3.333   3.167   3.994  0.3419  0.8926  0.8434
15832SOL     OW49427   6.647   0.435   4.617  0.5096  0.5861  0.3061
15832SOL    HW149428   6.635   0.434   4.712  1.1672  0.5547  0.3952
15832SOL    HW249429   6.733   0.393   4.603 -0.7590 -1.9653 -0.4778
15833SOL     OW49430   5.176   4.859   1.498  0.2224 -0.4202  0.7197
15833SOL    HW149431   5.126   4.786   1.534  1.3045 -1.9923 -0.8042
15833SOL    HW249432   5.142   4.936   1.544  0.4814 -2.0590  3.9162
15834SOL     OW49433   2.819   2.857   0.618 -0.1962  0.2442 -0.1459
15834SOL    HW149434   2.825   2.843   0.713  0.6100  1.3842 -0.0222
15834SOL    HW249435   2.753   2.793   0.590 -2.9849  2.0910  1.6795
15835SOL     OW49436   0.479   2.651   5.754 -0.4272  0.0548 -0.3344
15835SOL    HW149437   0.535   2.574   5.767 -0.8045 -0.1844 -0.1061
15835SOL    HW249438   0.411   2.621   5.693  0.2565  0.6330 -1.4240
15836SOL     OW49439   5.158   5.061   7.201 -0.1151  0.7554 -0.1788
15836SOL    HW149440   5.071   5.072   7.241  0.4983  0.3787  1.3397
15836SOL    HW249441   5.169   5.140   7.148 -1.2007  1.0405 -0.0172
15837SOL     OW49442   1.210   2.197   5.840  0.2709 -0.4022  0.3812
15837SOL    HW149443   1.183   2.266   5.901  1.0837 -0.6865  1.1014
15837SOL    HW249444   1.148   2.202   5.768 -0.6933 -0.0118  1.2087
15838SOL     OW49445   3.662   7.075   1.287  0.6553  0.0918 -0.3474
15838SOL    HW149446   3.597   7.135   1.323  1.1528 -1.4144  3.5151
15838SOL    HW249447   3.612   7.001   1.254  0.2953  0.2002 -0.0476
15839SOL     OW49448   7.689   4.222   4.887 -0.6502  0.1660 -0.6767
15839SOL    HW149449   7.726   4.303   4.854 -0.3692 -0.0970 -1.0187
15839SOL    HW249450   7.763   4.177   4.928 -0.4266 -0.6451 -1.9052
15840SOL     OW49451   7.685   5.745   2.824 -0.1796 -0.1652  0.4731
15840SOL    HW149452   7.712   5.830   2.790 -0.4094 -0.2853 -0.0282
15840SOL    HW249453   7.669   5.759   2.917 -0.3372  0.3695  0.3662
15841SOL     OW49454   0.173   6.215   0.692  0.2093 -0.4172  0.4569
15841SOL    HW149455   0.183   6.282   0.759  0.6347 -1.0393  1.0236
15841SOL    HW249456   0.105   6.157   0.726 -1.0166  0.3509 -0.5664
15842SOL     OW49457   6.275   1.622   1.631 -0.1112  0.5732 -0.7431
15842SOL    HW149458   6.290   1.580   1.546 -0.3526 -0.0497 -0.4785
15842SOL    HW249459   6.280   1.716   1.611  1.5940  0.4369 -1.1227
15843SOL     OW49460   1.369   4.139   5.351 -0.2822 -0.6242 -0.7642
15843SOL    HW149461   1.456   4.179   5.353 -0.0429 -1.0582 -1.6743
15843SOL    HW249462   1.376   4.062   5.408 -0.0833 -0.6224 -0.7855
15844SOL     OW49463   2.754   3.792   1.736 -0.4239 -0.2373 -0.2141
15844SOL    HW149464   2.805   3.873   1.729 -1.7010  0.5466 -0.7193
15844SOL    HW249465   2.730   3.787   1.829 -1.0934  0.4461 -0.3435
15845SOL     OW49466   2.242   5.678   2.578  0.0227 -0.4803  0.5575
15845SOL    HW149467   2.205   5.710   2.661 -0.9195 -0.3360  0.0914
15845SOL    HW249468   2.183   5.712   2.511  0.3121 -1.2848 -0.1165
15846SOL     OW49469   6.964   2.164   5.749 -0.3246 -0.2668 -0.7458
15846SOL    HW149470   7.043   2.111   5.737 -0.2497 -0.1596 -0.7290
15846SOL    HW249471   6.926   2.133   5.831  1.5267  1.9873  1.0852
15847SOL     OW49472   3.951   8.190   4.365  0.3906 -0.4917  0.0063
15847SOL    HW149473   4.030   8.150   4.400 -1.4340 -2.1115  2.6197
15847SOL    HW249474   3.953   8.169   4.272  3.7297  0.9181 -0.3855
15848SOL     OW49475   2.932   6.752   8.381 -0.2581 -0.3423 -0.2074
15848SOL    HW149476   2.935   6.667   8.425 -0.3314 -0.2887 -0.0981
15848SOL    HW249477   3.004   6.749   8.318 -0.2305 -0.4678 -0.1703
15849SOL     OW49478   7.523   2.591   6.584 -0.1888  0.8314 -0.0737
15849SOL    HW149479   7.580   2.539   6.527  2.0993  2.3829  0.6531
15849SOL    HW249480   7.513   2.675   6.538  0.1508  1.4347  0.9274
15850SOL     OW49481   2.747   6.436   3.549  0.4898 -0.4029 -0.1112
15850SOL    HW149482   2.836   6.402   3.546  1.2289  1.4278 -0.2742
15850SOL    HW249483   2.713   6.421   3.461  1.2532  0.3823 -0.5574
15851SOL     OW49484   1.398   8.149   3.042 -0.1765 -0.3690 -0.0524
15851SOL    HW149485   1.444   8.133   2.959 -1.9324 -0.1405 -1.1100
15851SOL    HW249486   1.392   8.244   3.047 -2.2725 -0.3943 -0.9855
15852SOL     OW49487   6.914   4.893   0.349  0.0158  0.2329  0.0143
15852SOL    HW149488   6.819   4.888   0.350  0.0836 -1.7105  1.3686
15852SOL    HW249489   6.937   4.951   0.422 -0.0915 -0.6914  0.7889
15853SOL     OW49490   0.129   7.241   1.529 -0.0472  0.0180 -0.0583
15853SOL    HW149491   0.201   7.295   1.496 -0.2177  0.4095  0.2006
15853SOL    HW249492   0.137   7.159   1.481 -0.6967  0.7970 -1.5617
15854SOL     OW49493   4.533   6.962   0.690 -0.3384  0.3798 -0.0347
15854SOL    HW149494   4.552   6.881   0.643 -1.8611  0.0396 -0.1163
15854SOL    HW249495   4.553   7.031   0.627 -1.3079 -0.0336 -0.8364
15855SOL     OW49496   5.278   5.499   3.694 -0.0926 -0.1251 -0.1592
15855SOL    HW149497   5.326   5.481   3.613 -0.9279  0.6365 -0.8506
15855SOL    HW249498   5.227   5.578   3.675 -1.9258 -1.1113  0.3900
15856SOL     OW49499   8.250   1.763   3.112  0.0214 -0.2039  0.1199
15856SOL    HW149500   8.220   1.758   3.022  0.4429  1.1740 -0.1281
15856SOL    HW249501   8.219   1.682   3.153 -0.2138 -0.8231 -1.2373
15857SOL     OW49502   1.090   0.453   1.533 -0.4946  0.1361  0.3343
15857SOL    HW149503   1.082   0.519   1.463 -0.1559  1.0355  1.1202
15857SOL    HW249504   1.183   0.429   1.532 -0.5672 -0.1399  0.2221
15858SOL     OW49505   1.408   4.217   8.199  0.3186 -0.3973 -0.1072
15858SOL    HW149506   1.456   4.267   8.134  2.0024 -1.5694  0.1856
15858SOL    HW249507   1.440   4.249   8.283  1.4118 -1.8722  0.0868
15859SOL     OW49508   5.783   4.178   0.198 -0.4271 -0.5044  1.2496
15859SOL    HW149509   5.789   4.088   0.165 -2.0092 -0.8158  1.7007
15859SOL    HW249510   5.873   4.203   0.217  0.2225 -1.3473 -0.5377
15860SOL     OW49511   4.092   0.212   3.395  0.1162 -0.0135 -0.5614
15860SOL    HW149512   4.110   0.118   3.392 -1.9652 -0.5597  1.4468
15860SOL    HW249513   4.160   0.248   3.451 -0.4714 -0.7564  0.6614
15861SOL     OW49514   5.703   1.322   0.348 -0.7673 -0.3876  0.0458
15861SOL    HW149515   5.617   1.365   0.352 -0.5967 -0.0288 -0.1405
15861SOL    HW249516   5.724   1.303   0.439 -2.0797 -2.5661 -0.0159
15862SOL     OW49517   6.746   5.223   6.501 -0.3925  0.9161 -0.1580
15862SOL    HW149518   6.708   5.298   6.547  0.7850  0.8597  0.9679
15862SOL    HW249519   6.807   5.262   6.438 -1.4606  0.9628 -1.2006
15863SOL     OW49520   7.230   1.808   2.824 -0.0331 -0.0996  0.0892
15863SOL    HW149521   7.269   1.887   2.862 -0.0265  0.3931 -0.9073
15863SOL    HW249522   7.244   1.818   2.729 -1.5607 -0.4612 -0.1921
15864SOL     OW49523   0.491   1.506   6.232  0.0752 -0.3361  0.0251
15864SOL    HW149524   0.423   1.446   6.201  0.0304  0.5092 -1.5955
15864SOL    HW249525   0.490   1.496   6.327 -1.7896 -0.9036 -0.0201
15865SOL     OW49526   3.513   0.484   2.008 -0.2698 -0.4621  0.4602
15865SOL    HW149527   3.607   0.491   1.993 -0.5973  0.1479 -1.6352
15865SOL    HW249528   3.496   0.390   2.008  0.2619 -0.5600  0.2819
15866SOL     OW49529   1.896   3.627   4.197  0.2059  0.3524  0.1170
15866SOL    HW149530   1.920   3.543   4.236 -0.2337 -0.5584 -1.4492
15866SOL    HW249531   1.813   3.650   4.238 -0.7388 -1.0665 -0.8964
15867SOL     OW49532   8.863   6.262   0.249  0.3659 -0.4879 -0.2386
15867SOL    HW149533   8.808   6.185   0.257  0.8087 -0.7624  0.2252
15867SOL    HW249534   8.947   6.229   0.218  0.4154 -0.1335 -0.4879
15868SOL     OW49535   5.866   3.318   5.092 -0.3205  0.5380  0.3714
15868SOL    HW149536   5.916   3.399   5.100 -2.2127  1.7031  1.3108
15868SOL    HW249537   5.807   3.334   5.018  0.1419 -0.4972 -0.2364
15869SOL     OW49538   5.756   0.706   6.803 -0.0667 -0.9172 -0.9647
15869SOL    HW149539   5.751   0.611   6.809  0.8454 -0.9495 -0.4173
15869SOL    HW249540   5.741   0.726   6.710  1.1460 -1.7116 -1.3511
15870SOL     OW49541   3.209   4.822   7.120 -0.4301  0.4832 -0.4701
15870SOL    HW149542   3.161   4.903   7.103 -0.3444  0.4552 -0.8634
15870SOL    HW249543   3.295   4.836   7.078  0.9606  1.6278  2.5087
15871SOL     OW49544   1.719   7.633   2.625 -0.5152  0.1032  0.3478
15871SOL    HW149545   1.706   7.602   2.535 -1.1400 -1.4258  0.9361
15871SOL    HW249546   1.702   7.557   2.680 -1.1166  1.2563  1.8397
15872SOL     OW49547   6.911   3.840   7.622  0.4412 -0.1078 -0.2766
15872SOL    HW149548   6.913   3.921   7.570  1.6926  1.0297  1.4401
15872SOL    HW249549   7.002   3.826   7.647 -0.0680 -0.8390  1.2587
15873SOL     OW49550   7.133   1.724   8.009  0.0352  0.0287  0.3492
15873SOL    HW149551   7.137   1.681   8.094 -0.4030  2.8947  1.9382
15873SOL    HW249552   7.083   1.663   7.954  0.0816 -1.7691  2.1788
15874SOL     OW49553   4.276   8.379   7.821  0.1056  0.1506 -0.2779
15874SOL    HW149554   4.248   8.458   7.775 -1.0323 -0.0810  0.0057
15874SOL    HW249555   4.198   8.324   7.826  0.0762  0.2835  2.1530
15875SOL     OW49556   2.393   0.129   7.196  0.2873 -0.3372  0.1208
15875SOL    HW149557   2.446   0.194   7.242 -0.2988  1.8075 -2.0267
15875SOL    HW249558   2.387   0.163   7.107 -1.7237 -2.3693 -0.5894
15876SOL     OW49559   2.994   3.214   3.776 -0.2281  0.4252 -0.1366
15876SOL    HW149560   2.900   3.229   3.786 -0.4582 -0.5806 -0.6080
15876SOL    HW249561   3.001   3.120   3.760  0.9514  0.2900  0.9853
15877SOL     OW49562   7.672   7.572   1.508 -0.4742  0.3721 -0.5914
15877SOL    HW149563   7.614   7.500   1.483 -0.9117  1.1816 -1.9533
15877SOL    HW249564   7.724   7.590   1.430  1.4861 -0.1666  0.5140
15878SOL     OW49565   4.248   7.272   2.728 -0.6733 -0.0956  0.0878
15878SOL    HW149566   4.305   7.272   2.805 -0.8976 -0.0362  0.2554
15878SOL    HW249567   4.259   7.184   2.690  1.1548  0.5957 -1.1033
15879SOL     OW49568   3.562   5.815   0.892 -0.3307 -0.0779  0.4038
15879SOL    HW149569   3.579   5.766   0.812  0.5681 -0.6594  0.9353
15879SOL    HW249570   3.477   5.858   0.877 -0.1403 -0.1307 -0.8668
15880SOL     OW49571   7.575   3.621   0.887  0.0469  0.2239  0.4795
15880SOL    HW149572   7.611   3.672   0.960  1.6708  1.7322 -1.2685
15880SOL    HW249573   7.651   3.575   0.850 -1.1356 -2.4133  1.0879
15881SOL     OW49574   2.342   7.379   6.982  0.2268 -0.5251 -0.1148
15881SOL    HW149575   2.436   7.362   6.984  0.2103 -0.5410  0.5943
15881SOL    HW249576   2.332   7.449   6.918  0.6316 -1.0324 -0.7587
15882SOL     OW49577   6.490   5.701   6.629  0.1303 -0.5673  0.5248
15882SOL    HW149578   6.539   5.687   6.548  3.7827 -0.4989  2.4927
15882SOL    HW249579   6.474   5.613   6.663  0.2880 -0.5548  0.6323
15883SOL     OW49580   8.055   6.779   5.620 -0.5701 -0.3227  0.5772
15883SOL    HW149581   8.039   6.813   5.708  1.3057  2.2575  0.0243
15883SOL    HW249582   8.125   6.715   5.631 -0.9300 -0.6473  1.0368
15884SOL     OW49583   6.046   2.474   4.305  0.2340 -0.1603 -0.4595
15884SOL    HW149584   6.085   2.489   4.218  2.8221 -0.2107  0.6002
15884SOL    HW249585   6.121   2.477   4.365 -1.4785 -0.2176  1.7795
15885SOL     OW49586   7.191   3.319   2.835 -0.3190  0.0563 -0.2249
15885SOL    HW149587   7.204   3.255   2.905 -2.0896  0.7315  0.7827
15885SOL    HW249588   7.163   3.267   2.760  0.9884 -0.6067 -0.2831
15886SOL     OW49589   3.666   2.986   0.671  0.0774 -0.2365 -0.0320
15886SOL    HW149590   3.612   2.911   0.647  1.5185 -1.7042  1.1330
15886SOL    HW249591   3.610   3.040   0.726 -0.6184 -1.0546  0.0807
15887SOL     OW49592   3.574   3.837   5.301  0.2690 -1.1184 -0.3501
15887SOL    HW149593   3.490   3.806   5.335  0.8418 -1.6790  0.6143
15887SOL    HW249594   3.611   3.888   5.373  0.6378 -0.6505 -0.8704
15888SOL     OW49595   3.600   1.996   8.033  0.5065  0.0254  0.0793
15888SOL    HW149596   3.505   2.002   8.033  0.3608 -1.7058 -0.5522
15888SOL    HW249597   3.629   2.057   7.965 -0.0919  0.9048  0.5933
15889SOL     OW49598   4.476   2.449   8.532 -0.1104  0.3630 -0.7533
15889SOL    HW149599   4.497   2.411   8.617 -2.1076  0.4709 -0.1486
15889SOL    HW249600   4.523   2.394   8.469  3.5907  1.8584  0.4483
15890SOL     OW49601   1.464   7.767   6.722  0.0305  0.0235  0.0420
15890SOL    HW149602   1.388   7.735   6.674  0.3647  1.3042 -1.4201
15890SOL    HW249603   1.539   7.739   6.668  0.4024  1.6781 -0.3507
15891SOL     OW49604   3.688   3.615   0.881  0.0834  0.3568 -0.1790
15891SOL    HW149605   3.652   3.552   0.944 -0.6908 -0.0061 -0.9561
15891SOL    HW249606   3.621   3.683   0.875  1.1631  1.6037  1.0908
15892SOL     OW49607   5.549   1.577   8.790 -0.8035  0.7784 -0.5876
15892SOL    HW149608   5.549   1.660   8.838 -1.1289  1.6641 -2.0639
15892SOL    HW249609   5.457   1.558   8.774 -0.8117 -0.5276  0.7711
15893SOL     OW49610   3.997   8.269   7.198  0.1738 -0.5965 -0.2348
15893SOL    HW149611   4.075   8.324   7.188  0.5022 -0.5210  2.2422
15893SOL    HW249612   4.025   8.183   7.168  0.4992 -0.0970 -1.4713
15894SOL     OW49613   0.834   5.152   8.679  0.1548  0.1980 -0.5876
15894SOL    HW149614   0.777   5.218   8.640 -0.2133 -0.4562 -1.1786
15894SOL    HW249615   0.774   5.085   8.713  0.4302  1.0343  1.6963
15895SOL     OW49616   3.104   1.238   0.986  0.0341 -0.1599 -0.6075
15895SOL    HW149617   3.103   1.272   1.076 -2.1191 -0.8390 -0.3214
15895SOL    HW249618   3.139   1.310   0.934  1.8403  0.0576  0.8214
15896SOL     OW49619   5.546   6.440   4.593 -0.5992  0.4272 -0.2025
15896SOL    HW149620   5.518   6.449   4.502 -0.6920  1.6811 -0.0658
15896SOL    HW249621   5.622   6.498   4.601 -0.3677  0.0493  0.4337
15897SOL     OW49622   5.371   2.899   3.130 -0.1795 -0.3787  0.3830
15897SOL    HW149623   5.351   2.840   3.057 -1.4298 -0.6675  0.9456
15897SOL    HW249624   5.331   2.983   3.105 -0.3342 -0.3899  0.5894
15898SOL     OW49625   8.119   2.819   6.000 -0.4119 -0.1542 -0.0851
15898SOL    HW149626   8.172   2.895   6.021 -0.2649 -0.4617  0.6912
15898SOL    HW249627   8.100   2.828   5.907 -1.0360  1.2218  0.1564
15899SOL     OW49628   2.756   7.733   0.684  0.5072 -0.2237  0.4249
15899SOL    HW149629   2.745   7.640   0.701  0.9436 -0.2775  0.4394
15899SOL    HW249630   2.833   7.738   0.626 -0.5862 -0.0158 -1.0831
15900SOL     OW49631   1.028   4.698   2.530  0.0586 -0.2923  0.5596
15900SOL    HW149632   0.965   4.731   2.594 -0.4097 -0.3127  0.1102
15900SOL    HW249633   1.064   4.777   2.489  0.4388 -0.2750  0.9155
15901SOL     OW49634   8.072   3.699   8.428  0.2287 -0.5523  0.6097
15901SOL    HW149635   7.992   3.729   8.386 -0.7662  2.8859  4.3615
15901SOL    HW249636   8.125   3.778   8.439  2.6628 -2.1496  1.2471
15902SOL     OW49637   0.065   0.256   8.413  0.2639 -0.6265 -0.3535
15902SOL    HW149638   0.086   0.236   8.504  1.5016 -0.1315 -0.5245
15902SOL    HW249639  -0.031   0.264   8.412  0.0081 -2.8043  0.4569
15903SOL     OW49640   4.253   3.973   2.277 -0.0079  0.1252  0.2343
15903SOL    HW149641   4.231   3.896   2.223 -0.0540  0.3062 -0.0064
15903SOL    HW249642   4.257   3.939   2.366 -0.1643 -0.1325  0.1449
15904SOL     OW49643   2.756   6.557   2.618  0.1452 -0.2188  0.0631
15904SOL    HW149644   2.705   6.583   2.541  1.1721 -0.5433 -0.7462
15904SOL    HW249645   2.803   6.478   2.590 -0.6286 -1.2473  1.5219
15905SOL     OW49646   0.612   8.139   7.226  0.3178  0.1244 -0.3660
15905SOL    HW149647   0.520   8.120   7.243  0.2732 -0.5346 -1.2452
15905SOL    HW249648   0.612   8.214   7.167  0.4546  2.0290  1.9442
15906SOL     OW49649   4.267   4.246   4.752 -0.5123  0.1490  0.3804
15906SOL    HW149650   4.238   4.161   4.719 -0.5872  0.5126 -0.5236
15906SOL    HW249651   4.223   4.256   4.836  0.6008 -1.3332  1.1980
15907SOL     OW49652   4.717   3.485   1.088  0.1467 -0.0756  0.7331
15907SOL    HW149653   4.805   3.457   1.061  0.4406  0.0496  1.5317
15907SOL    HW249654   4.674   3.405   1.116 -0.4874 -0.3579 -0.9304
15908SOL     OW49655   3.501   0.665   1.155  0.1975 -0.3068 -0.1813
15908SOL    HW149656   3.555   0.729   1.108  1.8917  0.3986  2.4974
15908SOL    HW249657   3.465   0.715   1.229  0.2302 -2.0596  1.0635
15909SOL     OW49658   7.116   1.683   1.060  0.0092 -0.6856  0.0843
15909SOL    HW149659   7.109   1.605   1.116  1.8963 -1.3748 -0.5605
15909SOL    HW249660   7.084   1.654   0.975  0.4900 -0.6922 -0.0957
15910SOL     OW49661   3.231   4.085   3.109 -0.3340  0.5821 -0.1899
15910SOL    HW149662   3.242   3.993   3.136 -1.1156 -0.2005 -2.3114
15910SOL    HW249663   3.278   4.091   3.026  1.2492  2.6325  0.7697
15911SOL     OW49664   2.472   2.922   4.513  0.1249  0.6268  0.6154
15911SOL    HW149665   2.555   2.901   4.471 -0.4597  0.3305 -0.4238
15911SOL    HW249666   2.417   2.845   4.498 -0.2226  0.6656  1.6206
15912SOL     OW49667   7.058   4.794   3.531 -0.2619 -0.1367 -0.4740
15912SOL    HW149668   6.987   4.738   3.501  0.5358 -1.4397 -0.0029
15912SOL    HW249669   7.046   4.799   3.626  0.8251 -1.1909 -0.2601
15913SOL     OW49670   8.185   8.033   4.136  0.2359  0.2159 -0.1262
15913SOL    HW149671   8.192   7.944   4.172 -0.4441  0.4632  0.6473
15913SOL    HW249672   8.097   8.062   4.161  0.9958  1.6717  0.9401
15914SOL     OW49673   8.663   3.214   8.074 -0.1792  0.2031 -0.2186
15914SOL    HW149674   8.709   3.132   8.092  0.4941  0.7758  0.7615
15914SOL    HW249675   8.642   3.249   8.161 -1.1555  0.6938 -0.6346
15915SOL     OW49676   5.715   1.860   3.688 -0.0108 -0.3328  0.5247
15915SOL    HW149677   5.627   1.825   3.672 -0.5242  1.0365  0.2348
15915SOL    HW249678   5.750   1.876   3.600 -0.7541  2.1532  0.6120
15916SOL     OW49679   7.336   1.768   1.404 -0.0182  0.1045 -0.1683
15916SOL    HW149680   7.363   1.726   1.322 -1.3325  0.6149 -0.8923
15916SOL    HW249681   7.383   1.720   1.472  0.6450 -0.7180 -1.1772
15917SOL     OW49682   7.098   0.485   8.664  0.3410  0.3385  0.3860
15917SOL    HW149683   7.054   0.548   8.606  0.8423  0.0499 -0.3333
15917SOL    HW249684   7.153   0.433   8.605 -0.0113 -0.7382  0.9734
15918SOL     OW49685   8.367   2.685   6.050  0.1585 -0.2813 -0.2785
15918SOL    HW149686   8.295   2.624   6.030  2.3361 -3.0161 -0.2580
15918SOL    HW249687   8.322   2.767   6.072 -2.9843 -2.0197  0.4658
15919SOL     OW49688   8.697   3.129   6.332  0.1597  0.0241 -0.0340
15919SOL    HW149689   8.680   3.036   6.317  0.7112 -0.0051 -0.4947
15919SOL    HW249690   8.612   3.171   6.320  0.0502 -0.3314 -0.5399
15920SOL     OW49691   7.798   1.434   2.850 -0.1981 -0.1075  0.2184
15920SOL    HW149692   7.877   1.394   2.815  0.1427  2.1068 -1.7963
15920SOL    HW249693   7.727   1.376   2.824  0.5281 -0.8214 -0.1900
15921SOL     OW49694   7.696   5.864   5.285  0.0650  0.3927  0.1339
15921SOL    HW149695   7.707   5.775   5.250 -2.6474  0.0469 -0.0628
15921SOL    HW249696   7.780   5.907   5.268  0.8703 -1.6073 -1.3397
15922SOL     OW49697   4.112   8.461   3.088 -0.6302  0.1035 -0.3357
15922SOL    HW149698   4.095   8.547   3.050  0.0930 -0.3573 -1.7535
15922SOL    HW249699   4.202   8.441   3.062 -0.4204 -0.6332  0.8789
15923SOL     OW49700   2.515   2.680   5.253  0.4677 -0.0630  0.1888
15923SOL    HW149701   2.530   2.682   5.348  1.7798 -0.8617  0.0207
15923SOL    HW249702   2.421   2.692   5.244  0.2397 -0.5368  1.6334
15924SOL     OW49703   7.710   6.684   3.938  0.0406 -0.3959 -0.5192
15924SOL    HW149704   7.701   6.777   3.958  0.5476 -0.6928  1.2747
15924SOL    HW249705   7.631   6.662   3.889 -2.1941  0.1341  2.5369
15925SOL     OW49706   8.230   3.462   0.990 -0.3459  0.0756  0.7248
15925SOL    HW149707   8.204   3.417   0.909  0.9443 -0.5865  0.6513
15925SOL    HW249708   8.201   3.404   1.060  0.0605 -0.1970  0.6725
15926SOL     OW49709   6.982   3.262   0.108  0.3200 -0.1934  0.1610
15926SOL    HW149710   7.029   3.285   0.027  0.6823  0.7208  0.6162
15926SOL    HW249711   6.999   3.169   0.119 -1.2957 -0.8009 -1.8242
15927SOL     OW49712   7.977   4.875   0.194 -0.2006  0.4200  0.0298
15927SOL    HW149713   7.961   4.924   0.113 -0.2141  2.3459  1.1287
15927SOL    HW249714   8.038   4.930   0.243  0.0501 -0.8546  1.2025
15928SOL     OW49715   5.443   0.986   7.539  0.0174 -0.2704 -0.0853
15928SOL    HW149716   5.353   1.017   7.551 -0.4256 -1.5555  0.0597
15928SOL    HW249717   5.479   1.043   7.471 -0.7450  0.5712  0.2023
15929SOL     OW49718   6.113   7.634   5.143  0.2984  0.0691  0.3459
15929SOL    HW149719   6.113   7.603   5.234 -0.1556 -0.7813  0.0737
15929SOL    HW249720   6.169   7.711   5.143 -0.9088  0.9854  1.6446
15930SOL     OW49721   1.248   6.250   7.492 -0.0713  0.0488 -0.1765
15930SOL    HW149722   1.310   6.230   7.422 -2.0229  0.4499 -2.1289
15930SOL    HW249723   1.273   6.191   7.563  1.6687 -0.7655 -1.3807
15931SOL     OW49724   8.388   2.614   0.815  0.0995 -0.1027 -0.2213
15931SOL    HW149725   8.396   2.629   0.909  0.4516  0.2889 -0.3084
15931SOL    HW249726   8.314   2.555   0.806  0.3072 -0.4569  0.3310
15932SOL     OW49727   3.695   6.734   1.482  0.0854  1.1134 -1.2147
15932SOL    HW149728   3.695   6.765   1.573  0.4310 -1.3275 -0.3037
15932SOL    HW249729   3.761   6.788   1.439  1.4598  0.9343  0.5452
15933SOL     OW49730   6.935   8.406   4.371  0.2152 -0.0345 -0.4091
15933SOL    HW149731   6.879   8.477   4.400 -4.0269 -3.7087  1.6629
15933SOL    HW249732   6.979   8.376   4.451 -0.5286 -1.5711 -0.5419
15934SOL     OW49733   1.409   2.027   7.011  0.6361  0.1465  0.2045
15934SOL    HW149734   1.325   2.030   6.966  0.1856 -1.9012  0.7826
15934SOL    HW249735   1.460   2.098   6.972 -0.5309 -0.0698 -1.8645
15935SOL     OW49736   8.489   0.536   6.513  0.5840 -0.2420  0.2384
15935SOL    HW149737   8.399   0.548   6.482  0.3867 -2.2448 -0.0959
15935SOL    HW249738   8.493   0.444   6.540  3.0479 -0.7265 -1.4912
15936SOL     OW49739   0.182   8.586   6.408 -0.0465  0.3667  0.8149
15936SOL    HW149740   0.094   8.581   6.372  0.6006  1.1090 -1.0005
15936SOL    HW249741   0.170   8.580   6.502 -2.0881  1.1022  0.6484
15937SOL     OW49742   1.938   8.514   4.586 -0.8319 -0.0526  0.0867
15937SOL    HW149743   1.960   8.599   4.624  2.7018 -0.5980 -0.4080
15937SOL    HW249744   1.900   8.464   4.658 -0.8816  1.2041  0.9615
15938SOL     OW49745   8.494   2.633   3.834  0.5782 -0.6026  0.4398
15938SOL    HW149746   8.422   2.622   3.772  0.0702 -2.2164  1.2602
15938SOL    HW249747   8.557   2.689   3.789 -1.3286  1.1761 -0.1732
15939SOL     OW49748   7.351   5.871   0.224  0.0296  0.6706  0.1888
15939SOL    HW149749   7.298   5.799   0.189  0.0843  1.2992 -1.2906
15939SOL    HW249750   7.397   5.906   0.147  1.0603  1.4053  1.1118
15940SOL     OW49751   4.688   3.926   2.859  0.4272 -0.2889  0.4983
15940SOL    HW149752   4.767   3.874   2.845  1.6348  1.4127  0.6341
15940SOL    HW249753   4.662   3.907   2.949  0.3375 -1.2837  0.2735
15941SOL     OW49754   6.290   3.368   5.030  0.1982  0.0792  0.3649
15941SOL    HW149755   6.242   3.423   4.968  1.1345  1.0713  0.4853
15941SOL    HW249756   6.264   3.279   5.008  0.4577  0.3968 -1.4307
15942SOL     OW49757   7.407   4.741   6.966  0.3369  0.0472 -0.5459
15942SOL    HW149758   7.369   4.757   7.052 -0.8907  1.2597 -1.2685
15942SOL    HW249759   7.471   4.672   6.980 -1.5802 -1.5632  0.9209
15943SOL     OW49760   4.893   4.529   0.242  0.6417  0.0492 -0.0328
15943SOL    HW149761   4.883   4.533   0.147  0.7986 -1.2418 -0.1154
15943SOL    HW249762   4.820   4.581   0.276 -0.0104 -0.3289 -0.8338
15944SOL     OW49763   6.331   2.709   4.128  0.0142  0.7742 -0.2508
15944SOL    HW149764   6.274   2.651   4.079 -0.8633  0.9920  0.4868
15944SOL    HW249765   6.412   2.659   4.139 -0.3005  0.1653 -0.6542
15945SOL     OW49766   8.073   8.639   5.961  0.0699  0.1121  0.1442
15945SOL    HW149767   8.084   8.545   5.975 -0.6586 -0.3329 -1.8900
15945SOL    HW249768   8.016   8.645   5.884  1.7299  2.1942 -1.0272
15946SOL     OW49769   3.767   0.903   6.834 -0.1586  0.6050 -0.1174
15946SOL    HW149770   3.789   0.922   6.925  1.5279  3.9534 -1.0588
15946SOL    HW249771   3.843   0.854   6.800 -0.7685 -0.6056  0.2065
15947SOL     OW49772   7.577   3.405   7.987 -0.1484  0.3468  0.0076
15947SOL    HW149773   7.621   3.450   7.915 -0.9817  0.9856 -0.1192
15947SOL    HW249774   7.582   3.466   8.060 -0.5128  0.2893  0.0860
15948SOL     OW49775   0.322   3.825   6.037  0.0044 -0.2073  0.5459
15948SOL    HW149776   0.403   3.776   6.025 -0.5338 -0.8740 -0.5849
15948SOL    HW249777   0.254   3.768   6.000 -1.0047  0.2662  1.5957
15949SOL     OW49778   5.081   4.449   3.890 -0.3185 -0.0823 -0.5308
15949SOL    HW149779   5.010   4.458   3.954 -0.6837 -2.0136 -0.6060
15949SOL    HW249780   5.157   4.421   3.941  1.1430  3.9812 -0.0971
15950SOL     OW49781   5.239   1.977   5.999  0.1796  0.9512  0.1150
15950SOL    HW149782   5.261   2.056   5.949  1.6235 -0.7397 -2.0515
15950SOL    HW249783   5.144   1.984   6.012 -0.1107  1.9383 -2.0637
15951SOL     OW49784   6.115   7.551   0.355  0.2781  0.1291 -0.4125
15951SOL    HW149785   6.120   7.583   0.445  2.2966 -1.0336 -0.0375
15951SOL    HW249786   6.166   7.614   0.304 -1.7802  1.4103 -1.0142
15952SOL     OW49787   8.330   3.780   3.965 -0.1179 -0.0891 -0.0890
15952SOL    HW149788   8.425   3.789   3.956  0.0897 -2.0487 -0.3113
15952SOL    HW249789   8.312   3.692   3.933 -1.8224 -0.2949  1.3184
15953SOL     OW49790   0.398   3.426   7.382 -0.8043 -0.2489 -0.1323
15953SOL    HW149791   0.396   3.390   7.471  1.7063 -0.1655  0.0216
15953SOL    HW249792   0.317   3.394   7.342 -1.0333 -1.9782  1.5352
15954SOL     OW49793   3.867   6.937   3.950 -0.3782 -0.3314  0.0045
15954SOL    HW149794   3.838   7.004   3.888  2.6375  1.0603 -0.0787
15954SOL    HW249795   3.802   6.940   4.020 -0.6098  2.4374 -0.1943
15955SOL     OW49796   0.683   4.607   3.453  0.5352 -0.5033 -0.4881
15955SOL    HW149797   0.663   4.573   3.540  2.1188  0.2009  0.1928
15955SOL    HW249798   0.671   4.701   3.461 -2.2864 -0.6391 -1.9274
15956SOL     OW49799   1.105   3.746   0.888 -0.3330  0.1515 -0.4128
15956SOL    HW149800   1.101   3.695   0.969 -1.7630  0.9360  0.0351
15956SOL    HW249801   1.160   3.693   0.830  0.5714 -0.5243  0.9833
15957SOL     OW49802   1.015   2.853   1.296 -0.2733 -0.1975 -0.3637
15957SOL    HW149803   1.064   2.915   1.243  1.6173 -1.4321 -0.1435
15957SOL    HW249804   0.987   2.785   1.235 -0.2319 -0.3564 -0.2092
15958SOL     OW49805   6.104   3.338   4.235 -0.2787 -0.5988  0.4433
15958SOL    HW149806   6.178   3.278   4.230 -1.1962 -1.7072 -0.4526
15958SOL    HW249807   6.085   3.360   4.144 -0.1918  0.7850  0.7401
15959SOL     OW49808   2.228   3.747   3.765  0.3333  0.2490 -0.1207
15959SOL    HW149809   2.155   3.784   3.814 -0.6553 -1.5502 -0.1483
15959SOL    HW249810   2.248   3.664   3.809  1.3870  0.0177 -0.9775
15960SOL     OW49811   2.389   0.302   2.128  0.6314 -0.3045  0.3562
15960SOL    HW149812   2.388   0.397   2.140 -1.5960 -0.4473  1.8862
15960SOL    HW249813   2.370   0.267   2.215 -0.7018 -2.0614 -0.5851
15961SOL     OW49814   0.415   3.756   3.618  0.3176 -0.2334  0.3660
15961SOL    HW149815   0.455   3.773   3.533  0.4063 -0.4741  0.3610
15961SOL    HW249816   0.334   3.711   3.598  0.3841 -0.3746  0.4135
15962SOL     OW49817   2.923   4.720   8.635  0.2562 -0.2902 -0.2889
15962SOL    HW149818   2.883   4.785   8.578  0.4564  0.4430  0.3884
15962SOL    HW249819   3.017   4.741   8.633  0.3402 -0.6412 -0.1642
15963SOL     OW49820   5.866   7.925   4.944  0.3579  0.2107 -0.0677
15963SOL    HW149821   5.915   7.906   4.864 -0.0695  0.5520 -0.4138
15963SOL    HW249822   5.911   7.875   5.012  1.3757  0.7456 -0.3245
15964SOL     OW49823   7.861   5.385   3.805  0.0749  0.0050  0.0298
15964SOL    HW149824   7.861   5.480   3.794 -2.1642  0.2163  1.2454
15964SOL    HW249825   7.842   5.372   3.898 -1.0214 -1.6270 -0.3827
15965SOL     OW49826   6.715   7.369   5.657  0.0764 -0.4073 -0.0413
15965SOL    HW149827   6.724   7.463   5.648 -2.8153 -0.2366 -3.3017
15965SOL    HW249828   6.640   7.358   5.716  1.4608 -0.8463  1.7535
15966SOL     OW49829   7.733   2.717   4.677 -0.0828  0.5372 -0.2421
15966SOL    HW149830   7.792   2.792   4.689  0.3187  0.3842 -1.1298
15966SOL    HW249831   7.755   2.658   4.749  1.1604  0.3062 -0.7738
15967SOL     OW49832   2.667   0.495   4.932  0.3076 -0.0276 -0.8771
15967SOL    HW149833   2.623   0.510   5.016  0.2473 -0.6834 -0.7880
15967SOL    HW249834   2.690   0.402   4.933  2.0698  0.3795 -0.7329
15968SOL     OW49835   3.681   4.463   6.298 -0.6195 -0.2832  0.0882
15968SOL    HW149836   3.714   4.552   6.286  0.7546 -0.9925 -1.8964
15968SOL    HW249837   3.740   4.425   6.364 -1.4598  0.3470  1.2486
15969SOL     OW49838   4.530   3.637   2.686  0.0246  0.6641  0.2159
15969SOL    HW149839   4.450   3.673   2.723 -0.7079 -1.5070  0.9197
15969SOL    HW249840   4.502   3.594   2.605  0.4462 -0.1898  0.5116
15970SOL     OW49841   6.115   4.299   1.888  0.7494 -0.5801  0.5067
15970SOL    HW149842   6.154   4.284   1.802 -0.2334  1.5679 -0.3889
15970SOL    HW249843   6.190   4.310   1.947  1.4396 -1.1947 -0.2394
15971SOL     OW49844   1.053   0.261   0.924 -0.5190 -0.0530 -0.4128
15971SOL    HW149845   1.058   0.180   0.975 -2.0134 -1.1802 -1.8926
15971SOL    HW249846   1.043   0.330   0.988  1.3379 -0.9511  0.9325
15972SOL     OW49847   5.492   3.711   6.023 -0.0561 -0.3037  0.6384
15972SOL    HW149848   5.426   3.687   5.957 -0.2027 -0.4150  0.8239
15972SOL    HW249849   5.560   3.644   6.013  1.4592  1.4219 -1.5399
15973SOL     OW49850   3.935   4.367   7.650 -0.1167  0.0117 -0.0955
15973SOL    HW149851   3.909   4.365   7.743  0.4329  3.0812  0.2192
15973SOL    HW249852   4.031   4.372   7.652 -0.0622 -0.5213 -0.8800
15974SOL     OW49853   7.866   6.382   0.962  0.2499  0.2576  0.0406
15974SOL    HW149854   7.801   6.327   1.004  1.7566 -1.4338  0.2620
15974SOL    HW249855   7.947   6.366   1.010  1.9861 -1.5022 -3.1213
15975SOL     OW49856   8.663   8.775   8.850  0.1323  0.0753  0.0531
15975SOL    HW149857   8.715   8.852   8.826  1.0383 -0.6717 -0.4158
15975SOL    HW249858   8.572   8.805   8.845  0.5017  1.8017  2.1905
15976SOL     OW49859   6.675   3.695   1.366  0.1111  0.0730 -0.6618
15976SOL    HW149860   6.625   3.619   1.335  0.1350 -0.5303  0.7073
15976SOL    HW249861   6.618   3.770   1.351 -0.2151 -0.3023 -1.3453
15977SOL     OW49862   6.083   3.782   8.856 -0.0156 -0.5844 -0.3573
15977SOL    HW149863   6.012   3.836   8.820 -0.5079 -1.2141 -0.3450
15977SOL    HW249864   6.056   3.692   8.840  0.2570 -0.8606  0.6426
15978SOL     OW49865   6.678   3.446   6.198 -0.5105  0.5392 -1.2359
15978SOL    HW149866   6.699   3.384   6.267 -0.7227  0.5369 -1.1731
15978SOL    HW249867   6.704   3.531   6.233  0.4708  0.4080 -1.6051
15979SOL     OW49868   5.116   2.304   8.263  0.3246 -0.4958  0.3605
15979SOL    HW149869   5.044   2.333   8.320  1.4056  1.7015  0.6962
15979SOL    HW249870   5.190   2.293   8.322  0.5617 -1.7920 -0.1391
15980SOL     OW49871   3.425   7.209   5.783 -0.7699 -0.2396  0.2313
15980SOL    HW149872   3.386   7.249   5.705 -0.0864  0.1814  0.0975
15980SOL    HW249873   3.459   7.125   5.754  3.5704  1.6960 -1.1396
15981SOL     OW49874   0.626   3.443   7.798  0.1680 -0.4046  0.0471
15981SOL    HW149875   0.676   3.446   7.716 -2.9034  0.6320 -1.9555
15981SOL    HW249876   0.612   3.535   7.820 -0.2444 -0.6835  0.9760
15982SOL     OW49877   4.888   3.547   5.136 -0.3884  0.4528  0.3063
15982SOL    HW149878   4.870   3.641   5.148 -1.7677  0.1050  1.2412
15982SOL    HW249879   4.939   3.522   5.212 -0.7269  0.2878  0.4833
15983SOL     OW49880   0.362   1.248   2.766  0.3081 -0.7318  0.5037
15983SOL    HW149881   0.338   1.189   2.695 -1.6996  0.9794 -0.3646
15983SOL    HW249882   0.292   1.237   2.831  1.7586 -1.7839  1.9640
15984SOL     OW49883   7.422   6.283   6.320  0.0216 -0.4045 -0.1440
15984SOL    HW149884   7.384   6.214   6.266  1.0502 -0.4802 -0.7810
15984SOL    HW249885   7.358   6.354   6.315  0.5588 -0.0199 -2.3125
15985SOL     OW49886   4.368   0.425   3.610  0.0987  0.2571 -0.1375
15985SOL    HW149887   4.352   0.335   3.637  0.5994 -0.6934 -2.7495
15985SOL    HW249888   4.456   0.444   3.644 -0.6901  0.4308  1.9188
15986SOL     OW49889   7.785   1.770   4.856 -0.5425  0.3023  0.6554
15986SOL    HW149890   7.844   1.713   4.904  0.6686  0.0939 -0.9931
15986SOL    HW249891   7.822   1.858   4.866  0.1990  0.1449 -0.5425
15987SOL     OW49892   3.376   0.252   6.688 -0.3418 -0.1823  0.0140
15987SOL    HW149893   3.433   0.176   6.675 -1.3892 -1.0052  0.0515
15987SOL    HW249894   3.328   0.260   6.605 -0.7984 -0.0501  0.2892
15988SOL     OW49895   6.074   1.581   5.045 -0.3377 -0.0529 -0.3613
15988SOL    HW149896   6.041   1.500   5.007 -1.5366 -0.0599  0.6431
15988SOL    HW249897   6.028   1.651   4.998  0.6008  0.0689 -1.1382
15989SOL     OW49898   1.841   8.708   0.963 -0.4541  0.3424 -1.2759
15989SOL    HW149899   1.806   8.786   0.920 -0.7629  0.6939 -0.4013
15989SOL    HW249900   1.913   8.741   1.017 -0.8141  0.0675 -0.6305
15990SOL     OW49901   2.303   3.699   1.759 -0.0598 -0.0618  0.4771
15990SOL    HW149902   2.389   3.718   1.723 -0.2321 -0.1994 -0.0215
15990SOL    HW249903   2.312   3.712   1.853  0.6733 -0.7045  0.5052
15991SOL     OW49904   7.622   4.822   6.095 -0.4128  0.1917 -0.0692
15991SOL    HW149905   7.680   4.755   6.060 -0.0040 -0.2434  1.3677
15991SOL    HW249906   7.535   4.782   6.092 -0.5215  0.4917 -1.3541
15992SOL     OW49907   1.000   8.788   7.246 -0.1319  0.1594 -0.2090
15992SOL    HW149908   1.005   8.753   7.157 -1.3517  0.3262 -0.3628
15992SOL    HW249909   0.922   8.844   7.245  0.5251  1.1141  0.6398
15993SOL     OW49910   6.801   4.805   4.156 -0.3989 -0.7515  0.5047
15993SOL    HW149911   6.858   4.818   4.232  0.7222 -1.5754 -0.1793
15993SOL    HW249912   6.794   4.710   4.147  0.1995 -0.6758 -0.9587
15994SOL     OW49913   7.641   3.302   6.375 -0.0315 -0.2729  0.2602
15994SOL    HW149914   7.644   3.325   6.283 -0.0161  0.3501  0.4118
15994SOL    HW249915   7.555   3.330   6.405  0.1946  0.0892  0.5789
15995SOL     OW49916   8.223   4.554   3.588 -0.1308  0.0174  0.6513
15995SOL    HW149917   8.218   4.621   3.520  0.3900 -1.6961 -1.1754
15995SOL    HW249918   8.133   4.522   3.597 -0.4084  0.9923  1.6316
15996SOL     OW49919   7.061   2.028   5.205  0.3274  0.2928  0.1686
15996SOL    HW149920   7.055   2.115   5.244  0.4181  0.0961  0.6266
15996SOL    HW249921   6.972   2.009   5.175  0.7167  1.4581 -1.9630
15997SOL     OW49922   2.304   5.074   3.065  0.1301  0.1232 -0.4525
15997SOL    HW149923   2.386   5.120   3.047  0.0538  0.0528 -1.0048
15997SOL    HW249924   2.297   5.075   3.160  1.0350 -0.3287 -0.3706
15998SOL     OW49925   7.206   7.240   8.577  0.4789 -0.1423  0.2453
15998SOL    HW149926   7.248   7.227   8.662  1.7770 -3.0765 -0.6868
15998SOL    HW249927   7.279   7.259   8.517 -0.4760  2.5584 -0.2022
15999SOL     OW49928   6.958   4.661   5.457 -0.3791  0.0771  0.6666
15999SOL    HW149929   6.925   4.697   5.539 -1.4083  1.7317 -0.4187
15999SOL    HW249930   6.982   4.738   5.405 -1.4229 -0.8116 -1.2507
16000SOL     OW49931   5.896   7.941   1.925 -0.0078  0.2552  0.1625
16000SOL    HW149932   5.925   7.988   1.846 -0.8109  0.6391  0.0819
16000SOL    HW249933   5.938   7.987   1.997  1.8166 -0.9164 -0.0864
16001SOL     OW49934   0.573   0.271   2.943  0.2273  0.3397 -0.4219
16001SOL    HW149935   0.540   0.201   3.001 -2.4284  0.9305 -1.0878
16001SOL    HW249936   0.586   0.346   3.001  2.3579 -0.4020  0.1631
16002SOL     OW49937   2.427   3.236   7.706  0.0008  0.1460 -0.0099
16002SOL    HW149938   2.402   3.162   7.762  0.2050  0.8046  0.9757
16002SOL    HW249939   2.455   3.304   7.767  0.8934  0.6482 -0.9499
16003SOL     OW49940   5.611   6.507   1.464 -0.1348 -0.1182  0.5494
16003SOL    HW149941   5.518   6.492   1.447 -0.1286 -1.5220  1.5600
16003SOL    HW249942   5.646   6.420   1.481  0.8071  0.6309  2.8299
16004SOL     OW49943   1.076   6.603   7.782 -0.1718 -0.6957  0.6359
16004SOL    HW149944   1.075   6.589   7.688  0.4572  0.3059  0.4729
16004SOL    HW249945   0.988   6.634   7.803 -0.0397 -0.0627  0.2449
16005SOL     OW49946   8.349   1.900   8.165 -0.5959  0.2987  0.6360
16005SOL    HW149947   8.345   1.816   8.119  1.1563  0.4174  0.1798
16005SOL    HW249948   8.266   1.943   8.144 -1.3157 -1.1158  0.4918
16006SOL     OW49949   5.161   4.239   4.950  0.1552  0.0847  0.5676
16006SOL    HW149950   5.190   4.160   4.995 -0.7512 -1.2706 -1.1211
16006SOL    HW249951   5.229   4.257   4.886 -0.7299 -0.7319 -0.6409
16007SOL     OW49952   0.040   6.316   6.592  0.1440  0.3145  0.4197
16007SOL    HW149953   0.125   6.312   6.637  0.0106  0.4775  0.6881
16007SOL    HW249954  -0.005   6.236   6.618  0.7172 -0.4038 -0.7428
16008SOL     OW49955   6.020   5.917   2.750 -0.4044 -0.9012  0.5802
16008SOL    HW149956   5.970   5.838   2.771 -0.6031 -0.7810  0.5663
16008SOL    HW249957   5.959   5.989   2.769 -0.6660 -0.7954 -0.5923
16009SOL     OW49958   2.439   4.791   3.900 -0.1532 -0.6169  0.4284
16009SOL    HW149959   2.463   4.724   3.963  0.8594  0.4450  1.2038
16009SOL    HW249960   2.481   4.871   3.931 -0.4230  0.1584 -1.0613
16010SOL     OW49961   7.509   7.608   3.483  0.1542 -0.5015 -0.3017
16010SOL    HW149962   7.489   7.545   3.553 -1.6185  0.0617 -0.2508
16010SOL    HW249963   7.439   7.595   3.419 -0.5313  1.6795 -0.0889
16011SOL     OW49964   2.326   5.481   2.389  0.3121  0.8399  0.2881
16011SOL    HW149965   2.334   5.555   2.450  0.3905  0.1964  1.0701
16011SOL    HW249966   2.338   5.520   2.302 -0.6065  1.9130  0.6179
16012SOL     OW49967   0.533   0.416   0.678 -0.1296 -0.0154 -0.6481
16012SOL    HW149968   0.473   0.450   0.744  0.6282  1.4100 -0.6491
16012SOL    HW249969   0.617   0.406   0.723  0.0453 -0.4092 -1.0438
16013SOL     OW49970   5.361   2.878   8.669  0.3495 -0.0089  0.0048
16013SOL    HW149971   5.341   2.960   8.625 -0.1639  0.9300  1.8649
16013SOL    HW249972   5.339   2.894   8.761  1.4999 -1.7966  0.6541
16014SOL     OW49973   6.571   7.366   7.377 -0.5302  0.0686 -0.4770
16014SOL    HW149974   6.556   7.424   7.452  0.2926  0.2526 -0.4484
16014SOL    HW249975   6.657   7.392   7.343 -0.2243 -1.0207 -0.5699
16015SOL     OW49976   0.899   5.814   0.083 -0.2186 -0.2303  0.0829
16015SOL    HW149977   0.805   5.812   0.068 -0.3874  2.3492  0.3295
16015SOL    HW249978   0.936   5.756   0.016 -1.9202 -1.0113 -0.2243
16016SOL     OW49979   4.817   8.422   6.799  0.4551 -0.2824  0.2188
16016SOL    HW149980   4.814   8.326   6.804  1.8630 -0.3608 -0.0329
16016SOL    HW249981   4.906   8.444   6.826  0.5788  0.8667 -1.0653
16017SOL     OW49982   3.488   0.370   6.303  0.1405 -0.2200  0.2210
16017SOL    HW149983   3.475   0.427   6.228  1.8558  2.4380  1.7823
16017SOL    HW249984   3.568   0.321   6.284 -0.8624 -1.5778 -0.7384
16018SOL     OW49985   6.753   6.561   4.920  0.9678 -0.5817 -0.1877
16018SOL    HW149986   6.848   6.553   4.917  1.3068  2.5547 -0.7108
16018SOL    HW249987   6.728   6.595   4.834 -0.2324  1.5319  0.9192
16019SOL     OW49988   3.122   5.124   5.849  0.2973 -0.5696  0.9167
16019SOL    HW149989   3.116   5.111   5.943 -0.1352  0.6353  1.0708
16019SOL    HW249990   3.108   5.037   5.812  0.6516 -1.0877  1.9620
16020SOL     OW49991   6.729   0.575   8.741 -0.3842  0.3510 -0.0534
16020SOL    HW149992   6.782   0.577   8.820 -1.2921  1.1646  0.5460
16020SOL    HW249993   6.793   0.565   8.670  0.3838 -1.2747  0.8120
16021SOL     OW49994   5.625   2.733   3.754 -0.3923  0.1183 -0.2571
16021SOL    HW149995   5.543   2.761   3.715 -0.1330  0.1191 -0.8050
16021SOL    HW249996   5.671   2.814   3.774 -1.8870  0.3164  3.1348
16022SOL     OW49997   5.785   7.815   7.047  0.3881 -0.3708 -0.0798
16022SOL    HW149998   5.812   7.896   7.003  0.1191  0.9777  2.0537
16022SOL    HW249999   5.866   7.765   7.056  1.1637  1.0241  1.1389
16023SOL     OW50000   5.391   1.705   4.563  0.1653 -0.3773  0.1909
16023SOL    HW150001   5.457   1.685   4.629  0.6670  1.8935  0.4426
16023SOL    HW250002   5.326   1.759   4.609  0.4972  1.1980 -1.0987
16024SOL     OW50003   3.312   7.509   1.190 -0.3727 -0.2408  0.1055
16024SOL    HW150004   3.234   7.490   1.241  0.9769 -2.0803  1.6194
16024SOL    HW250005   3.317   7.605   1.188 -1.6310 -0.1099  1.5720
16025SOL     OW50006   4.150   6.418   3.950 -0.0170  0.4287 -0.4458
16025SOL    HW150007   4.064   6.461   3.946 -1.1370 -1.5961  0.4998
16025SOL    HW250008   4.201   6.472   4.010 -1.2104  0.7220  0.3376
16026SOL     OW50009   6.478   1.885   0.833 -0.1787 -0.0009 -0.8755
16026SOL    HW150010   6.543   1.845   0.890 -1.4376 -1.2373 -0.2493
16026SOL    HW250011   6.436   1.811   0.789 -2.9787  0.4900  0.7360
16027SOL     OW50012   4.630   2.543   6.615 -0.0711 -0.8904  0.8407
16027SOL    HW150013   4.650   2.621   6.667  1.2529  0.4723 -1.5607
16027SOL    HW250014   4.715   2.506   6.592 -0.6142 -1.5617 -0.1831
16028SOL     OW50015   2.375   7.020   2.698  0.0710  0.0946  0.6575
16028SOL    HW150016   2.471   7.014   2.705  0.2475  1.9696  0.3817
16028SOL    HW250017   2.351   7.089   2.760 -0.9679  0.4561 -0.1235
16029SOL     OW50018   6.208   0.008   2.259  0.8644  0.4790  0.4496
16029SOL    HW150019   6.302   0.008   2.277  1.0016 -1.3443 -0.0473
16029SOL    HW250020   6.198   0.063   2.182  1.7468 -0.4011 -0.3271
16030SOL     OW50021   3.072   3.565   5.608  0.9163  0.0374  0.1707
16030SOL    HW150022   3.018   3.645   5.609  0.2357 -0.3161 -2.0453
16030SOL    HW250023   3.134   3.579   5.537  1.7262 -0.8594  0.6732
16031SOL     OW50024   6.522   2.328   4.550 -0.6455 -0.4615 -0.6756
16031SOL    HW150025   6.605   2.338   4.597 -1.0988  1.7970 -0.2445
16031SOL    HW250026   6.472   2.267   4.603  0.4667 -1.3168 -0.5722
16032SOL     OW50027   8.476   4.341   3.355 -0.2142 -0.3020  0.0073
16032SOL    HW150028   8.485   4.424   3.401 -0.5750 -0.4470  0.3532
16032SOL    HW250029   8.386   4.313   3.374  0.7829 -2.2792  2.5075
16033SOL     OW50030   5.530   7.280   0.735 -0.5803  0.2101  0.4597
16033SOL    HW150031   5.564   7.204   0.782 -0.6458 -0.2520 -0.2196
16033SOL    HW250032   5.435   7.274   0.744 -0.6398 -0.3187 -0.3633
16034SOL     OW50033   2.124   3.313   7.787  0.1454  0.7751  0.7932
16034SOL    HW150034   2.164   3.226   7.790  0.8788  1.0692  0.0836
16034SOL    HW250035   2.146   3.352   7.872  1.2632  0.8614  0.4892
16035SOL     OW50036   0.403   8.798   1.039  0.0151 -0.1149 -0.2261
16035SOL    HW150037   0.431   8.856   0.968 -0.4177  3.0251  2.0214
16035SOL    HW250038   0.485   8.769   1.080  0.1968  0.6373 -0.0540
16036SOL     OW50039   6.005   4.239   5.621 -0.3479 -0.5937  0.0630
16036SOL    HW150040   5.944   4.184   5.671 -0.6257  1.4815  2.2025
16036SOL    HW250041   6.090   4.226   5.664 -0.4155  0.5878  0.5853
16037SOL     OW50042   1.762   8.193   2.890 -0.0056  1.0598 -0.2478
16037SOL    HW150043   1.779   8.111   2.844 -1.3630  0.5137  0.1747
16037SOL    HW250044   1.709   8.244   2.828 -1.4390  0.5146  0.4956
16038SOL     OW50045   1.753   3.763   0.723 -0.0697  0.1462  0.4252
16038SOL    HW150046   1.706   3.700   0.667 -2.3206  1.6658  0.4515
16038SOL    HW250047   1.837   3.775   0.680 -0.3120 -1.4559 -0.6009
16039SOL     OW50048   7.205   4.215   3.464 -0.1671 -0.2415  0.2908
16039SOL    HW150049   7.168   4.258   3.541 -0.9980 -0.9680  0.3221
16039SOL    HW250050   7.250   4.284   3.416 -0.8803  0.5080  0.6849
16040SOL     OW50051   5.278   6.176   6.927 -0.0597  0.2367 -0.4233
16040SOL    HW150052   5.217   6.175   7.002 -0.0166 -1.0876 -0.3897
16040SOL    HW250053   5.264   6.092   6.883 -0.1884  1.0524 -2.0133
16041SOL     OW50054   5.359   7.922   4.358 -0.0743  0.3380 -0.7033
16041SOL    HW150055   5.410   7.918   4.439  0.0280 -0.9365 -0.8102
16041SOL    HW250056   5.354   8.015   4.338 -0.9133  0.7625  1.2780
16042SOL     OW50057   5.786   6.630   0.312 -0.1113 -0.2785  0.6949
16042SOL    HW150058   5.762   6.676   0.231 -0.8933  1.3500  1.7836
16042SOL    HW250059   5.863   6.677   0.344 -0.2263 -0.4512  1.2323
16043SOL     OW50060   6.528   5.890   4.127  0.0551  0.1358  1.1019
16043SOL    HW150061   6.508   5.984   4.128  1.8722  0.5552  1.1569
16043SOL    HW250062   6.459   5.852   4.073  0.7120  1.8804 -1.1412
16044SOL     OW50063   5.582   3.474   4.557 -0.2979  0.2083 -0.0996
16044SOL    HW150064   5.637   3.545   4.523 -0.4520 -0.0515 -0.9171
16044SOL    HW250065   5.585   3.407   4.489 -1.9928  0.3768 -0.3934
16045SOL     OW50066   7.194   2.056   0.025  0.1272 -0.1941  0.2448
16045SOL    HW150067   7.242   1.994  -0.029 -0.5716 -1.4286  0.9968
16045SOL    HW250068   7.250   2.070   0.101  0.1173 -0.1705  0.2482
16046SOL     OW50069   7.662   0.462   3.094 -0.1105 -0.5871 -0.0818
16046SOL    HW150070   7.713   0.443   3.016  0.3706  0.5883 -0.0757
16046SOL    HW250071   7.645   0.376   3.134  2.0982 -1.0119  0.0717
16047SOL     OW50072   5.771   2.092   0.261 -0.6249  0.1468 -0.4990
16047SOL    HW150073   5.737   2.055   0.343  0.6675 -0.0642 -0.0369
16047SOL    HW250074   5.824   2.021   0.223  3.0915  1.8217  1.0926
16048SOL     OW50075   0.146   2.330   4.270  0.2698  0.1415  0.1072
16048SOL    HW150076   0.233   2.312   4.235 -0.2543 -2.9910  0.1589
16048SOL    HW250077   0.088   2.330   4.194  0.1710  1.5320  0.1510
16049SOL     OW50078   3.743   6.038   0.729 -0.1563  0.3549 -0.0018
16049SOL    HW150079   3.691   6.118   0.724  0.1306  0.5416 -0.0478
16049SOL    HW250080   3.679   5.967   0.737 -0.5858  0.3173 -2.7367
16050SOL     OW50081   6.666   6.299   5.983 -0.6269  0.4006  0.1452
16050SOL    HW150082   6.687   6.306   5.890  0.7474  0.5501  0.4374
16050SOL    HW250083   6.622   6.382   6.004 -0.5900  0.5333 -0.2894
16051SOL     OW50084   6.719   4.223   0.240 -0.4749 -0.1555 -0.1327
16051SOL    HW150085   6.800   4.176   0.221 -0.4592 -0.2360  0.1370
16051SOL    HW250086   6.747   4.313   0.259 -0.5765  0.2041 -1.5303
16052SOL     OW50087   6.440   8.161   7.723  0.3720  0.1521 -0.5187
16052SOL    HW150088   6.534   8.166   7.736  0.2048  0.7420  0.6611
16052SOL    HW250089   6.423   8.068   7.707  1.1894  0.1073 -1.1862
16053SOL     OW50090   5.749   5.671   1.032  0.3566  0.3844 -0.2591
16053SOL    HW150091   5.817   5.633   0.977  0.8712  0.4774  0.2971
16053SOL    HW250092   5.762   5.766   1.025 -0.2865  0.4367 -0.8521
16054SOL     OW50093   7.943   0.825   0.681  0.8181  0.2685  0.7031
16054SOL    HW150094   8.026   0.809   0.726  0.0600  2.0918  2.9296
16054SOL    HW250095   7.921   0.916   0.701 -1.5109 -0.0188 -0.1740
16055SOL     OW50096   1.192   4.635   0.481 -0.1695  0.0368 -0.5596
16055SOL    HW150097   1.107   4.678   0.489  0.0547  0.9460 -2.4650
16055SOL    HW250098   1.244   4.694   0.426  2.0658 -0.0012  1.3678
16056SOL     OW50099   1.851   7.795   2.416  0.2934  0.0704 -0.0738
16056SOL    HW150100   1.809   7.761   2.495  0.5148 -0.8545 -0.3369
16056SOL    HW250101   1.781   7.799   2.351  0.3362 -0.2265 -0.1405
16057SOL     OW50102   3.646   3.743   6.849  0.5839 -0.9104 -0.6279
16057SOL    HW150103   3.740   3.725   6.860  0.7662  0.9151  1.3454
16057SOL    HW250104   3.603   3.676   6.902  0.8614 -0.6760 -0.0981
16058SOL     OW50105   7.934   4.461   2.189 -0.5182  0.5620  0.0559
16058SOL    HW150106   7.950   4.547   2.150  0.1501  0.5336  0.2474
16058SOL    HW250107   7.962   4.471   2.280  0.0836 -0.0073 -0.0590
16059SOL     OW50108   2.018   0.485   4.742  0.0528 -0.0780 -0.0451
16059SOL    HW150109   2.061   0.565   4.772 -0.8484  0.3596  0.1038
16059SOL    HW250110   1.989   0.504   4.653 -0.9374  0.0790  0.2987
16060SOL     OW50111   5.983   8.836   3.939 -0.8608  0.4466  0.9530
16060SOL    HW150112   6.076   8.824   3.954 -0.2949  0.9754 -1.6462
16060SOL    HW250113   5.941   8.775   3.999  1.1846 -0.4054  1.6029
16061SOL     OW50114   7.435   5.274   4.966  0.1253  0.5568  0.1311
16061SOL    HW150115   7.360   5.268   5.026 -0.6671  1.6540 -0.6976
16061SOL    HW250116   7.396   5.268   4.878  1.1612 -0.1262 -0.3044
16062SOL     OW50117   6.651   4.620   3.364 -0.0076 -0.3203  0.1662
16062SOL    HW150118   6.602   4.698   3.390  1.4470  0.3537  1.0033
16062SOL    HW250119   6.732   4.625   3.415  0.9929 -1.3282 -1.2728
16063SOL     OW50120   1.924   2.780   8.496  0.6783 -0.2621  0.2587
16063SOL    HW150121   1.934   2.727   8.416 -2.3365 -0.4581 -0.1213
16063SOL    HW250122   1.991   2.847   8.489  2.3776 -1.9870 -0.9744
16064SOL     OW50123   4.284   8.669   6.521  0.0785 -0.1685  0.2794
16064SOL    HW150124   4.322   8.644   6.437  0.3076 -1.4067  0.7424
16064SOL    HW250125   4.359   8.688   6.577 -0.0156 -1.0980  0.7330
16065SOL     OW50126   0.667   0.986   4.072  0.1917 -0.6472  0.0018
16065SOL    HW150127   0.600   1.017   4.133 -0.4048 -0.9610 -0.4727
16065SOL    HW250128   0.713   0.917   4.119 -0.2168 -0.8371  0.1260
16066SOL     OW50129   8.704   7.223   1.980 -0.0576 -0.0836  0.4873
16066SOL    HW150130   8.674   7.311   1.960  1.0903 -0.1712 -1.9188
16066SOL    HW250131   8.696   7.175   1.898 -1.8448 -2.6465  1.9871
16067SOL     OW50132   0.269   0.167   7.343  0.7414 -0.2983  0.4678
16067SOL    HW150133   0.280   0.208   7.257  1.6736 -1.3806  0.0408
16067SOL    HW250134   0.178   0.138   7.344  0.5239  0.3516  0.1439
16068SOL     OW50135   7.312   0.251   7.692  0.2708 -0.6455  0.0030
16068SOL    HW150136   7.292   0.264   7.784  0.8821 -0.1994  0.0820
16068SOL    HW250137   7.343   0.160   7.686 -0.0983 -0.7835  0.1731
16069SOL     OW50138   3.528   2.283   2.883  0.1498  0.2435  0.3484
16069SOL    HW150139   3.618   2.312   2.868 -0.1427  0.6679 -0.5867
16069SOL    HW250140   3.538   2.202   2.934  1.0239  0.7615  1.0367
16070SOL     OW50141   2.121   2.993   3.161 -0.3291 -0.3293  0.0598
16070SOL    HW150142   2.033   2.956   3.166 -0.4514 -0.2517 -1.2096
16070SOL    HW250143   2.171   2.929   3.111  0.5546 -0.7319  1.3975
16071SOL     OW50144   5.300   1.197   2.261 -0.0229  0.4865 -0.1410
16071SOL    HW150145   5.387   1.170   2.232 -0.3760  0.9017 -1.6941
16071SOL    HW250146   5.282   1.143   2.338  0.7930 -1.0280 -0.9734
16072SOL     OW50147   6.376   4.574   2.849 -0.6193 -0.0462  0.3722
16072SOL    HW150148   6.342   4.488   2.825 -0.9898  0.2105 -0.0281
16072SOL    HW250149   6.424   4.604   2.772 -1.4859  0.6065  0.0670
16073SOL     OW50150   4.742   5.641   1.251 -0.3263 -0.2774  0.0456
16073SOL    HW150151   4.675   5.576   1.229 -1.0118  0.8675 -1.4424
16073SOL    HW250152   4.699   5.725   1.237  0.4019  0.5449  2.3374
16074SOL     OW50153   4.427   2.121   2.214 -0.1547  0.2392  0.4346
16074SOL    HW150154   4.429   2.031   2.247 -0.1628  0.8236  2.1209
16074SOL    HW250155   4.340   2.153   2.237  0.1647  0.9554  0.6854
16075SOL     OW50156   7.571   7.631   5.444  0.0422  0.2845 -0.8957
16075SOL    HW150157   7.558   7.697   5.376 -1.9677 -0.4070 -1.2710
16075SOL    HW250158   7.484   7.621   5.484 -0.0915 -3.0466 -1.7584
16076SOL     OW50159   1.430   8.059   1.313  0.1310  0.0484 -0.2219
16076SOL    HW150160   1.375   8.118   1.364 -0.0703 -0.8418  0.6319
16076SOL    HW250161   1.370   7.991   1.282  0.5276 -0.2629 -0.3241
16077SOL     OW50162   7.216   8.050   7.364 -0.8127  0.1678  0.5828
16077SOL    HW150163   7.232   8.023   7.274 -1.9376  0.7860  0.1789
16077SOL    HW250164   7.213   8.146   7.360 -1.2836  0.1834  1.1971
16078SOL     OW50165   8.551   4.138   3.705 -0.0307 -0.8567 -0.3773
16078SOL    HW150166   8.594   4.216   3.738  2.0200 -1.7795 -0.7028
16078SOL    HW250167   8.459   4.147   3.732  0.6185  0.5847  1.5068
16079SOL     OW50168   0.701   1.804   2.317  0.4576 -0.1847 -0.0294
16079SOL    HW150169   0.707   1.787   2.412 -0.5235  0.7392  0.2153
16079SOL    HW250170   0.771   1.865   2.300  0.3277  0.0325  0.2020
16080SOL     OW50171   0.827   3.454   4.737 -0.5602 -0.9373 -0.3125
16080SOL    HW150172   0.771   3.505   4.679 -0.5571 -0.5883 -0.0172
16080SOL    HW250173   0.799   3.363   4.725 -0.5309 -0.8717 -0.8809
16081SOL     OW50174   4.506   3.507   5.111 -0.5814 -0.1154 -0.2448
16081SOL    HW150175   4.554   3.470   5.037  2.0248  1.5668  0.4498
16081SOL    HW250176   4.503   3.601   5.093  0.7445  0.4315  2.0198
16082SOL     OW50177   4.527   4.274   8.523 -0.2211 -0.0021  0.3579
16082SOL    HW150178   4.474   4.250   8.447  0.1804 -2.6333  0.8137
16082SOL    HW250179   4.602   4.321   8.486 -0.4904 -0.4260 -0.7899
16083SOL     OW50180   4.014   6.013   1.857 -0.2047  0.2568 -0.1331
16083SOL    HW150181   3.923   6.005   1.828  0.1212  0.0202 -1.1082
16083SOL    HW250182   4.061   6.041   1.779  0.5749  0.3468  0.3644
16084SOL     OW50183   6.424   6.713   6.826 -0.4523  0.0267 -0.3098
16084SOL    HW150184   6.405   6.673   6.911 -0.9968  0.7500 -0.0755
16084SOL    HW250185   6.408   6.644   6.762  0.8690 -0.8089  0.2238
16085SOL     OW50186   8.291   3.126   3.369  0.0455  0.1510 -0.0113
16085SOL    HW150187   8.312   3.034   3.381  1.1907  0.4236  0.1547
16085SOL    HW250188   8.254   3.154   3.453  0.0593 -0.0593  0.0636
16086SOL     OW50189   5.038   4.187   8.162  0.4871  0.1913  0.2337
16086SOL    HW150190   5.085   4.189   8.246  0.3263  0.4268  0.3190
16086SOL    HW250191   5.090   4.128   8.107  0.4438 -0.1771  0.5867
16087SOL     OW50192   3.621   1.933   3.464 -0.0211  0.2332  0.0415
16087SOL    HW150193   3.640   1.929   3.558 -2.4621  0.6417  0.6263
16087SOL    HW250194   3.581   2.019   3.452  0.4954  0.2855 -1.4360
16088SOL     OW50195   1.829   0.242   3.763 -0.1852  0.1654 -0.2279
16088SOL    HW150196   1.833   0.230   3.669  1.0460 -2.1245  0.0416
16088SOL    HW250197   1.909   0.289   3.785 -1.1813  2.0462 -0.4268
16089SOL     OW50198   2.410   3.924   0.899  0.3850  0.6951  0.6120
16089SOL    HW150199   2.317   3.905   0.893  0.5316  0.0373  0.2767
16089SOL    HW250200   2.436   3.943   0.809  0.9882 -1.2167  0.3446
16090SOL     OW50201   6.420   6.124   5.923  0.2222  0.1659 -0.0566
16090SOL    HW150202   6.351   6.076   5.968  0.5365 -1.1597 -0.9390
16090SOL    HW250203   6.439   6.198   5.981 -0.1663 -0.8519  1.4307
16091SOL     OW50204   3.236   8.291   7.058  0.2531  0.2611  0.3969
16091SOL    HW150205   3.292   8.284   6.981 -1.0230  0.1250 -0.5699
16091SOL    HW250206   3.158   8.338   7.027 -2.1516 -3.2564  0.4079
16092SOL     OW50207   5.628   5.167   4.800 -0.1021 -0.1957  0.6817
16092SOL    HW150208   5.631   5.201   4.711  0.3793 -0.7852  0.4681
16092SOL    HW250209   5.560   5.099   4.797  1.3596 -1.7034  0.2155
16093SOL     OW50210   5.951   0.221   7.259  0.6402 -0.1636 -0.6372
16093SOL    HW150211   5.927   0.298   7.208  0.7367  0.2802 -0.0292
16093SOL    HW250212   5.868   0.177   7.278  0.6101 -0.3593 -1.2124
16094SOL     OW50213   2.213   3.999   2.010 -0.4139 -0.1727 -0.3534
16094SOL    HW150214   2.246   3.909   2.013 -0.8683 -0.4540 -2.3492
16094SOL    HW250215   2.136   3.995   1.954 -0.0060  1.5836 -1.1196
16095SOL     OW50216   5.727   8.707   1.689  0.0480 -0.1805 -0.2718
16095SOL    HW150217   5.677   8.659   1.755 -0.5323 -0.3657 -0.8422
16095SOL    HW250218   5.664   8.766   1.649  0.4520  0.0892 -0.5208
16096SOL     OW50219   7.227   8.855   7.441  0.2147  0.2232 -0.1374
16096SOL    HW150220   7.283   8.870   7.517 -0.1264 -0.3751  0.2433
16096SOL    HW250221   7.249   8.766   7.413 -1.4231 -0.5298  0.8026
16097SOL     OW50222   0.369   1.471   3.595  0.0737 -0.4680  0.2620
16097SOL    HW150223   0.325   1.422   3.526  0.5415 -0.0775 -0.3199
16097SOL    HW250224   0.462   1.459   3.577  0.2249  1.6626 -0.6626
16098SOL     OW50225   1.035   7.771   4.318  0.3722  0.1740  0.3748
16098SOL    HW150226   1.052   7.828   4.394  1.6809 -0.2130  0.3964
16098SOL    HW250227   1.069   7.686   4.344  1.9697  0.3107 -1.0692
16099SOL     OW50228   7.977   0.663   5.636 -0.1254 -0.6532  0.4866
16099SOL    HW150229   7.935   0.727   5.580 -2.8682 -2.9151 -0.2701
16099SOL    HW250230   7.916   0.589   5.639  2.2931 -2.7878  2.2215
16100SOL     OW50231   0.101   8.374   3.604  0.1630 -0.1446 -0.0052
16100SOL    HW150232   0.033   8.425   3.560 -0.7511 -0.4608  0.9824
16100SOL    HW250233   0.183   8.402   3.563 -0.2065  2.5740  0.9351
16101SOL     OW50234   0.474   8.737   0.339  0.7560 -0.2888  0.1640
16101SOL    HW150235   0.475   8.790   0.418 -0.7344  0.6494 -0.4048
16101SOL    HW250236   0.401   8.772   0.287 -0.6405 -3.1624 -0.0378
16102SOL     OW50237   3.295   5.632   6.591 -0.1249 -0.3411 -0.0671
16102SOL    HW150238   3.243   5.690   6.648 -0.4318 -0.3130 -0.3712
16102SOL    HW250239   3.264   5.544   6.612 -0.1932 -0.3352 -0.1414
16103SOL     OW50240   1.414   5.382   1.676 -0.3026  0.2234 -0.0718
16103SOL    HW150241   1.362   5.419   1.747  0.8313  2.7037 -0.4493
16103SOL    HW250242   1.366   5.403   1.597  0.5779  1.3844 -0.3243
16104SOL     OW50243   6.553   8.854   3.926 -0.1396  0.2400  0.2328
16104SOL    HW150244   6.618   8.921   3.906  0.9981 -0.7496  0.5499
16104SOL    HW250245   6.572   8.827   4.015 -0.2512 -0.8621 -0.0591
16105SOL     OW50246   0.802   2.661   3.117  0.2066 -0.0227  0.1701
16105SOL    HW150247   0.725   2.692   3.164  1.4747 -1.6293  3.6787
16105SOL    HW250248   0.858   2.738   3.110 -0.1507  0.3436  1.1117
16106SOL     OW50249   8.505   0.397   5.905 -0.5214 -0.5380  0.0971
16106SOL    HW150250   8.599   0.380   5.900 -0.8355 -2.5164  0.0548
16106SOL    HW250251   8.469   0.357   5.827 -1.2064  2.3300 -1.1950
16107SOL     OW50252   4.260   6.229   4.122 -0.0640 -0.4010 -0.5474
16107SOL    HW150253   4.196   6.276   4.069 -0.0492  0.1043 -0.1211
16107SOL    HW250254   4.296   6.295   4.181  1.7685 -0.3646 -1.6018
16108SOL     OW50255   1.420   4.307   8.446 -0.1624  0.3241 -0.7547
16108SOL    HW150256   1.476   4.306   8.523 -0.5378 -1.0479 -0.4764
16108SOL    HW250257   1.355   4.375   8.464 -2.3241 -2.1043  1.7340
16109SOL     OW50258   1.125   2.721   3.858  0.1147 -0.4950  0.3377
16109SOL    HW150259   1.152   2.646   3.912  0.8862 -1.1487 -0.8984
16109SOL    HW250260   1.201   2.739   3.802 -0.9583 -0.4529 -1.1658
16110SOL     OW50261   4.035   7.233   1.480  0.0104 -0.0311  0.9380
16110SOL    HW150262   4.005   7.311   1.527 -0.9529  0.3957 -0.3360
16110SOL    HW250263   4.126   7.252   1.458  0.1851  0.1580  1.7856
16111SOL     OW50264   8.540   7.247   0.159 -0.7924 -0.4647 -0.3553
16111SOL    HW150265   8.556   7.154   0.143 -3.6431 -1.2103  0.5634
16111SOL    HW250266   8.541   7.256   0.254 -0.9482  0.3666 -0.4245
16112SOL     OW50267   8.521   7.070   3.309 -0.2160 -0.4516  0.4044
16112SOL    HW150268   8.558   7.105   3.228 -0.7442 -0.9999 -0.0879
16112SOL    HW250269   8.432   7.105   3.312 -0.5804 -1.3419  0.1586
16113SOL     OW50270   8.646   3.813   1.122 -0.1950  0.7106 -0.1759
16113SOL    HW150271   8.559   3.814   1.162 -0.2950  0.8612 -0.3977
16113SOL    HW250272   8.703   3.851   1.189 -0.6462  2.6183 -0.7970
16114SOL     OW50273   6.178   6.310   2.764 -0.1738  0.0654 -0.3294
16114SOL    HW150274   6.262   6.264   2.770  0.2799  1.0793  2.8445
16114SOL    HW250275   6.192   6.376   2.696  1.9397  0.7695  0.7105
16115SOL     OW50276   4.021   7.506   0.891  0.8952  0.0261 -0.0639
16115SOL    HW150277   4.004   7.575   0.826 -0.9079  2.1781  2.4496
16115SOL    HW250278   4.073   7.550   0.959  0.3922 -1.2921  1.2291
16116SOL     OW50279   5.846   8.083   0.558 -0.4068  0.3712 -0.3498
16116SOL    HW150280   5.777   8.018   0.573 -0.8019  0.8237 -0.1661
16116SOL    HW250281   5.802   8.167   0.570 -0.2540  0.7181 -1.9860
16117SOL     OW50282   8.542   5.294   6.624  0.6509  0.3551  0.1959
16117SOL    HW150283   8.569   5.204   6.641 -0.4096 -0.3414 -1.4721
16117SOL    HW250284   8.622   5.338   6.594  1.1212 -0.0932  0.7718
16118SOL     OW50285   6.534   7.543   0.539 -0.8859 -0.1910  0.2720
16118SOL    HW150286   6.609   7.497   0.501 -1.6953 -1.4864  0.1768
16118SOL    HW250287   6.463   7.478   0.538 -1.9886  0.9662  0.4444
16119SOL     OW50288   3.972   5.905   4.643  0.0157  0.3099  0.0797
16119SOL    HW150289   4.067   5.897   4.655  0.1765 -1.5829 -1.8699
16119SOL    HW250290   3.936   5.825   4.681 -0.9906  1.5870  1.9466
16120SOL     OW50291   3.182   7.856   8.779 -0.1624  0.2133  0.5908
16120SOL    HW150292   3.256   7.882   8.725 -0.0849  2.5120  1.6735
16120SOL    HW250293   3.178   7.761   8.771  2.8052  0.0205  0.3794
16121SOL     OW50294   5.482   3.620   4.269 -0.4851 -0.0617 -0.3713
16121SOL    HW150295   5.439   3.661   4.344  0.2541 -0.8670  0.5189
16121SOL    HW250296   5.469   3.526   4.282 -1.7113 -0.1743 -2.1041
16122SOL     OW50297   0.008   0.384   1.422 -0.4101 -0.4716 -0.3180
16122SOL    HW150298   0.011   0.478   1.401 -0.1014 -0.3278  0.3411
16122SOL    HW250299  -0.024   0.343   1.342  0.4268  0.0911 -0.9606
16123SOL     OW50300   3.647   8.703   0.082 -0.5654 -0.5310  0.0193
16123SOL    HW150301   3.691   8.730   0.001 -0.6964 -1.1197 -0.2551
16123SOL    HW250302   3.596   8.626   0.057 -0.3932 -0.8839  0.7217
16124SOL     OW50303   5.826   2.084   3.982  0.6826 -0.2625 -0.5014
16124SOL    HW150304   5.897   2.132   4.025  2.5331 -1.4328 -2.0765
16124SOL    HW250305   5.812   2.130   3.899  0.4861 -0.7654 -0.7540
16125SOL     OW50306   2.469   5.098   8.482  0.5634 -0.2881 -0.8647
16125SOL    HW150307   2.437   5.114   8.393 -1.1179  0.8614 -0.1086
16125SOL    HW250308   2.479   5.003   8.488 -1.7379 -0.6095 -1.5200
16126SOL     OW50309   1.209   8.232   3.327  0.0006 -0.1993  0.1815
16126SOL    HW150310   1.197   8.322   3.356 -0.6126 -0.9034  2.2843
16126SOL    HW250311   1.297   8.208   3.358 -0.6238 -0.9344  1.4560
16127SOL     OW50312   2.670   0.823   7.318 -0.3744  0.6588 -0.3357
16127SOL    HW150313   2.678   0.875   7.397  0.6909 -0.6901  0.4955
16127SOL    HW250314   2.736   0.858   7.258 -1.4410  1.9306 -0.8153
16128SOL     OW50315   3.936   3.922   7.047  0.1199 -0.3678 -0.0544
16128SOL    HW150316   3.851   3.932   7.089  0.3040 -0.8355  0.4271
16128SOL    HW250317   3.926   3.847   6.988  0.2992 -0.6341  0.2541
16129SOL     OW50318   7.163   3.365   7.648  0.2655  0.2325  0.4284
16129SOL    HW150319   7.183   3.361   7.554  1.7266  0.1737  0.7290
16129SOL    HW250320   7.215   3.295   7.687  0.2844  0.7625  1.3793
16130SOL     OW50321   0.412   3.567   8.053 -0.5848  0.2416 -0.2044
16130SOL    HW150322   0.501   3.558   8.088 -0.0445  1.4774 -1.1760
16130SOL    HW250323   0.383   3.477   8.041  0.3513 -0.1927  0.5667
16131SOL     OW50324   0.683   6.706   0.708  0.0875  0.5234  0.3109
16131SOL    HW150325   0.760   6.700   0.652  1.3315  1.1044  1.8935
16131SOL    HW250326   0.700   6.780   0.765 -0.7037 -0.5980  2.0852
16132SOL     OW50327   1.261   1.603   7.810 -0.5689  0.5945 -0.5076
16132SOL    HW150328   1.309   1.623   7.730  0.0167  2.2112  0.2060
16132SOL    HW250329   1.180   1.653   7.803 -0.3894  0.9720  0.0215
16133SOL     OW50330   7.003   1.126   4.562  0.2058 -0.0666 -0.1616
16133SOL    HW150331   7.082   1.137   4.615 -0.0253 -0.3442  0.2420
16133SOL    HW250332   6.953   1.058   4.606 -0.3295  0.2075 -0.3323
16134SOL     OW50333   7.207   3.158   0.552  0.1492  0.2512 -0.4053
16134SOL    HW150334   7.127   3.205   0.527 -0.0055 -0.7874 -2.0126
16134SOL    HW250335   7.272   3.185   0.487  0.2057 -1.2761 -1.0362
16135SOL     OW50336   7.799   3.228   6.045  0.1760  0.0143  0.4488
16135SOL    HW150337   7.737   3.291   6.008  0.2235  1.0481  2.0336
16135SOL    HW250338   7.878   3.238   5.991 -0.8463 -1.0356 -1.3352
16136SOL     OW50339   7.699   6.800   2.224  0.3306 -0.1801 -0.1465
16136SOL    HW150340   7.750   6.751   2.289 -1.1804  1.0970  2.1526
16136SOL    HW250341   7.745   6.884   2.217 -0.3739  0.2844  0.5518
16137SOL     OW50342   0.243   1.296   8.184  0.0403  0.6844 -0.0584
16137SOL    HW150343   0.148   1.290   8.187  0.0793 -0.1922 -0.3005
16137SOL    HW250344   0.274   1.216   8.226  0.6692  0.9330 -0.0366
16138SOL     OW50345   1.977   2.392   7.759 -0.1434 -0.4047 -0.2466
16138SOL    HW150346   1.928   2.474   7.766 -1.3240 -1.1744  1.2176
16138SOL    HW250347   2.066   2.415   7.785 -0.1026  0.6792 -1.2528
16139SOL     OW50348   0.279   3.417   0.408 -0.3138 -0.3040 -0.0327
16139SOL    HW150349   0.217   3.435   0.479 -1.7431 -0.7419 -1.1073
16139SOL    HW250350   0.299   3.503   0.371 -0.9057 -0.2090 -0.1527
16140SOL     OW50351   8.003   6.448   1.316 -0.7351  0.0025  0.6247
16140SOL    HW150352   7.944   6.410   1.381 -1.0718 -1.3158 -0.4288
16140SOL    HW250353   8.065   6.378   1.295  0.5054  0.9895  0.8370
16141SOL     OW50354   8.610   1.403   4.776 -0.3260 -0.1620  0.4012
16141SOL    HW150355   8.542   1.444   4.722  0.0353 -0.5834 -0.4022
16141SOL    HW250356   8.561   1.350   4.839 -0.7569 -0.1132  0.1176
16142SOL     OW50357   8.446   5.782   7.352  0.9891 -0.5104 -0.4909
16142SOL    HW150358   8.471   5.765   7.443  0.8804  0.1945 -0.3244
16142SOL    HW250359   8.527   5.766   7.303  0.9975 -1.0863 -0.2991
16143SOL     OW50360   5.937   4.466   6.683 -0.2455  0.0030  0.3679
16143SOL    HW150361   5.886   4.473   6.764  0.6341 -1.6274  1.1254
16143SOL    HW250362   6.009   4.528   6.695 -1.5279  1.7400 -0.3741
16144SOL     OW50363   2.666   7.437   8.462 -0.3931 -0.3368  0.5785
16144SOL    HW150364   2.586   7.421   8.512 -0.5375  1.7023  1.1098
16144SOL    HW250365   2.725   7.366   8.487 -0.7136  0.1818  3.1814
16145SOL     OW50366   6.002   3.131   1.928 -0.0575 -0.4990  0.6365
16145SOL    HW150367   6.025   3.066   1.994 -0.0505 -1.1525  0.0105
16145SOL    HW250368   6.085   3.163   1.894 -0.0445  0.4642  1.5157
16146SOL     OW50369   8.618   7.482   8.435 -0.5350 -0.1122 -0.3043
16146SOL    HW150370   8.668   7.459   8.513 -0.0762 -1.7931 -1.0371
16146SOL    HW250371   8.651   7.568   8.409  2.0010 -1.1242 -0.7172
16147SOL     OW50372   4.099   2.113   7.570  0.0294 -0.1721 -0.2777
16147SOL    HW150373   4.189   2.100   7.538  0.8858  2.2568  0.8849
16147SOL    HW250374   4.054   2.031   7.548  2.5050 -1.4806 -0.9124
16148SOL     OW50375   4.543   0.417   1.615 -0.1693  0.4392 -0.1569
16148SOL    HW150376   4.609   0.463   1.563 -1.3312  0.7830 -1.3933
16148SOL    HW250377   4.461   0.464   1.597 -0.8890 -0.4009  0.7782
16149SOL     OW50378   4.010   2.428   4.357 -0.2095 -0.5654 -0.2340
16149SOL    HW150379   4.101   2.450   4.378 -0.1191 -0.3197 -0.8796
16149SOL    HW250380   3.958   2.491   4.408 -0.0430 -1.0357  0.5411
16150SOL     OW50381   3.711   4.295   5.652 -0.5586 -0.2293  0.0588
16150SOL    HW150382   3.733   4.382   5.618  0.4009  0.5062  2.3593
16150SOL    HW250383   3.771   4.235   5.606 -0.2983  0.4905 -0.5676
16151SOL     OW50384   6.146   5.798   7.628 -0.3994  0.3415  0.2890
16151SOL    HW150385   6.194   5.879   7.646 -1.5867  1.0834  0.1882
16151SOL    HW250386   6.055   5.825   7.616 -0.7834 -0.9798  0.0030
16152SOL     OW50387   5.477   5.229   8.465 -0.1674  0.3048  0.1719
16152SOL    HW150388   5.521   5.292   8.409  1.6793  0.1629  1.3982
16152SOL    HW250389   5.480   5.267   8.552  1.1117 -1.4941  0.9604
16153SOL     OW50390   1.750   8.830   6.628  0.1207 -0.4687 -0.0088
16153SOL    HW150391   1.765   8.802   6.718  1.2753  0.4818  0.1137
16153SOL    HW250392   1.828   8.802   6.580  0.1778  0.3129 -0.3988
16154SOL     OW50393   4.565   8.284   3.359  0.2605  0.4406  0.0034
16154SOL    HW150394   4.553   8.310   3.450 -2.1316  1.1560 -0.4468
16154SOL    HW250395   4.532   8.194   3.356 -1.2454  0.9754 -0.4291
16155SOL     OW50396   2.816   7.167   0.989  0.5147  0.8571  0.1745
16155SOL    HW150397   2.893   7.223   0.977  0.6761  0.1140 -3.0039
16155SOL    HW250398   2.748   7.228   1.019  1.3534  2.2779 -0.6621
16156SOL     OW50399   1.291   2.681   7.314 -0.6532 -0.0661  0.5824
16156SOL    HW150400   1.378   2.692   7.353 -0.1586 -0.1483 -0.4576
16156SOL    HW250401   1.295   2.733   7.234 -1.3515 -0.5867  0.2039
16157SOL     OW50402   0.152   2.319   7.956 -0.3507 -0.2155  0.1881
16157SOL    HW150403   0.217   2.382   7.988  1.3320 -0.4647 -2.3966
16157SOL    HW250404   0.198   2.234   7.960 -0.6081 -0.4555 -1.3062
16158SOL     OW50405   8.841   8.277   6.080 -0.4015 -0.0806 -0.0432
16158SOL    HW150406   8.790   8.353   6.053 -0.0227 -0.4920 -2.0363
16158SOL    HW250407   8.785   8.202   6.058  0.4809 -0.4801 -0.9821
16159SOL     OW50408   0.230   7.391   3.234 -0.3845  0.3903 -0.4815
16159SOL    HW150409   0.325   7.388   3.250 -0.4998 -0.7433  0.1245
16159SOL    HW250410   0.222   7.405   3.140  0.4249 -0.9199 -0.7755
16160SOL     OW50411   4.383   1.181   6.826 -0.4218 -0.4427  0.2238
16160SOL    HW150412   4.455   1.233   6.793  0.6661 -0.8672  1.8446
16160SOL    HW250413   4.306   1.238   6.818  0.4946  0.8985  0.6529
16161SOL     OW50414   5.996   0.348   1.528 -0.5084 -0.5216  0.1554
16161SOL    HW150415   5.914   0.395   1.514 -0.8208 -1.2125 -0.3845
16161SOL    HW250416   6.005   0.344   1.623 -0.7789  0.0933  0.2166
16162SOL     OW50417   1.879   1.974   3.886 -0.5701 -0.3906  0.3278
16162SOL    HW150418   1.926   2.057   3.880 -0.7423 -0.0525  2.7476
16162SOL    HW250419   1.790   1.999   3.911 -0.6873 -1.2757  0.8574
16163SOL     OW50420   3.099   7.579   2.017  0.3219 -0.1711  0.2125
16163SOL    HW150421   3.142   7.496   1.995  0.7272 -0.6204  2.4432
16163SOL    HW250422   3.010   7.554   2.041  0.1694  0.1752  0.0150
16164SOL     OW50423   2.277   5.546   3.623 -0.7696 -0.0826 -0.6301
16164SOL    HW150424   2.316   5.462   3.649 -0.1263  0.9553  2.1813
16164SOL    HW250425   2.352   5.604   3.610 -1.1455  1.3012  2.4646
16165SOL     OW50426   8.474   2.382   0.510  0.6874 -0.6335 -0.5446
16165SOL    HW150427   8.526   2.302   0.508  1.3942 -0.1889 -0.2939
16165SOL    HW250428   8.519   2.439   0.572 -1.3330 -1.0741  1.4894
16166SOL     OW50429   4.173   4.684   7.900 -0.1744  0.2511  0.1978
16166SOL    HW150430   4.142   4.725   7.981  0.1604 -0.7153  0.8313
16166SOL    HW250431   4.264   4.659   7.918 -0.0633  0.1151 -0.5097
16167SOL     OW50432   6.461   6.177   3.938 -0.3682 -0.0099  0.2628
16167SOL    HW150433   6.544   6.151   3.899 -1.5761 -0.3902 -2.3109
16167SOL    HW250434   6.404   6.195   3.863 -2.4120  0.9121  1.9217
16168SOL     OW50435   2.652   3.155   8.156 -0.2312  0.0763  0.3370
16168SOL    HW150436   2.715   3.110   8.101 -0.3213  0.2767  0.0665
16168SOL    HW250437   2.678   3.247   8.153 -1.1665  0.3239 -0.6545
16169SOL     OW50438   7.148   2.193   2.629  0.4209 -0.5792  0.2233
16169SOL    HW150439   7.239   2.164   2.636  0.9620  0.6423 -1.3747
16169SOL    HW250440   7.098   2.112   2.617  1.5470 -1.1292 -0.9840
16170SOL     OW50441   4.973   3.964   2.198  0.3595  0.1472  0.4060
16170SOL    HW150442   4.949   3.909   2.123 -0.7163 -0.1551  0.9558
16170SOL    HW250443   5.059   4.000   2.175 -0.3048  0.7277 -1.3601
16171SOL     OW50444   4.656   6.433   7.901 -0.3952  0.1243  0.4551
16171SOL    HW150445   4.692   6.345   7.908  0.0590  0.4161  2.3973
16171SOL    HW250446   4.695   6.469   7.821 -1.4894 -1.7805 -1.0166
16172SOL     OW50447   1.604   3.342   5.824 -0.1542  0.2078  0.3051
16172SOL    HW150448   1.630   3.311   5.737 -0.8497  0.2395  0.0815
16172SOL    HW250449   1.651   3.285   5.885  0.6285  0.4199 -0.0840
16173SOL     OW50450   3.011   7.966   7.060  0.0589 -0.0005 -0.1445
16173SOL    HW150451   3.027   8.058   7.038  3.7666 -0.7879 -1.3676
16173SOL    HW250452   2.931   7.968   7.113 -2.2878  3.4472 -3.3053
16174SOL     OW50453   7.655   0.697   7.661 -0.2128 -0.0945 -1.0544
16174SOL    HW150454   7.611   0.640   7.724 -0.9472  2.0993  0.5334
16174SOL    HW250455   7.747   0.670   7.665  0.1666  1.1541  2.5083
16175SOL     OW50456   6.733   8.205   0.632  0.0496 -0.4306 -0.0175
16175SOL    HW150457   6.769   8.116   0.629  0.3481 -0.3541  0.8447
16175SOL    HW250458   6.757   8.244   0.548  1.3187 -0.6511  0.2194
16176SOL     OW50459   3.674   7.159   6.726  0.1632 -0.5504  0.3155
16176SOL    HW150460   3.596   7.189   6.772  0.3560  2.4613 -1.0919
16176SOL    HW250461   3.644   7.138   6.638  0.8709  0.4930 -0.1982
16177SOL     OW50462   6.233   3.457   2.175 -0.3700  0.1814 -0.3424
16177SOL    HW150463   6.253   3.366   2.198 -3.6262 -0.9865 -1.5946
16177SOL    HW250464   6.262   3.466   2.085  0.3603  0.5963 -0.0816
16178SOL     OW50465   6.627   0.710   5.343  0.0412 -0.4816 -0.1622
16178SOL    HW150466   6.589   0.738   5.426  1.1720 -0.8318  0.5029
16178SOL    HW250467   6.708   0.664   5.368  0.9243  0.2681 -1.5074
16179SOL     OW50468   7.854   8.297   1.785 -0.1665 -0.1433 -0.0379
16179SOL    HW150469   7.859   8.348   1.704  0.0762  0.2393  0.2192
16179SOL    HW250470   7.780   8.237   1.771 -0.1007 -0.1066 -0.5577
16180SOL     OW50471   6.011   4.599   1.864  0.3698  0.6523 -0.1736
16180SOL    HW150472   5.924   4.584   1.902  0.5203  1.2712  0.4411
16180SOL    HW250473   6.056   4.516   1.876 -0.2322  0.2328 -0.7595
16181SOL     OW50474   0.430   4.783   4.261 -0.5074  0.1700 -0.2007
16181SOL    HW150475   0.448   4.873   4.287 -2.2094 -0.0248  1.9508
16181SOL    HW250476   0.506   4.757   4.210  1.0691  2.0933  1.0277
16182SOL     OW50477   5.502   5.764   5.829 -0.8056  0.0139 -0.1349
16182SOL    HW150478   5.545   5.834   5.779 -1.7663  1.2941  0.7599
16182SOL    HW250479   5.563   5.690   5.824 -0.1096  0.6597 -1.7385
16183SOL     OW50480   4.281   7.781   3.816  0.3630  0.4673 -0.0097
16183SOL    HW150481   4.186   7.785   3.816  0.2835  0.5745  2.5798
16183SOL    HW250482   4.301   7.687   3.818  0.4135  0.3870 -2.2536
16184SOL     OW50483   6.822   8.681   0.168  0.1812 -0.2437 -0.4739
16184SOL    HW150484   6.858   8.665   0.081 -0.8282  0.7161 -1.0950
16184SOL    HW250485   6.751   8.617   0.178 -0.8138  0.7331 -1.0706
16185SOL     OW50486   5.696   8.204   0.892 -0.2996  0.0541  0.0428
16185SOL    HW150487   5.664   8.257   0.964  0.4267 -0.3779  0.6993
16185SOL    HW250488   5.623   8.145   0.871 -1.7475  2.3097 -1.7869
16186SOL     OW50489   2.039   2.128   4.137 -0.0672 -0.3929  0.0533
16186SOL    HW150490   2.024   2.170   4.053 -0.7199  2.6980  1.5976
16186SOL    HW250491   2.126   2.158   4.164 -0.9117  0.7643  1.6008
16187SOL     OW50492   0.924   2.890   3.969  0.6815  0.2262  0.5400
16187SOL    HW150493   1.000   2.851   3.927  0.6406  0.9227 -0.1957
16187SOL    HW250494   0.849   2.840   3.934  0.6323  0.9201 -0.3644
16188SOL     OW50495   3.408   8.595   1.972  0.4309  0.0046  0.0254
16188SOL    HW150496   3.375   8.685   1.975 -0.6082 -0.3659  0.0583
16188SOL    HW250497   3.503   8.605   1.964  0.2461  1.1119 -1.2103
16189SOL     OW50498   4.772   8.746   4.220 -0.3592  0.1089 -0.4056
16189SOL    HW150499   4.726   8.738   4.303 -0.0106 -1.8126 -0.3670
16189SOL    HW250500   4.860   8.776   4.245 -0.2759 -0.3907 -0.0957
16190SOL     OW50501   8.513   1.764   8.373  0.1703  0.3219 -0.1416
16190SOL    HW150502   8.538   1.807   8.454 -0.5346 -2.0788  1.4586
16190SOL    HW250503   8.434   1.809   8.344 -0.8346 -0.1601  1.7355
16191SOL     OW50504   5.431   3.811   8.853 -0.9623 -0.4022 -0.6023
16191SOL    HW150505   5.349   3.861   8.856 -0.5792  0.2013  0.5390
16191SOL    HW250506   5.407   3.724   8.884 -0.9055  0.2338  1.4095
16192SOL     OW50507   5.284   1.726   1.501 -0.2100 -0.6363  0.0117
16192SOL    HW150508   5.352   1.758   1.442 -1.6399 -2.0361 -2.5607
16192SOL    HW250509   5.211   1.788   1.491  0.3594  0.5324  2.3133
16193SOL     OW50510   1.202   3.729   5.198 -0.1358  0.4276 -0.7415
16193SOL    HW150511   1.223   3.656   5.139 -0.4190 -0.1174 -0.1775
16193SOL    HW250512   1.264   3.719   5.270 -0.6719  0.3037 -0.2989
16194SOL     OW50513   0.057   7.318   4.011  0.1531 -0.3710 -0.5675
16194SOL    HW150514  -0.017   7.285   3.961  0.2520 -0.3465 -0.7316
16194SOL    HW250515   0.066   7.409   3.982 -1.3639  0.4512  1.3097
16195SOL     OW50516   8.422   3.174   7.549 -0.6763 -0.5646 -0.0416
16195SOL    HW150517   8.509   3.139   7.568  0.5064  1.3011 -1.6369
16195SOL    HW250518   8.362   3.118   7.599  1.4619 -1.5165  1.6143
16196SOL     OW50519   0.699   6.434   0.072  0.3922  0.0506 -0.4612
16196SOL    HW150520   0.704   6.521   0.111  1.2400 -0.0764 -0.2541
16196SOL    HW250521   0.754   6.380   0.129  0.9967 -0.3087 -1.3693
16197SOL     OW50522   5.493   6.361   6.872  0.5067  0.1861 -0.0796
16197SOL    HW150523   5.574   6.356   6.922  0.0867  1.2420  0.7352
16197SOL    HW250524   5.424   6.334   6.933  0.2356 -0.8227 -0.8022
16198SOL     OW50525   5.927   5.862   5.921  0.3377 -0.0189 -0.1775
16198SOL    HW150526   5.988   5.908   5.979  0.3308 -1.4660  1.0245
16198SOL    HW250527   5.975   5.851   5.840  1.2678 -0.1268  0.3737
16199SOL     OW50528   6.559   6.931   7.313 -0.0274  0.0055  0.0841
16199SOL    HW150529   6.532   6.988   7.386  0.6094 -0.2869  0.5565
16199SOL    HW250530   6.486   6.869   7.304 -0.6914  0.8365 -0.3855
16200SOL     OW50531   4.550   3.840   5.674  0.7705 -0.5731  0.5401
16200SOL    HW150532   4.558   3.771   5.739 -1.6932  0.9025  2.5873
16200SOL    HW250533   4.601   3.912   5.709  1.7882 -0.6932 -0.6466
16201SOL     OW50534   2.838   7.000   5.711  0.0951 -0.3906 -0.8721
16201SOL    HW150535   2.819   7.082   5.756  0.4473 -1.1949  0.8473
16201SOL    HW250536   2.928   7.008   5.682  0.3102 -0.3513 -0.2219
16202SOL     OW50537   5.994   0.432   0.532  0.2748  0.1102 -0.1634
16202SOL    HW150538   6.061   0.388   0.480  0.0383  0.5554 -0.8567
16202SOL    HW250539   5.976   0.513   0.484  0.0717  0.5437  0.6289
16203SOL     OW50540   8.028   5.977   4.319 -0.0344  0.5115 -0.0794
16203SOL    HW150541   7.979   5.901   4.350 -1.7263  2.3571  2.2545
16203SOL    HW250542   8.117   5.945   4.304 -0.2376 -1.5974  2.5131
16204SOL     OW50543   0.038   8.839   0.272  0.1469  0.2919  0.7318
16204SOL    HW150544   0.014   8.908   0.210 -1.1298 -0.7976 -0.0378
16204SOL    HW250545   0.126   8.813   0.246 -0.2988 -0.0093 -0.5106
16205SOL     OW50546   8.224   1.030   5.669  0.2913  0.3747 -0.1889
16205SOL    HW150547   8.174   1.110   5.651 -0.0230  0.8058  2.2401
16205SOL    HW250548   8.236   0.990   5.583  0.5748  3.0793 -1.5279
16206SOL     OW50549   0.005   8.540   7.413 -0.1777 -0.5011  0.4398
16206SOL    HW150550   0.065   8.603   7.454  0.6106 -0.0577 -1.3158
16206SOL    HW250551   0.009   8.463   7.470  1.9181 -0.4057  0.5127
16207SOL     OW50552   2.638   0.825   0.421  0.5161 -0.1205 -0.1526
16207SOL    HW150553   2.570   0.866   0.473  0.4172 -0.4604 -0.0125
16207SOL    HW250554   2.673   0.755   0.477 -1.1310 -2.0143 -1.3360
16208SOL     OW50555   0.419   3.620   1.498  0.5895  0.2339  0.2665
16208SOL    HW150556   0.470   3.558   1.551  0.5911  0.0731  0.0791
16208SOL    HW250557   0.428   3.704   1.544 -1.3053 -0.3441  1.8202
16209SOL     OW50558   4.234   6.223   6.969  0.1320  0.0174 -0.3438
16209SOL    HW150559   4.260   6.314   6.957  1.4945 -0.5777 -2.6245
16209SOL    HW250560   4.140   6.221   6.951  0.2102  0.8855 -0.8628
16210SOL     OW50561   3.659   7.630   1.333 -0.3572 -0.1028  0.4884
16210SOL    HW150562   3.650   7.561   1.266  2.2643  0.1646 -0.2692
16210SOL    HW250563   3.571   7.667   1.340 -1.1591 -1.4110 -1.4190
16211SOL     OW50564   0.152   3.341   2.445 -0.0216  0.0274 -0.2216
16211SOL    HW150565   0.057   3.333   2.456 -0.0108  1.2721  1.0281
16211SOL    HW250566   0.174   3.425   2.487  1.4384  0.4399 -1.7008
16212SOL     OW50567   1.150   1.405   7.294  0.3473 -0.1585  0.5106
16212SOL    HW150568   1.137   1.491   7.334 -1.2027  0.5527 -1.3161
16212SOL    HW250569   1.086   1.349   7.337 -2.1307  0.8778 -1.5124
16213SOL     OW50570   4.162   7.299   4.844 -0.2957 -0.0964  0.0402
16213SOL    HW150571   4.152   7.394   4.844 -0.7173 -0.1387  0.8191
16213SOL    HW250572   4.094   7.266   4.903 -0.2145 -0.8904 -0.2856
16214SOL     OW50573   7.601   0.220   0.591 -0.0254  0.0566  0.6080
16214SOL    HW150574   7.657   0.143   0.592 -1.2802 -0.8862  0.8844
16214SOL    HW250575   7.661   0.294   0.597  1.3286 -0.8161 -1.1959
16215SOL     OW50576   6.383   5.657   6.978 -0.2655 -0.4579 -0.4292
16215SOL    HW150577   6.414   5.699   7.058  0.8092  0.1759 -1.1513
16215SOL    HW250578   6.294   5.690   6.966 -0.0410  0.2952 -0.0760
16216SOL     OW50579   1.722   2.443   5.715 -0.2448  0.6018 -0.2316
16216SOL    HW150580   1.769   2.449   5.799  1.7264  2.2577 -1.3607
16216SOL    HW250581   1.702   2.350   5.706  1.8595 -0.0343  0.9044
16217SOL     OW50582   1.573   2.323   5.050 -0.3967  0.6578 -0.2170
16217SOL    HW150583   1.612   2.383   4.986 -0.5615  0.3035 -0.6598
16217SOL    HW250584   1.585   2.236   5.011 -1.4525  0.5258 -0.2717
16218SOL     OW50585   8.807   7.647   1.941 -0.1322  0.0366 -0.0683
16218SOL    HW150586   8.868   7.629   2.013 -1.7589 -2.5684  0.7996
16218SOL    HW250587   8.781   7.738   1.954  1.9029  0.5561  0.7867
16219SOL     OW50588   0.658   8.747   3.677  0.5105 -0.1629  0.1868
16219SOL    HW150589   0.658   8.675   3.741  0.1610  0.5986  1.0580
16219SOL    HW250590   0.695   8.822   3.725 -1.7720  1.0154  0.2163
16220SOL     OW50591   3.967   7.855   6.741  0.0686 -0.1797  0.0360
16220SOL    HW150592   3.961   7.854   6.837 -1.3960 -1.0792 -0.0379
16220SOL    HW250593   3.877   7.848   6.711  0.5712 -0.8777 -1.4114
16221SOL     OW50594   8.034   2.649   5.381 -0.5518 -0.4263  0.0822
16221SOL    HW150595   7.966   2.633   5.446  0.0507  0.4023  0.9500
16221SOL    HW250596   8.116   2.628   5.427 -0.1350 -0.0497 -0.4821
16222SOL     OW50597   4.275   2.816   5.265  0.1749  0.3017  0.2903
16222SOL    HW150598   4.282   2.741   5.207 -0.4822  0.0515  0.5249
16222SOL    HW250599   4.194   2.801   5.314  0.4579  0.7522  0.9150
16223SOL     OW50600   2.797   8.697   0.225  0.1267  0.1040  0.2379
16223SOL    HW150601   2.777   8.606   0.249 -0.5024  0.4607  1.1374
16223SOL    HW250602   2.803   8.696   0.130  2.1700 -1.2788  0.3106
16224SOL     OW50603   1.105   3.679   6.888 -0.4695 -0.1574 -0.0414
16224SOL    HW150604   1.092   3.755   6.945  0.3149  0.9311 -1.2450
16224SOL    HW250605   1.043   3.692   6.817 -0.4210 -0.7220 -0.1898
16225SOL     OW50606   7.966   8.586   5.381  0.1323 -0.1455  0.6368
16225SOL    HW150607   7.942   8.664   5.332  0.4609 -0.5616 -0.2041
16225SOL    HW250608   7.887   8.532   5.381  1.3689 -2.4933 -3.9728
16226SOL     OW50609   8.105   2.643   7.446  0.2885 -0.3970 -0.0937
16226SOL    HW150610   8.165   2.602   7.508  0.4455 -1.6510 -1.0446
16226SOL    HW250611   8.057   2.571   7.407 -0.3765  0.4332 -0.8624
16227SOL     OW50612   0.549   0.159   5.898  0.7455  0.1804  0.2797
16227SOL    HW150613   0.569   0.210   5.976 -2.2373  0.5621  0.9265
16227SOL    HW250614   0.605   0.082   5.904  2.1043  1.2230  1.6422
16228SOL     OW50615   0.795   1.550   6.835 -0.6205 -0.1510 -0.3762
16228SOL    HW150616   0.875   1.537   6.783 -1.0754 -2.9538 -0.5642
16228SOL    HW250617   0.817   1.515   6.921 -1.2693  0.2197 -0.0532
16229SOL     OW50618   1.327   7.990   3.499 -0.1384  0.7996 -0.3180
16229SOL    HW150619   1.255   8.023   3.553 -0.0178  0.7107 -0.1015
16229SOL    HW250620   1.371   8.069   3.467  1.1942  0.9073  1.5842
16230SOL     OW50621   4.130   4.158   5.732 -0.6668  0.1538  0.0629
16230SOL    HW150622   4.089   4.174   5.816  0.5018 -1.3327  0.9700
16230SOL    HW250623   4.076   4.090   5.691 -0.6203  0.0813  0.1194
16231SOL     OW50624   5.328   5.567   4.840  0.6130 -0.2368 -1.0344
16231SOL    HW150625   5.351   5.554   4.932  0.3471  0.2532 -0.8971
16231SOL    HW250626   5.408   5.545   4.792  1.0683  0.4956 -0.6212
16232SOL     OW50627   2.265   8.498   5.102 -0.1652  0.2747 -0.1672
16232SOL    HW150628   2.221   8.547   5.032  4.0313  3.0445 -1.2445
16232SOL    HW250629   2.339   8.455   5.059 -0.3887 -2.3912  1.8296
16233SOL     OW50630   2.400   0.147   7.532  0.2899 -0.4484  1.0719
16233SOL    HW150631   2.455   0.197   7.472 -0.9167  0.1782  0.4605
16233SOL    HW250632   2.374   0.070   7.482 -1.6352  0.6199  0.3325
16234SOL     OW50633   7.550   1.492   5.320 -0.1452  0.3136  0.2965
16234SOL    HW150634   7.542   1.516   5.228 -0.4557  0.0909  0.2596
16234SOL    HW250635   7.465   1.516   5.358 -0.4269 -0.6064  0.2781
16235SOL     OW50636   5.949   6.497   5.240 -0.2001  0.0454 -0.5760
16235SOL    HW150637   5.949   6.407   5.274 -0.7443 -0.0653 -0.8440
16235SOL    HW250638   5.971   6.551   5.316 -1.0092 -0.2265 -0.1318
16236SOL     OW50639   4.385   3.479   7.065  0.5449  0.1875  0.0600
16236SOL    HW150640   4.304   3.476   7.116 -0.4359 -1.6851 -1.4662
16236SOL    HW250641   4.355   3.490   6.975  2.0371  0.1284 -0.4566
16237SOL     OW50642   6.435   6.958   4.170 -0.2449 -0.0131  0.3630
16237SOL    HW150643   6.424   6.989   4.260  2.5193  0.4242  0.6349
16237SOL    HW250644   6.434   7.037   4.117 -1.9625 -0.2786 -0.0352
16238SOL     OW50645   8.395   2.767   0.119 -0.1543  0.4300  0.4977
16238SOL    HW150646   8.437   2.698   0.171 -2.6819  0.5347  2.8546
16238SOL    HW250647   8.367   2.832   0.183 -3.6425  0.4623 -0.8726
16239SOL     OW50648   2.513   5.349   5.650 -0.1348 -0.4525  0.1933
16239SOL    HW150649   2.428   5.333   5.691  0.0595 -0.3615  0.6374
16239SOL    HW250650   2.497   5.420   5.588 -0.4163 -0.5437  0.1610
16240SOL     OW50651   5.574   4.808   1.168  0.4477  0.7925  0.0103
16240SOL    HW150652   5.541   4.860   1.095 -0.2031 -0.6848 -0.7870
16240SOL    HW250653   5.506   4.816   1.236  0.1804  0.6771 -0.2443
16241SOL     OW50654   0.264   1.258   3.444 -0.4858  0.0596 -0.5180
16241SOL    HW150655   0.269   1.205   3.365  1.9003 -0.0439 -0.3825
16241SOL    HW250656   0.197   1.217   3.498  0.4940 -2.1458 -0.9020
16242SOL     OW50657   2.311   8.371   6.680 -0.2155  0.1949  0.2357
16242SOL    HW150658   2.318   8.337   6.591 -0.2979  1.3732 -0.2465
16242SOL    HW250659   2.293   8.465   6.668 -0.8453  0.2557  1.4894
16243SOL     OW50660   5.878   6.829   5.547 -0.5615 -0.4029  0.3849
16243SOL    HW150661   5.914   6.917   5.534  0.9504 -0.7583  1.8439
16243SOL    HW250662   5.856   6.825   5.640 -2.1040 -1.0713  0.0291
16244SOL     OW50663   2.588   8.632   5.103 -0.3832  0.7443 -0.1648
16244SOL    HW150664   2.568   8.703   5.163 -0.8962 -0.2984  0.9388
16244SOL    HW250665   2.539   8.653   5.023 -0.9498  1.3554  0.3337
16245SOL     OW50666   0.883   8.046   5.310 -0.7318  0.3725  0.6709
16245SOL    HW150667   0.846   7.965   5.345  0.0138  0.4189  1.6026
16245SOL    HW250668   0.960   8.063   5.365  0.6539  0.3025 -1.1651
16246SOL     OW50669   8.585   8.731   7.091 -0.2934  0.2207  0.3368
16246SOL    HW150670   8.607   8.719   7.184 -0.5375  2.4804  0.7428
16246SOL    HW250671   8.653   8.789   7.057 -0.5060 -0.1545 -0.7612
16247SOL     OW50672   5.029   3.074   2.328  0.0813  0.5153  0.6629
16247SOL    HW150673   4.942   3.039   2.347  0.0113  1.1292  1.5633
16247SOL    HW250674   5.020   3.116   2.243 -0.4980  0.5483  0.7349
16248SOL     OW50675   4.054   1.588   6.650 -0.8766 -0.4513 -0.6855
16248SOL    HW150676   4.092   1.664   6.693 -0.5661 -1.1208  0.2500
16248SOL    HW250677   3.967   1.579   6.689 -1.7644  0.6419 -2.2986
16249SOL     OW50678   6.531   6.800   5.699 -0.1317 -0.0199  0.6426
16249SOL    HW150679   6.577   6.859   5.640 -0.6924  0.1454  0.3653
16249SOL    HW250680   6.597   6.774   5.764  0.8033 -1.0775 -0.6800
16250SOL     OW50681   1.983   6.107   3.883  0.1296  0.1928 -0.3619
16250SOL    HW150682   1.896   6.105   3.922  0.0301 -1.9232 -0.5678
16250SOL    HW250683   1.984   6.033   3.822  2.1091  0.0405 -0.2154
16251SOL     OW50684   2.538   4.775   0.216  0.5859 -0.0667 -0.2185
16251SOL    HW150685   2.628   4.784   0.247  0.9019 -0.0129 -1.1391
16251SOL    HW250686   2.545   4.773   0.121 -0.5196  1.6062 -0.3760
16252SOL     OW50687   7.730   5.674   8.512  0.6591  0.2899  0.0309
16252SOL    HW150688   7.728   5.616   8.588  0.5408 -0.8170 -0.7976
16252SOL    HW250689   7.764   5.620   8.440  1.5180  1.5209 -0.5437
16253SOL     OW50690   5.641   8.449   6.438  0.0291  0.2659 -0.2782
16253SOL    HW150691   5.669   8.504   6.365  1.4176  1.4495  1.0933
16253SOL    HW250692   5.629   8.509   6.511  1.6562 -1.2238  1.2981
16254SOL     OW50693   4.170   5.950   2.080 -0.1164 -0.0181 -0.4960
16254SOL    HW150694   4.200   6.039   2.096 -1.1485  0.2761 -0.0804
16254SOL    HW250695   4.139   5.951   1.989  0.9557 -0.2806 -0.8729
16255SOL     OW50696   4.439   6.175   5.735  0.3646 -0.2527  0.0171
16255SOL    HW150697   4.473   6.139   5.653  1.5496 -1.8076  1.1429
16255SOL    HW250698   4.345   6.159   5.732  0.3126  0.1900 -1.2492
16256SOL     OW50699   0.871   1.101   1.300 -0.4547 -0.0823  0.1911
16256SOL    HW150700   0.965   1.083   1.295 -0.0723  1.9691 -2.1278
16256SOL    HW250701   0.857   1.168   1.233 -3.5650 -0.2239  0.5939
16257SOL     OW50702   3.733   3.476   2.502 -0.2395 -1.0617  0.3041
16257SOL    HW150703   3.775   3.531   2.568 -1.2342  0.3573 -0.1935
16257SOL    HW250704   3.803   3.419   2.470  1.5342  1.5842 -0.9065
16258SOL     OW50705   0.730   3.566   4.082 -0.3944 -0.0260 -0.4248
16258SOL    HW150706   0.647   3.557   4.129 -0.6658  1.0803 -0.6736
16258SOL    HW250707   0.747   3.660   4.081 -0.4403  0.0028 -2.5994
16259SOL     OW50708   6.705   6.684   5.869  0.8789 -0.0973 -0.0055
16259SOL    HW150709   6.792   6.650   5.848  1.3590  0.9154  0.2523
16259SOL    HW250710   6.694   6.667   5.963  1.5206  1.2398  0.3427
16260SOL     OW50711   6.018   2.173   6.011 -0.4362 -0.5218  0.1289
16260SOL    HW150712   5.982   2.200   6.095  0.6540 -1.8153  1.0764
16260SOL    HW250713   5.948   2.123   5.969 -1.0508  0.2901  0.1790
16261SOL     OW50714   5.027   7.514   4.110 -0.2277 -0.2137  0.4675
16261SOL    HW150715   5.008   7.466   4.191  1.3518 -0.0352  0.9848
16261SOL    HW250716   5.007   7.605   4.131 -0.4994 -0.2649  0.4280
16262SOL     OW50717   6.809   0.634   4.903  0.2149  0.1466  0.2772
16262SOL    HW150718   6.845   0.664   4.986 -0.6150 -1.2335  1.1877
16262SOL    HW250719   6.750   0.704   4.876  2.1010  1.5880 -0.2932
16263SOL     OW50720   8.505   5.784   2.213  0.0288  0.0677 -0.2227
16263SOL    HW150721   8.460   5.733   2.146 -0.3354  1.3111 -0.9595
16263SOL    HW250722   8.560   5.846   2.164 -0.0080  0.7935  0.6167
16264SOL     OW50723   4.894   5.982   2.571  0.2622  0.3826 -0.0638
16264SOL    HW150724   4.922   5.907   2.624  1.1091  0.8577  0.1891
16264SOL    HW250725   4.863   5.944   2.489  0.1011 -0.2811  0.2979
16265SOL     OW50726   5.994   5.396   1.164 -0.1841 -0.3853  0.3109
16265SOL    HW150727   5.986   5.436   1.077 -0.3480  0.6758  0.7974
16265SOL    HW250728   6.065   5.444   1.206  0.5482 -1.5454  0.4334
16266SOL     OW50729   3.735   1.918   3.714 -0.0165 -0.6501 -0.2956
16266SOL    HW150730   3.757   2.008   3.741  0.7101  0.1593 -3.1867
16266SOL    HW250731   3.819   1.877   3.696 -0.3733 -1.7630  0.4667
16267SOL     OW50732   6.179   6.122   5.771  0.3041 -0.0746  0.2237
16267SOL    HW150733   6.257   6.141   5.824  0.3399 -1.2656  0.6398
16267SOL    HW250734   6.178   6.026   5.764 -1.0637 -0.0699  0.1241
16268SOL     OW50735   0.200   0.633   7.415 -0.2900 -0.4382 -0.2224
16268SOL    HW150736   0.293   0.611   7.411  0.0707  0.5594  1.6817
16268SOL    HW250737   0.193   0.697   7.486 -2.2339  0.5696 -1.2364
16269SOL     OW50738   1.514   3.909   6.093  0.0359 -0.1189 -0.4542
16269SOL    HW150739   1.436   3.853   6.084 -0.4235  0.6439 -1.4849
16269SOL    HW250740   1.560   3.898   6.009  0.3627  0.4438 -0.3490
16270SOL     OW50741   3.075   3.754   2.222  0.3462 -0.1307  0.0528
16270SOL    HW150742   3.037   3.807   2.291  0.8068 -0.9370  0.9412
16270SOL    HW250743   3.037   3.790   2.141  0.2028  1.1527  0.6624
16271SOL     OW50744   6.667   0.255   7.063  0.2961  0.2635  0.2037
16271SOL    HW150745   6.619   0.300   7.133  1.1904  1.0324  0.3590
16271SOL    HW250746   6.738   0.316   7.040  0.8919 -0.6109 -0.3573
16272SOL     OW50747   7.730   2.075   7.663  0.1512 -0.3774 -0.1113
16272SOL    HW150748   7.810   2.025   7.676  0.4571  0.5405  1.8885
16272SOL    HW250749   7.661   2.019   7.700  0.3636  0.1955  1.2274
16273SOL     OW50750   4.089   8.357   4.843 -0.0900  0.0901 -0.0509
16273SOL    HW150751   4.029   8.327   4.912  1.5143 -1.5491  0.7347
16273SOL    HW250752   4.173   8.318   4.867  0.7770  0.4007 -2.3561
16274SOL     OW50753   3.514   1.295   0.350  0.4912 -0.1790 -0.0814
16274SOL    HW150754   3.477   1.256   0.429 -0.0961 -0.3899 -0.4578
16274SOL    HW250755   3.497   1.231   0.281 -1.2842  1.0859 -0.8975
16275SOL     OW50756   2.962   6.901   5.299  0.2690 -0.6672  0.0296
16275SOL    HW150757   2.973   6.973   5.362 -2.2236 -1.1306  1.0951
16275SOL    HW250758   3.038   6.845   5.314 -0.6003 -1.2142  3.3703
16276SOL     OW50759   3.452   6.897   1.147 -0.6121 -0.1860  0.7222
16276SOL    HW150760   3.390   6.887   1.220 -1.4922  1.0731  0.1798
16276SOL    HW250761   3.398   6.922   1.073  0.3304 -1.0623 -0.2910
16277SOL     OW50762   3.923   1.476   1.633 -0.2196 -0.0365 -0.1840
16277SOL    HW150763   3.898   1.385   1.618 -0.9311  0.2052 -0.5014
16277SOL    HW250764   3.880   1.499   1.716 -0.7573  0.2710 -0.5458
16278SOL     OW50765   8.293   7.980   5.133  0.4120  0.0752  0.0742
16278SOL    HW150766   8.353   8.038   5.086 -0.0185  0.9866  0.6144
16278SOL    HW250767   8.214   8.033   5.146  0.8686  0.2413  2.7187
16279SOL     OW50768   8.510   1.824   1.500 -0.5574  0.3425  0.2455
16279SOL    HW150769   8.428   1.788   1.533  0.6379 -0.9032  2.0162
16279SOL    HW250770   8.572   1.752   1.505  0.3274  0.7671 -2.6078
16280SOL     OW50771   0.193   3.245   1.045  0.4303 -0.5664  0.2070
16280SOL    HW150772   0.112   3.210   1.081  0.1893 -1.2162 -0.9321
16280SOL    HW250773   0.249   3.258   1.122 -0.5819 -0.5120  0.9615
16281SOL     OW50774   7.223   2.342   2.853  0.0829 -0.0592 -0.6129
16281SOL    HW150775   7.160   2.315   2.786  0.4171  1.7542 -1.7364
16281SOL    HW250776   7.192   2.428   2.883  1.1672  0.1780 -0.0928
16282SOL     OW50777   7.996   0.377   8.528 -0.2275 -0.2201  0.8482
16282SOL    HW150778   8.077   0.426   8.517 -0.5683  0.4403  1.2455
16282SOL    HW250779   7.986   0.369   8.623 -1.6047  1.3513  0.8573
16283SOL     OW50780   7.331   4.810   1.875  0.5214  0.1929 -0.0027
16283SOL    HW150781   7.237   4.788   1.878  0.7995 -1.6477 -2.1289
16283SOL    HW250782   7.337   4.883   1.814  0.4566  0.6540  0.5284
16284SOL     OW50783   6.596   8.810   7.965  0.5093 -0.3372 -0.1340
16284SOL    HW150784   6.624   8.805   8.056  0.1853  0.1457 -0.0051
16284SOL    HW250785   6.525   8.874   7.965  0.6188 -0.2071 -0.7522
16285SOL     OW50786   5.356   7.656   1.918  0.4653  0.3202 -0.5115
16285SOL    HW150787   5.290   7.619   1.977  2.3726  0.9791  2.2006
16285SOL    HW250788   5.414   7.583   1.897  2.5260  0.9362  2.4558
16286SOL     OW50789   7.343   3.810   1.288 -0.1645 -0.4366  0.4874
16286SOL    HW150790   7.352   3.853   1.373  0.9848 -0.8454  0.5891
16286SOL    HW250791   7.428   3.821   1.246 -0.3457 -1.2503 -0.1268
16287SOL     OW50792   3.999   4.646   7.680 -0.4981 -0.0888 -0.7126
16287SOL    HW150793   4.056   4.603   7.616  0.7158 -1.4058  1.1431
16287SOL    HW250794   4.058   4.671   7.752 -1.7861  1.4386 -0.1264
16288SOL     OW50795   6.358   1.690   6.695 -0.1056 -0.3508  0.4982
16288SOL    HW150796   6.377   1.596   6.686 -0.4233 -0.3993  0.3423
16288SOL    HW250797   6.423   1.732   6.639 -1.2317 -0.5861 -1.0442
16289SOL     OW50798   8.630   2.420   1.742  0.2010 -0.5101  0.4043
16289SOL    HW150799   8.669   2.506   1.726  1.3308 -1.0496  0.1810
16289SOL    HW250800   8.629   2.378   1.656  0.7854 -1.1806  0.7254
16290SOL     OW50801   6.462   1.583   3.199 -0.0368  0.1017  0.1814
16290SOL    HW150802   6.531   1.557   3.138 -2.9001 -1.9877 -2.4893
16290SOL    HW250803   6.442   1.503   3.248 -0.3217  0.7788  1.1962
16291SOL     OW50804   2.880   4.710   7.594 -0.1296 -0.3519 -0.1788
16291SOL    HW150805   2.804   4.654   7.614  0.0792 -0.0045  1.7055
16291SOL    HW250806   2.908   4.744   7.679  0.3569  1.8683 -1.1703
16292SOL     OW50807   6.735   0.942   2.616 -0.1442  1.1256  0.1839
16292SOL    HW150808   6.676   0.951   2.691 -0.3129 -1.1237  0.3903
16292SOL    HW250809   6.678   0.928   2.541  0.0694  0.1316  0.1901
16293SOL     OW50810   0.287   0.855   5.092 -0.1725  0.4938 -0.5075
16293SOL    HW150811   0.343   0.787   5.128 -2.1170 -1.1470 -0.4254
16293SOL    HW250812   0.271   0.914   5.166  1.6831  1.2074 -0.6316
16294SOL     OW50813   8.564   0.469   0.574 -0.6346  0.0576  0.1653
16294SOL    HW150814   8.474   0.501   0.585 -0.8284 -0.6121  0.5910
16294SOL    HW250815   8.615   0.548   0.556 -0.8583  0.8433  2.5414
16295SOL     OW50816   0.160   8.476   2.391  0.0512  0.0594  0.1168
16295SOL    HW150817   0.224   8.443   2.328 -0.6455 -1.5419  0.1777
16295SOL    HW250818   0.165   8.414   2.464 -1.9678 -0.5171 -0.1651
16296SOL     OW50819   3.184   2.412   1.596  0.6001 -0.2118  0.2919
16296SOL    HW150820   3.227   2.429   1.679  0.2601 -0.1998  0.4648
16296SOL    HW250821   3.154   2.498   1.566  0.6866 -0.2213  0.1768
16297SOL     OW50822   3.208   6.659   7.932 -0.0203  0.1635 -0.1520
16297SOL    HW150823   3.232   6.650   7.839 -1.2568 -0.3997 -0.4471
16297SOL    HW250824   3.122   6.701   7.930  1.1576  2.7990  0.8737
16298SOL     OW50825   0.143   5.210   4.241  0.2502  0.4120 -0.1243
16298SOL    HW150826   0.208   5.277   4.263  1.7913 -0.6226 -1.3172
16298SOL    HW250827   0.175   5.171   4.160 -2.1567  0.1935 -1.0704
16299SOL     OW50828   1.362   5.446   7.025 -0.1763  0.2589 -0.7176
16299SOL    HW150829   1.274   5.412   7.010 -0.9025  1.6799  0.1851
16299SOL    HW250830   1.363   5.470   7.118  0.8453  1.1498 -0.9394
16300SOL     OW50831   6.173   0.400   7.470  0.3409  0.0858 -0.9524
16300SOL    HW150832   6.202   0.424   7.383 -0.1139 -0.0193 -1.1366
16300SOL    HW250833   6.136   0.480   7.507 -0.5656 -0.1571 -1.3148
16301SOL     OW50834   5.859   2.167   4.971  0.1396  0.5318  0.3249
16301SOL    HW150835   5.882   2.079   5.001 -1.6694  0.1648  0.7213
16301SOL    HW250836   5.764   2.172   4.981  0.3064  2.8985  1.2381
16302SOL     OW50837   4.680   1.804   8.113  0.4323 -0.1010  0.6660
16302SOL    HW150838   4.650   1.750   8.040  1.4827  0.0176  0.1208
16302SOL    HW250839   4.774   1.787   8.118  0.3093 -0.4934  2.3352
16303SOL     OW50840   5.367   7.040   6.095  0.4194 -0.5664  0.0211
16303SOL    HW150841   5.322   7.001   6.019 -0.4298  0.8348 -0.2458
16303SOL    HW250842   5.344   6.984   6.168  1.3657 -2.0286 -0.7585
16304SOL     OW50843   8.738   8.247   3.266 -0.7642  0.1969 -0.5834
16304SOL    HW150844   8.694   8.162   3.267 -1.5160  0.5007  2.3053
16304SOL    HW250845   8.815   8.234   3.210 -2.0051 -1.7203 -1.9462
16305SOL     OW50846   2.130   3.870   0.880  0.4674 -0.1996 -0.1389
16305SOL    HW150847   2.096   3.788   0.915  0.5211 -0.3149 -0.3596
16305SOL    HW250848   2.093   3.937   0.938 -0.8611 -0.2465 -0.8836
16306SOL     OW50849   3.937   5.666   3.527  0.7028 -0.0144 -0.6180
16306SOL    HW150850   3.975   5.666   3.614 -0.6767 -0.1076  0.0075
16306SOL    HW250851   3.940   5.575   3.498 -0.0127 -0.1991 -0.1262
16307SOL     OW50852   7.499   8.441   6.048  0.3425 -0.2541 -0.0730
16307SOL    HW150853   7.415   8.394   6.045  0.5220 -0.5484 -1.3730
16307SOL    HW250854   7.565   8.372   6.039  0.7051  0.0330  0.3556
16308SOL     OW50855   2.785   2.194   8.299  0.3947  0.4770  0.0555
16308SOL    HW150856   2.794   2.155   8.212  0.6156 -2.7519  1.3824
16308SOL    HW250857   2.871   2.184   8.339  0.0821  1.1264  0.9301
16309SOL     OW50858   0.010   0.109   7.366  0.6748  0.3446 -0.2302
16309SOL    HW150859  -0.014   0.169   7.437 -0.6727  0.6738 -0.9464
16309SOL    HW250860   0.003   0.022   7.405  1.9209  0.5869  0.6011
16310SOL     OW50861   4.970   1.931   6.005 -0.0878  0.1466 -0.0299
16310SOL    HW150862   4.888   1.957   5.963 -0.1728  1.4620  0.8817
16310SOL    HW250863   4.995   1.850   5.961 -1.4380  0.1683 -0.8973
16311SOL     OW50864   2.238   1.645   6.931  0.2078 -0.7680  0.1921
16311SOL    HW150865   2.312   1.674   6.983 -0.4388  0.8160  0.2939
16311SOL    HW250866   2.164   1.646   6.992 -0.4159  0.3893 -0.5571
16312SOL     OW50867   1.140   4.577   4.519 -0.4697 -0.1862  0.3779
16312SOL    HW150868   1.056   4.533   4.530 -1.4586  1.2594 -0.8963
16312SOL    HW250869   1.187   4.561   4.600 -2.3193 -0.3200  1.4653
16313SOL     OW50870   5.749   8.131   2.243  0.1188  0.6585 -0.5628
16313SOL    HW150871   5.839   8.134   2.210  0.7245 -1.1604  0.7676
16313SOL    HW250872   5.748   8.058   2.304 -2.6611 -0.3405 -1.6277
16314SOL     OW50873   6.571   3.709   8.344  0.1973 -0.2045 -0.2455
16314SOL    HW150874   6.541   3.743   8.260  0.2609 -0.3459 -0.3276
16314SOL    HW250875   6.502   3.648   8.371  0.0841 -0.0132 -0.1010
16315SOL     OW50876   5.645   6.133   4.388 -0.2075  0.0489 -0.1833
16315SOL    HW150877   5.555   6.118   4.418 -0.4098  1.6226  0.0816
16315SOL    HW250878   5.636   6.195   4.316  0.6615  0.0464 -0.3021
16316SOL     OW50879   1.764   1.113   1.221 -0.1380  0.3369  0.2460
16316SOL    HW150880   1.736   1.179   1.284 -1.8605  0.8836 -0.9918
16316SOL    HW250881   1.827   1.158   1.166 -1.9201  1.3301 -1.1173
16317SOL     OW50882   1.489   0.829   5.265  0.2511 -0.5577 -0.3433
16317SOL    HW150883   1.528   0.757   5.314 -0.2486 -1.6152 -1.4376
16317SOL    HW250884   1.456   0.889   5.332  2.2356 -0.4302  0.6028
16318SOL     OW50885   0.094   1.109   7.545  0.3028  0.2937 -0.4237
16318SOL    HW150886   0.157   1.037   7.543 -0.6220 -0.6610  1.5717
16318SOL    HW250887   0.011   1.068   7.522 -0.0246  0.9888 -0.4987
16319SOL     OW50888   8.386   1.534   4.359  0.4209 -0.1194  0.2779
16319SOL    HW150889   8.406   1.581   4.278  0.7241 -0.4874  0.1421
16319SOL    HW250890   8.305   1.487   4.340  1.1060 -1.1313 -0.1950
16320SOL     OW50891   7.860   3.801   4.986  0.2201 -0.1779  0.0875
16320SOL    HW150892   7.891   3.829   4.900 -1.3375  1.9045  0.1123
16320SOL    HW250893   7.934   3.816   5.044  0.8684 -0.3572 -0.6785
16321SOL     OW50894   1.238   6.837   2.722  0.6700 -0.1840  0.9441
16321SOL    HW150895   1.176   6.909   2.709 -0.0555 -0.6817  1.5473
16321SOL    HW250896   1.188   6.758   2.699  2.5140 -0.3336 -3.5006
16322SOL     OW50897   7.736   8.012   8.620 -0.2853 -0.2799 -0.5922
16322SOL    HW150898   7.810   7.973   8.666 -0.8209  0.3631  0.8777
16322SOL    HW250899   7.745   8.106   8.636 -1.0395 -0.1337 -0.9785
16323SOL     OW50900   6.215   4.074   2.427 -0.2525  0.2919 -0.2511
16323SOL    HW150901   6.297   4.050   2.470 -1.2189  0.7893  2.0272
16323SOL    HW250902   6.211   4.019   2.349  2.3859  0.5095 -0.6046
16324SOL     OW50903   4.017   4.529   2.501 -0.2435 -0.0303  0.3022
16324SOL    HW150904   4.101   4.562   2.531  0.9014 -1.8199 -0.7718
16324SOL    HW250905   4.006   4.446   2.547 -0.5106 -0.7061 -0.9377
16325SOL     OW50906   7.324   7.815   1.686  0.2204 -0.2389 -0.0139
16325SOL    HW150907   7.324   7.723   1.713  0.4810 -0.4047 -0.5771
16325SOL    HW250908   7.411   7.829   1.649  0.5381  0.5031  0.9580
16326SOL     OW50909   5.816   4.691   6.068  0.4660  0.0772 -0.2767
16326SOL    HW150910   5.729   4.695   6.107  0.4163 -0.7405 -0.2707
16326SOL    HW250911   5.805   4.727   5.980 -0.0570 -0.6938 -0.5476
16327SOL     OW50912   2.432   4.367   3.716 -0.9068  0.3578 -0.5868
16327SOL    HW150913   2.443   4.405   3.629  0.7648 -0.6077 -0.8373
16327SOL    HW250914   2.355   4.311   3.709 -1.5581  1.2816 -1.0563
16328SOL     OW50915   3.872   5.428   8.663 -0.0025 -0.1013 -0.0259
16328SOL    HW150916   3.891   5.520   8.645  2.3838 -0.6706 -0.8146
16328SOL    HW250917   3.819   5.399   8.589  0.7239  0.2307 -0.6930
16329SOL     OW50918   7.857   3.587   5.299 -0.4332  0.1837 -0.0378
16329SOL    HW150919   7.799   3.561   5.371 -0.3424 -0.6442 -0.2478
16329SOL    HW250920   7.929   3.633   5.342  0.0933 -1.1012  0.5255
16330SOL     OW50921   5.163   7.817   3.837  0.0357  0.4291  0.1968
16330SOL    HW150922   5.070   7.802   3.853  0.4355 -0.3740  1.9414
16330SOL    HW250923   5.169   7.912   3.824 -1.5290  0.1720 -4.0310
16331SOL     OW50924   0.811   8.191   8.473  0.0418 -0.7209  0.2686
16331SOL    HW150925   0.820   8.256   8.404  2.9398 -0.3373  0.9003
16331SOL    HW250926   0.723   8.206   8.508 -0.7287  0.4022 -1.9543
16332SOL     OW50927   7.232   5.122   4.258  0.0032  0.3337  0.0232
16332SOL    HW150928   7.209   5.153   4.346 -3.0471  0.0237 -0.5621
16332SOL    HW250929   7.281   5.042   4.273 -0.5647  0.2211  1.4626
16333SOL     OW50930   5.585   2.412   0.617 -0.0478 -0.3445 -0.3975
16333SOL    HW150931   5.533   2.451   0.688  0.1376 -1.6791  0.4992
16333SOL    HW250932   5.675   2.413   0.650 -0.0435 -1.5471 -0.3338
16334SOL     OW50933   5.293   3.756   3.088  0.1514  0.1159  0.1528
16334SOL    HW150934   5.324   3.691   3.026 -1.1105 -0.1573 -0.2166
16334SOL    HW250935   5.293   3.838   3.039 -2.1312 -0.3141 -0.7181
16335SOL     OW50936   5.773   8.043   5.939  0.4390 -0.4361 -0.1391
16335SOL    HW150937   5.827   8.044   6.018 -1.5858  0.3103  1.3209
16335SOL    HW250938   5.784   8.130   5.901  0.3215 -0.3098  0.1152
16336SOL     OW50939   8.354   5.765   1.385  0.4620  0.7175 -0.4530
16336SOL    HW150940   8.395   5.686   1.349 -0.2805 -1.0719  2.3252
16336SOL    HW250941   8.261   5.756   1.365  0.2730  0.4717  0.4501
16337SOL     OW50942   3.915   5.228   6.244 -0.0093 -0.7384  0.1508
16337SOL    HW150943   3.993   5.280   6.222 -0.3960 -0.1987  0.0277
16337SOL    HW250944   3.950   5.144   6.273  0.5997 -0.7553 -0.5802
16338SOL     OW50945   2.737   4.249   6.683 -0.1174  0.3810  0.2760
16338SOL    HW150946   2.768   4.178   6.739  0.5748  1.0244  0.7149
16338SOL    HW250947   2.650   4.270   6.717 -1.0438 -1.3341 -0.8704
16339SOL     OW50948   2.774   7.367   6.727 -0.1010 -0.1746  0.2628
16339SOL    HW150949   2.795   7.457   6.754  0.2896 -0.0788 -0.3416
16339SOL    HW250950   2.683   7.371   6.698  0.0005  0.0958 -0.0291
16340SOL     OW50951   4.868   3.110   8.172 -0.3090 -0.3131  0.4775
16340SOL    HW150952   4.843   3.060   8.094  0.5586  1.3312 -0.9243
16340SOL    HW250953   4.958   3.082   8.190  0.0277  0.4205 -0.0508
16341SOL     OW50954   1.384   1.294   4.378  0.1728 -1.1912 -0.0117
16341SOL    HW150955   1.363   1.284   4.285 -0.2543  2.4895 -0.4747
16341SOL    HW250956   1.300   1.308   4.420  0.5439 -0.5270  0.5226
16342SOL     OW50957   2.778   2.557   6.797  0.1625  0.1625 -0.1872
16342SOL    HW150958   2.839   2.562   6.871  0.9767 -1.6983 -0.6779
16342SOL    HW250959   2.758   2.649   6.777  0.1189  0.7353  2.1454
16343SOL     OW50960   0.771   1.774   2.610  0.1079  0.1234  0.1687
16343SOL    HW150961   0.778   1.743   2.700  1.9452 -1.1343 -0.3479
16343SOL    HW250962   0.831   1.849   2.605 -0.5192  0.6343  0.1447
16344SOL     OW50963   3.895   7.084   8.494  0.3741 -0.0858  0.1885
16344SOL    HW150964   3.883   7.000   8.451 -1.5771  0.6475 -0.8333
16344SOL    HW250965   3.846   7.078   8.576 -1.0193  0.4801 -0.5616
16345SOL     OW50966   3.774   2.295   5.061  0.1489  0.1990 -0.7002
16345SOL    HW150967   3.777   2.213   5.111  1.3788  0.3045 -0.5707
16345SOL    HW250968   3.712   2.278   4.990 -0.7559 -0.3326  0.1813
16346SOL     OW50969   7.780   7.202   1.500  0.7843  0.4394  0.4877
16346SOL    HW150970   7.867   7.231   1.525  1.5139 -0.7026 -0.6211
16346SOL    HW250971   7.794   7.143   1.427 -1.0590  1.6744 -0.9749
16347SOL     OW50972   1.385   8.089   4.782  0.9869  0.2471 -0.0555
16347SOL    HW150973   1.332   8.160   4.748  0.3507 -0.2771 -0.1871
16347SOL    HW250974   1.343   8.065   4.865  0.5085 -0.7063 -0.5482
16348SOL     OW50975   0.756   5.058   8.358 -0.2185 -0.0687  0.0792
16348SOL    HW150976   0.834   5.110   8.375  0.1496  0.4541 -2.6932
16348SOL    HW250977   0.767   4.978   8.409  2.1898 -0.0434 -0.3247
16349SOL     OW50978   4.049   3.679   5.223  0.1792  0.1303 -0.0924
16349SOL    HW150979   3.983   3.727   5.272 -1.5146 -0.3845 -1.7582
16349SOL    HW250980   4.005   3.653   5.142  2.4677 -0.1612 -1.3220
16350SOL     OW50981   0.165   0.368   5.755  0.4606 -0.1098 -0.5175
16350SOL    HW150982   0.152   0.284   5.712 -0.5302  0.9125 -2.3510
16350SOL    HW250983   0.260   0.373   5.769  0.8118 -0.6315 -2.3943
16351SOL     OW50984   5.272   0.423   2.352  0.7381  1.0585 -0.7786
16351SOL    HW150985   5.207   0.494   2.352  0.8060  1.1212 -0.3966
16351SOL    HW250986   5.239   0.360   2.289  0.6431  1.4019 -1.0796
16352SOL     OW50987   3.102   8.553   3.422 -0.1945  0.1539  0.1656
16352SOL    HW150988   3.006   8.563   3.424 -0.2865 -0.8265  1.7593
16352SOL    HW250989   3.133   8.638   3.389 -1.4725  1.7933  2.8544
16353SOL     OW50990   4.620   5.380   7.567  0.5370 -0.1918  0.1884
16353SOL    HW150991   4.682   5.354   7.499 -1.0446  1.1177 -1.8935
16353SOL    HW250992   4.657   5.461   7.603  0.1557  0.5128 -0.9507
16354SOL     OW50993   4.006   7.383   5.532 -0.0803  0.0989  0.7709
16354SOL    HW150994   3.993   7.433   5.452 -0.1336 -2.5317 -0.9834
16354SOL    HW250995   4.079   7.427   5.576  0.5031  1.1554 -1.1308
16355SOL     OW50996   3.557   8.058   8.764 -0.0211 -0.5692 -0.3795
16355SOL    HW150997   3.524   8.022   8.847 -0.3270 -0.1028 -0.2931
16355SOL    HW250998   3.482   8.052   8.704 -0.3338  0.6264 -0.1416
16356SOL     OW50999   4.056   6.564   7.667  0.0329 -0.2318 -0.0476
16356SOL    HW151000   4.075   6.609   7.584 -0.7289  1.4943  0.6727
16356SOL    HW251001   4.028   6.477   7.640  1.7199 -0.4000 -1.4921
16357SOL     OW51002   6.524   6.977   1.125 -0.1213  0.1920  0.5184
16357SOL    HW151003   6.582   6.901   1.120  1.3747  1.3291 -0.5818
16357SOL    HW251004   6.452   6.957   1.065  0.5130 -0.1809 -0.1292
16358SOL     OW51005   1.685   2.428   4.714 -0.2090  0.0730  0.0230
16358SOL    HW151006   1.661   2.338   4.694 -0.0300  0.0333 -0.0074
16358SOL    HW251007   1.772   2.439   4.677  0.0050  0.0862  0.5244
16359SOL     OW51008   6.555   6.902   8.867  0.4037 -0.2818 -0.0345
16359SOL    HW151009   6.623   6.961   8.835  1.7074 -2.4132 -1.5110
16359SOL    HW251010   6.483   6.912   8.804  0.1380  0.5313  0.3854
16360SOL     OW51011   4.170   8.561   0.544  0.0211  0.7452  0.0968
16360SOL    HW151012   4.136   8.608   0.469  0.9447  0.8454 -0.2751
16360SOL    HW251013   4.205   8.629   0.601  0.2106  0.6044  0.1519
16361SOL     OW51014   1.288   3.574   3.554 -0.1657 -0.6098  1.0053
16361SOL    HW151015   1.237   3.573   3.473  0.6322  1.1829  0.4191
16361SOL    HW251016   1.340   3.494   3.551 -0.5879 -0.8625  0.0364
16362SOL     OW51017   4.121   2.863   8.430 -0.7068  0.5141 -0.2628
16362SOL    HW151018   4.210   2.879   8.398 -0.0813  0.9644  1.5767
16362SOL    HW251019   4.076   2.947   8.418 -0.3930  0.7629  0.2682
16363SOL     OW51020   5.630   6.368   7.929  0.5771  0.1674 -0.4623
16363SOL    HW151021   5.665   6.322   7.852  0.1779  1.0736 -1.2050
16363SOL    HW251022   5.704   6.373   7.989  0.8209 -0.8125 -0.6523
16364SOL     OW51023   5.262   6.643   2.682 -0.3313 -0.2942  0.4153
16364SOL    HW151024   5.174   6.604   2.680  0.3314 -1.8321 -0.3388
16364SOL    HW251025   5.276   6.664   2.774 -0.9635 -1.3318  0.7752
16365SOL     OW51026   1.866   8.682   1.293  0.3262  0.5936 -0.0703
16365SOL    HW151027   1.887   8.652   1.382  1.3239  0.8257 -0.2148
16365SOL    HW251028   1.918   8.761   1.282  0.3147  0.4933 -0.9117
16366SOL     OW51029   6.887   6.769   8.866  0.6687 -0.1866  0.0302
16366SOL    HW151030   6.944   6.696   8.889  0.7919  0.0802  0.5799
16366SOL    HW251031   6.856   6.748   8.778  1.3462 -0.4980 -0.1398
16367SOL     OW51032   3.334   5.820   5.003 -0.2571  0.0174  0.0179
16367SOL    HW151033   3.319   5.902   5.050 -2.0988 -0.6166  0.6407
16367SOL    HW251034   3.366   5.847   4.917  0.3233  1.3197  0.6147
16368SOL     OW51035   1.948   0.778   5.557  0.3863  0.0052  0.4388
16368SOL    HW151036   1.860   0.807   5.536  0.1728  0.2847  1.6513
16368SOL    HW251037   1.936   0.697   5.606  0.8698 -0.6271 -0.4498
16369SOL     OW51038   7.431   5.526   2.299 -0.2115 -0.4842  0.1797
16369SOL    HW151039   7.410   5.556   2.211  0.1482  1.1390  0.6274
16369SOL    HW251040   7.354   5.475   2.326  0.1789 -2.0827 -1.5133
16370SOL     OW51041   0.001   7.281   6.999  0.5503 -0.0127 -0.1982
16370SOL    HW151042  -0.085   7.264   6.959 -0.6941  2.1612  1.3246
16370SOL    HW251043   0.055   7.314   6.928 -0.1230 -0.6303 -1.0144
16371SOL     OW51044   2.924   4.019   3.901  0.2575  0.2012  0.6767
16371SOL    HW151045   2.919   4.109   3.931  1.9350  0.7421 -0.4881
16371SOL    HW251046   2.930   4.026   3.805  0.9336 -1.1047  0.5951
16372SOL     OW51047   7.923   6.103   1.496 -0.4817 -0.0968 -0.5934
16372SOL    HW151048   7.961   6.180   1.538  0.2739 -0.0513 -1.3375
16372SOL    HW251049   7.865   6.066   1.563  0.8525 -0.1577  0.5947
16373SOL     OW51050   3.255   6.156   3.855 -0.2117 -0.1687  0.2403
16373SOL    HW151051   3.312   6.094   3.902  0.1866  0.3063  0.3914
16373SOL    HW251052   3.297   6.241   3.866 -0.0300 -0.0598 -1.1109
16374SOL     OW51053   1.884   8.209   5.020  0.1278  0.3023  0.2915
16374SOL    HW151054   1.927   8.260   5.089  1.1598  0.4554 -0.4339
16374SOL    HW251055   1.791   8.222   5.035  0.3514  1.4765  0.8257
16375SOL     OW51056   8.801   6.757   7.478  0.2565  0.5489  0.1536
16375SOL    HW151057   8.740   6.684   7.494 -0.2454  1.0810  0.7416
16375SOL    HW251058   8.885   6.725   7.511  0.5332 -0.5280 -1.4590
16376SOL     OW51059   6.502   7.756   2.931 -0.2397 -0.5161 -0.1541
16376SOL    HW151060   6.407   7.763   2.940 -0.1045 -0.7172  1.9732
16376SOL    HW251061   6.537   7.813   3.000  1.1846 -0.8838 -0.5321
16377SOL     OW51062   6.696   3.087   2.361  0.2337 -0.1058 -0.2657
16377SOL    HW151063   6.751   3.133   2.424  1.0683 -1.5865  0.1373
16377SOL    HW251064   6.611   3.078   2.405  0.1959  0.6536 -0.1810
16378SOL     OW51065   3.640   7.053   0.191  0.4080  0.1178 -0.2500
16378SOL    HW151066   3.561   7.059   0.245 -0.0026  0.0327 -0.8347
16378SOL    HW251067   3.640   6.963   0.159  1.5304 -0.3303  0.9200
16379SOL     OW51068   0.553   0.347   3.609  0.8332 -0.2374 -0.2020
16379SOL    HW151069   0.494   0.413   3.573  1.4134  0.0899 -0.5669
16379SOL    HW251070   0.576   0.291   3.534  0.1955 -0.9781  0.1380
16380SOL     OW51071   2.577   3.866   2.536  0.1913 -0.5585 -0.0922
16380SOL    HW151072   2.520   3.940   2.513 -0.5935 -1.0888  0.1047
16380SOL    HW251073   2.560   3.851   2.629 -1.0129 -2.1078 -0.5187
16381SOL     OW51074   8.268   3.740   8.132  0.1887  0.6231 -0.9730
16381SOL    HW151075   8.311   3.771   8.052  0.8951 -1.1289 -1.3152
16381SOL    HW251076   8.193   3.690   8.099  0.3650  0.0671 -0.5234
16382SOL     OW51077   2.351   1.669   1.131 -0.1243 -0.3380 -0.1164
16382SOL    HW151078   2.377   1.613   1.204  0.6131 -0.6721 -0.6340
16382SOL    HW251079   2.321   1.750   1.173  0.5676 -0.4193  0.5492
16383SOL     OW51080   7.074   1.463   8.534  0.2603  0.0238  0.2961
16383SOL    HW151081   7.023   1.383   8.534 -1.1081  0.7695 -2.3118
16383SOL    HW251082   7.037   1.515   8.605 -0.0905 -0.9130  0.8117
16384SOL     OW51083   0.138   6.194   1.658 -0.0635 -0.1547  0.1819
16384SOL    HW151084   0.219   6.143   1.653  0.3701  0.4250  1.1508
16384SOL    HW251085   0.088   6.165   1.581  1.2123 -0.2411 -0.6560
16385SOL     OW51086   6.084   6.891   2.961 -0.5320 -0.1558 -0.4358
16385SOL    HW151087   6.028   6.913   3.036  1.6831 -2.3988  2.0956
16385SOL    HW251088   6.140   6.968   2.950 -1.2114  0.3966 -0.1239
16386SOL     OW51089   4.379   1.345   4.296 -0.4622  0.2616 -0.2116
16386SOL    HW151090   4.422   1.373   4.377 -1.7334  1.8266 -0.0078
16386SOL    HW251091   4.396   1.417   4.234  0.4372 -0.8841 -1.3398
16387SOL     OW51092   0.869   8.601   0.027  0.0299  0.0346  0.0449
16387SOL    HW151093   0.809   8.649   0.085 -2.9212 -1.6493 -1.3654
16387SOL    HW251094   0.870   8.512   0.063  3.1964  0.3638  1.0200
16388SOL     OW51095   7.808   8.381   0.734 -0.4582 -0.0946 -0.2921
16388SOL    HW151096   7.738   8.340   0.786 -0.3785 -0.3284 -0.3681
16388SOL    HW251097   7.882   8.321   0.743 -0.1429  0.3524  0.1083
16389SOL     OW51098   7.222   6.451   2.910 -0.6648  0.3865  0.0016
16389SOL    HW151099   7.314   6.450   2.884 -0.8246  1.7263 -0.6942
16389SOL    HW251100   7.188   6.367   2.880  0.4248 -0.3259  0.6832
16390SOL     OW51101   4.140   7.915   7.904 -0.1307  0.2176 -0.5616
16390SOL    HW151102   4.077   7.901   7.833 -0.8779  0.6971 -0.0101
16390SOL    HW251103   4.203   7.843   7.895 -2.6536 -2.4111  0.9298
16391SOL     OW51104   6.674   3.267   1.180 -0.0179  0.1169 -0.3243
16391SOL    HW151105   6.748   3.313   1.221 -0.0359  0.0510 -0.2174
16391SOL    HW251106   6.692   3.272   1.087 -0.4236  1.0464 -0.3669
16392SOL     OW51107   1.339   1.774   8.440  0.0946 -0.2881  0.1527
16392SOL    HW151108   1.259   1.725   8.458 -1.2242  1.2007 -1.2535
16392SOL    HW251109   1.364   1.747   8.351  0.1154  0.5316 -0.1051
16393SOL     OW51110   2.171   5.987   0.555  0.3520 -0.4267  0.2091
16393SOL    HW151111   2.266   5.980   0.547  0.3902 -1.7312  1.4393
16393SOL    HW251112   2.158   6.052   0.624  0.2931  0.6299 -0.7588
16394SOL     OW51113   5.448   2.562   8.206 -0.2160  0.2801 -0.3597
16394SOL    HW151114   5.522   2.622   8.217  1.8652 -2.2859  0.8160
16394SOL    HW251115   5.461   2.496   8.274 -4.5006  0.4656  0.9065
16395SOL     OW51116   0.673   2.767   1.272  0.4117  0.7820  0.7404
16395SOL    HW151117   0.709   2.706   1.337  1.3501  1.8565  1.2727
16395SOL    HW251118   0.592   2.726   1.243  0.2912 -0.0321  2.1271
16396SOL     OW51119   7.560   0.123   8.007  0.3424  0.5546  0.0749
16396SOL    HW151120   7.585   0.136   7.915  1.0692  0.2182  0.2197
16396SOL    HW251121   7.469   0.095   8.002  0.2312  0.9892 -0.5169
16397SOL     OW51122   6.110   2.972   2.349  0.3236 -0.2883  0.6286
16397SOL    HW151123   6.168   2.917   2.403  1.6203 -0.8145 -1.2068
16397SOL    HW251124   6.040   2.913   2.322  1.2456 -0.8531 -0.6181
16398SOL     OW51125   2.931   4.227   7.242  0.0351  0.5875 -0.3095
16398SOL    HW151126   2.874   4.165   7.196 -0.0868  1.1047 -0.8723
16398SOL    HW251127   2.974   4.175   7.309  0.5628 -0.2983 -1.3009
16399SOL     OW51128   5.711   6.755   3.214 -0.2653 -0.1793  0.5391
16399SOL    HW151129   5.704   6.847   3.242 -2.3001  0.2647 -1.1973
16399SOL    HW251130   5.720   6.760   3.119  1.6815 -1.7756  0.5834
16400SOL     OW51131   5.905   8.848   0.231  0.0060 -0.1297 -0.1725
16400SOL    HW151132   5.931   8.940   0.239 -1.8096  0.3082  1.6736
16400SOL    HW251133   5.927   8.809   0.315  1.4441 -1.6376 -1.1896
16401SOL     OW51134   4.353   7.487   0.514 -0.2375 -0.3384 -0.0125
16401SOL    HW151135   4.398   7.514   0.594  0.9459 -0.0916 -0.7420
16401SOL    HW251136   4.269   7.452   0.545 -0.4957  1.2320  1.2028
16402SOL     OW51137   2.249   1.525   0.074  0.0535  0.1818  0.0519
16402SOL    HW151138   2.288   1.442   0.101 -1.3290 -0.5947 -0.2337
16402SOL    HW251139   2.312   1.591   0.102  1.2067 -0.9534  0.2555
16403SOL     OW51140   0.783   6.595   6.322  0.0009 -0.2246 -0.0808
16403SOL    HW151141   0.844   6.556   6.385  1.2389  1.8938  0.1269
16403SOL    HW251142   0.698   6.593   6.366  0.2089 -1.6861  0.3184
16404SOL     OW51143   2.219   2.509   4.016 -0.3620  0.4948  0.9817
16404SOL    HW151144   2.264   2.463   3.946  0.7973  2.1358  0.5758
16404SOL    HW251145   2.275   2.497   4.093 -1.9531 -1.8517  1.8928
16405SOL     OW51146   3.488   5.237   4.438  0.7586 -0.1240  0.0066
16405SOL    HW151147   3.476   5.151   4.399 -1.1372 -0.6098  1.5581
16405SOL    HW251148   3.565   5.227   4.494  0.5403 -0.8156  0.1929
16406SOL     OW51149   6.763   2.724   7.910  0.3652 -0.6244 -0.3457
16406SOL    HW151150   6.699   2.653   7.907  0.2630 -0.5723  0.3407
16406SOL    HW251151   6.761   2.763   7.823 -0.1383 -0.9730 -0.4925
16407SOL     OW51152   2.996   4.651   1.692  0.3401 -0.1815  0.2173
16407SOL    HW151153   2.961   4.726   1.644 -0.6364 -1.0537 -0.4707
16407SOL    HW251154   3.081   4.634   1.652 -0.3155 -0.6898 -1.0166
16408SOL     OW51155   2.576   4.909   1.841  0.0537  0.5028  0.0108
16408SOL    HW151156   2.575   4.814   1.830  0.9544  0.6021 -1.1010
16408SOL    HW251157   2.483   4.934   1.838 -0.1974 -0.3428  0.4198
16409SOL     OW51158   3.147   2.301   2.400 -0.0430  0.0194 -0.0223
16409SOL    HW151159   3.059   2.316   2.433  0.2289 -0.0630  0.7627
16409SOL    HW251160   3.169   2.213   2.429  0.3437  0.0854 -0.1078
16410SOL     OW51161   6.023   4.556   4.686  0.4390  0.5454  0.1832
16410SOL    HW151162   6.095   4.538   4.625 -0.2360  0.8355 -0.7104
16410SOL    HW251163   5.996   4.646   4.666 -1.7774 -0.3535 -1.2049
16411SOL     OW51164   6.522   2.521   3.607 -0.0542 -0.0000  0.4306
16411SOL    HW151165   6.542   2.476   3.690  0.2401 -0.4547  0.1179
16411SOL    HW251166   6.526   2.614   3.629 -2.2562 -0.0791  1.4794
16412SOL     OW51167   4.365   4.922   4.602 -0.2753  0.3116 -0.7132
16412SOL    HW151168   4.452   4.920   4.563  1.5659 -0.1910  2.9358
16412SOL    HW251169   4.322   4.843   4.570  1.7544 -0.9942 -0.4400
16413SOL     OW51170   6.867   3.560   3.142 -0.3117  0.2040  0.0949
16413SOL    HW151171   6.868   3.466   3.160 -1.2652  0.3588  1.0778
16413SOL    HW251172   6.787   3.591   3.183  1.3438  1.9207  2.2484
16414SOL     OW51173   6.211   4.115   6.045 -0.0580 -0.2699  0.5762
16414SOL    HW151174   6.167   4.200   6.046 -0.4048 -0.4481  0.7862
16414SOL    HW251175   6.303   4.135   6.061  0.0047  0.1484 -0.2223
16415SOL     OW51176   5.338   6.054   8.317 -0.0228 -0.5282 -0.3262
16415SOL    HW151177   5.406   6.121   8.322  0.7483 -1.3223 -0.0493
16415SOL    HW251178   5.258   6.100   8.345  0.6308  0.0930  0.5806
16416SOL     OW51179   0.638   7.568   0.489  0.5926 -0.1710  0.6499
16416SOL    HW151180   0.612   7.635   0.427 -0.4426 -0.7942  0.3759
16416SOL    HW251181   0.567   7.566   0.553  1.0060 -0.4464  1.1076
16417SOL     OW51182   8.031   5.412   3.047 -0.3857 -0.1510  0.4899
16417SOL    HW151183   7.981   5.485   3.085 -0.6379 -0.1963  0.2532
16417SOL    HW251184   7.968   5.368   2.990  0.3177  0.6915 -1.0014
16418SOL     OW51185   5.401   1.790   5.363 -0.3321  0.2902 -0.3642
16418SOL    HW151186   5.435   1.721   5.420 -1.7746  0.1466  0.3613
16418SOL    HW251187   5.424   1.761   5.275 -1.8039 -1.6722 -0.1611
16419SOL     OW51188   7.688   3.442   2.195  0.6176 -0.3865 -0.0587
16419SOL    HW151189   7.649   3.361   2.228  1.7580 -1.1966 -0.6075
16419SOL    HW251190   7.736   3.415   2.117  0.5574  0.9298 -0.5662
16420SOL     OW51191   2.987   2.438   7.787  0.4321 -0.1946 -0.3376
16420SOL    HW151192   2.907   2.490   7.782  1.1116  1.2291  2.0946
16420SOL    HW251193   2.957   2.349   7.803 -0.6797  0.1566 -0.3599
16421SOL     OW51194   5.202   1.525   5.901 -0.0470  0.8197  0.1960
16421SOL    HW151195   5.209   1.534   5.806 -0.4106 -0.4416  0.0295
16421SOL    HW251196   5.109   1.541   5.920  0.1071  1.5051  0.4018
16422SOL     OW51197   4.837   4.800   0.070 -0.2923  0.5152  0.1212
16422SOL    HW151198   4.927   4.831   0.071  0.7838 -2.2941 -0.5443
16422SOL    HW251199   4.787   4.869   0.115  2.1946  1.9955  0.7929
16423SOL     OW51200   3.817   0.842   1.860  0.3125  0.0881 -0.9085
16423SOL    HW151201   3.881   0.828   1.930 -0.1582 -0.0205 -0.4948
16423SOL    HW251202   3.870   0.858   1.782  0.8427 -0.3224 -0.6362
16424SOL     OW51203   3.649   8.212   8.506 -0.7083 -0.4661 -0.4273
16424SOL    HW151204   3.722   8.154   8.482 -0.4391 -0.1455 -0.3887
16424SOL    HW251205   3.656   8.221   8.601  1.2161  2.1772 -0.7020
16425SOL     OW51206   8.342   7.532   4.791 -0.1611  0.0637 -0.3079
16425SOL    HW151207   8.370   7.572   4.709  1.4996 -0.7688 -0.1792
16425SOL    HW251208   8.322   7.441   4.768  1.0701 -0.3852  0.3343
16426SOL     OW51209   0.769   6.336   8.697  0.4525  0.0443 -0.1420
16426SOL    HW151210   0.790   6.406   8.634 -0.0541  0.4355  0.1233
16426SOL    HW251211   0.714   6.378   8.763 -0.4403 -0.7636 -0.3481
16427SOL     OW51212   3.714   0.225   5.744  0.6030  0.3280  0.2067
16427SOL    HW151213   3.658   0.253   5.816  0.5471 -0.4824  0.4811
16427SOL    HW251214   3.725   0.131   5.756  0.1905  0.0889 -1.1246
16428SOL     OW51215   3.518   3.480   0.133 -0.0402  0.0017 -0.3874
16428SOL    HW151216   3.524   3.387   0.155 -1.1777 -0.1068 -0.5055
16428SOL    HW251217   3.584   3.492   0.064  1.1408 -0.3866  0.6318
16429SOL     OW51218   6.864   4.979   6.663  0.3777 -0.2064  0.2971
16429SOL    HW151219   6.817   5.061   6.648 -0.5270 -0.8975 -0.7716
16429SOL    HW251220   6.882   4.979   6.757 -0.1434  0.9208  0.4192
16430SOL     OW51221   5.509   5.039   5.970  0.0231 -0.5653 -0.2471
16430SOL    HW151222   5.567   4.977   5.926  1.2796  1.2332 -1.2504
16430SOL    HW251223   5.423   5.023   5.932  0.5988 -0.7902 -1.4786
16431SOL     OW51224   8.581   2.400   3.949  0.0698  0.5166  0.1793
16431SOL    HW151225   8.591   2.488   3.912 -2.9190  1.6275  1.6755
16431SOL    HW251226   8.664   2.383   3.994  0.4473  2.9123  0.5162
16432SOL     OW51227   0.428   1.773   5.612  0.3101  0.4605  0.1034
16432SOL    HW151228   0.390   1.693   5.648 -0.0337  0.4678 -0.2340
16432SOL    HW251229   0.406   1.770   5.519  0.9847  0.5589 -0.0631
16433SOL     OW51230   1.871   2.499   8.067  0.1507  0.2392 -0.6686
16433SOL    HW151231   1.807   2.428   8.065  0.5271 -0.5371  3.6816
16433SOL    HW251232   1.955   2.455   8.055  0.4066 -0.3023  2.2831
16434SOL     OW51233   2.393   0.964   1.505 -0.2206 -0.4343  0.1204
16434SOL    HW151234   2.406   0.955   1.411  0.1142  1.4076 -0.0495
16434SOL    HW251235   2.309   1.010   1.513 -1.0335 -1.9708  0.8035
16435SOL     OW51236   2.720   2.050   7.635 -0.1198 -0.4994 -0.0474
16435SOL    HW151237   2.625   2.055   7.633 -0.1330 -0.7791 -0.1327
16435SOL    HW251238   2.745   2.100   7.713 -0.3041  0.0088 -0.3103
16436SOL     OW51239   5.520   2.421   1.047  0.3473 -0.3726 -0.2424
16436SOL    HW151240   5.459   2.444   1.117 -2.3608 -2.5092 -1.6912
16436SOL    HW251241   5.498   2.479   0.975  0.5491 -0.6407 -0.5263
16437SOL     OW51242   6.273   8.255   2.557 -0.3330  0.3426  0.0494
16437SOL    HW151243   6.247   8.192   2.625 -0.1613 -0.9899 -1.0791
16437SOL    HW251244   6.221   8.230   2.480  2.9669 -1.4351 -1.8337
16438SOL     OW51245   7.147   1.934   7.648 -0.3538  0.1307  0.0209
16438SOL    HW151246   7.060   1.902   7.670 -0.1669  0.9978  2.2852
16438SOL    HW251247   7.205   1.861   7.669 -0.3006  0.5206  1.3192
16439SOL     OW51248   5.311   3.318   8.859 -0.3889  0.5179  0.2101
16439SOL    HW151249   5.342   3.328   8.769  1.2048 -0.7678  0.5689
16439SOL    HW251250   5.373   3.258   8.900 -2.0000 -0.2373  1.7173
16440SOL     OW51251   7.714   3.632   4.132  0.0141  0.4269 -0.4942
16440SOL    HW151252   7.809   3.636   4.129  0.0826 -0.8544 -0.7860
16440SOL    HW251253   7.694   3.600   4.220 -0.1072  0.1080 -0.6348
16441SOL     OW51254   1.429   2.271   4.697 -0.3062  0.2854 -0.2207
16441SOL    HW151255   1.368   2.274   4.771 -2.0536 -3.2999 -1.2751
16441SOL    HW251256   1.488   2.198   4.717 -0.5298 -0.4604 -2.0753
16442SOL     OW51257   0.812   3.569   0.410  0.2187  0.1344 -0.3141
16442SOL    HW151258   0.874   3.638   0.431  0.2787  0.0672 -0.2689
16442SOL    HW251259   0.730   3.595   0.452  0.3679 -0.0546  0.0957
16443SOL     OW51260   5.229   7.222   0.089  0.1032 -0.1999 -0.3886
16443SOL    HW151261   5.207   7.273   0.167  0.0877 -1.7805  0.6906
16443SOL    HW251262   5.322   7.242   0.074  0.3338 -0.4937  0.5427
16444SOL     OW51263   1.434   0.696   3.995 -0.5230  0.0826 -0.2424
16444SOL    HW151264   1.367   0.716   3.930 -0.8218 -1.5438 -0.4799
16444SOL    HW251265   1.389   0.702   4.079 -0.3245  1.4493 -0.2221
16445SOL     OW51266   0.266   8.510   6.105 -0.1093  0.0191  0.2350
16445SOL    HW151267   0.207   8.541   6.174 -0.2322  1.7660 -0.5998
16445SOL    HW251268   0.231   8.549   6.024  1.5730  0.2341 -0.4261
16446SOL     OW51269   7.077   8.673   7.177 -0.1173 -0.0273 -0.1611
16446SOL    HW151270   6.996   8.724   7.178 -0.0296  0.1877 -1.4372
16446SOL    HW251271   7.053   8.587   7.210 -0.4327  0.5998  1.3098
16447SOL     OW51272   3.356   8.130   2.835 -0.0974  0.3946  0.9500
16447SOL    HW151273   3.404   8.048   2.821  0.1084  0.4610  1.2728
16447SOL    HW251274   3.323   8.153   2.748 -0.8032 -0.4315  0.9770
16448SOL     OW51275   1.320   2.491   4.240 -0.1643  0.2653 -0.0405
16448SOL    HW151276   1.234   2.526   4.266 -2.0750 -2.6616 -1.8430
16448SOL    HW251277   1.339   2.423   4.305 -0.2653 -0.5271 -0.8280
16449SOL     OW51278   3.318   5.226   7.973  0.4384  0.1350  0.4621
16449SOL    HW151279   3.328   5.276   7.892 -1.2331  2.1855  1.4428
16449SOL    HW251280   3.400   5.241   8.021  0.5624  0.6945  0.0847
16450SOL     OW51281   4.809   0.998   2.913  0.8413 -0.4634  0.3056
16450SOL    HW151282   4.866   1.053   2.859  1.2003 -0.5639  0.5799
16450SOL    HW251283   4.865   0.968   2.985  0.7342 -1.4560 -0.0143
16451SOL     OW51284   5.511   5.261   1.928  0.2885 -0.0617  0.0606
16451SOL    HW151285   5.430   5.211   1.915  1.2851 -1.5099 -0.7215
16451SOL    HW251286   5.537   5.241   2.018  0.8694 -1.2396 -0.3636
16452SOL     OW51287   1.525   6.325   3.847 -0.7182 -0.3899  0.6613
16452SOL    HW151288   1.566   6.378   3.778 -1.1725  1.5882  1.8499
16452SOL    HW251289   1.510   6.240   3.805  2.6249 -0.5916 -0.4989
16453SOL     OW51290   4.484   3.699   1.379 -0.4178  0.0035 -0.5721
16453SOL    HW151291   4.575   3.692   1.408 -0.8604 -2.2939  0.5285
16453SOL    HW251292   4.487   3.677   1.286  0.2565  1.1962 -0.8637
16454SOL     OW51293   8.607   6.676   0.656  0.3798  0.1435 -0.3554
16454SOL    HW151294   8.681   6.734   0.639  2.6087 -2.1879  0.8859
16454SOL    HW251295   8.598   6.624   0.577  1.0612 -0.5877  0.0414
16455SOL     OW51296   3.264   3.446   1.017 -0.7100  0.4131 -0.1352
16455SOL    HW151297   3.279   3.455   0.923 -1.4469  0.9393 -0.2108
16455SOL    HW251298   3.187   3.390   1.024 -1.3913  1.3572  0.1076
16456SOL     OW51299   7.325   5.249   6.447 -0.3440  0.2223 -0.0498
16456SOL    HW151300   7.244   5.217   6.486  1.3652 -3.6686  0.7154
16456SOL    HW251301   7.395   5.219   6.506  1.9080 -0.0049 -2.6055
16457SOL     OW51302   7.009   3.284   8.182  0.0031  0.2161 -0.0186
16457SOL    HW151303   6.944   3.308   8.116 -0.4309 -0.6295  0.0805
16457SOL    HW251304   7.071   3.229   8.136 -1.0430 -1.5111  0.5370
16458SOL     OW51305   3.330   2.741   7.135  0.1630 -0.4869  0.2850
16458SOL    HW151306   3.375   2.826   7.141  3.6434 -2.0558 -0.9641
16458SOL    HW251307   3.284   2.745   7.052  4.2417 -1.3010 -2.2816
16459SOL     OW51308   0.268   2.369   7.222 -0.2674 -0.2433  0.0620
16459SOL    HW151309   0.296   2.334   7.306  0.4421 -1.3874 -0.6145
16459SOL    HW251310   0.259   2.463   7.236 -0.4811 -0.4620  1.4874
16460SOL     OW51311   8.637   1.769   0.489 -0.2751 -0.1196  0.3725
16460SOL    HW151312   8.613   1.676   0.492  2.6161 -0.9947  0.0143
16460SOL    HW251313   8.642   1.789   0.395 -3.1567  1.1574  0.4049
16461SOL     OW51314   1.022   6.459   2.196  1.0034 -0.3499 -0.2512
16461SOL    HW151315   1.107   6.424   2.170  1.5611 -1.6526  2.8716
16461SOL    HW251316   1.038   6.504   2.279 -1.1972  0.0948  0.0136
16462SOL     OW51317   8.482   5.123   1.592 -0.0076 -0.3791  0.1793
16462SOL    HW151318   8.544   5.060   1.627 -0.5482 -0.2633  1.3851
16462SOL    HW251319   8.462   5.091   1.504  1.5215 -0.5725 -0.1287
16463SOL     OW51320   5.612   7.605   7.250 -0.3637  0.5414 -0.5044
16463SOL    HW151321   5.550   7.677   7.256 -0.8001  0.0532  1.6896
16463SOL    HW251322   5.689   7.643   7.208 -1.3280  1.7235 -1.2592
16464SOL     OW51323   0.307   3.906   4.234 -0.5294 -0.3751  0.1072
16464SOL    HW151324   0.329   3.998   4.219 -0.2457  0.0098  2.5361
16464SOL    HW251325   0.211   3.904   4.228 -0.5799  0.2082  0.6178
16465SOL     OW51326   6.919   4.404   5.729 -0.0336  0.0848 -0.0051
16465SOL    HW151327   6.873   4.320   5.724 -1.5737  0.9292 -0.5172
16465SOL    HW251328   6.994   4.393   5.671 -0.3305 -0.8718 -0.2343
16466SOL     OW51329   6.260   0.283   1.361 -0.0558 -0.2828  0.5228
16466SOL    HW151330   6.219   0.363   1.328  2.2777  0.7413 -0.0924
16466SOL    HW251331   6.189   0.218   1.361 -1.8269  1.5412  0.2854
16467SOL     OW51332   2.574   0.543   6.534 -0.3132  0.1773 -0.1416
16467SOL    HW151333   2.567   0.625   6.484  0.9843  2.5536  3.1966
16467SOL    HW251334   2.522   0.558   6.612  1.3377 -1.4720  1.3822
16468SOL     OW51335   3.777   1.331   2.609  0.2449  0.3079 -0.0727
16468SOL    HW151336   3.777   1.258   2.670  0.3841  0.2996 -0.0844
16468SOL    HW251337   3.810   1.405   2.659  1.9954 -0.0701 -0.5985
16469SOL     OW51338   2.199   8.387   8.101 -0.1099 -0.3831 -0.4691
16469SOL    HW151339   2.144   8.319   8.062  0.2454  0.2697 -2.2008
16469SOL    HW251340   2.286   8.348   8.104  0.0907 -0.0309 -1.4475
16470SOL     OW51341   8.115   0.158   4.834 -0.0200  0.0065 -0.1998
16470SOL    HW151342   8.111   0.182   4.927 -0.3387  0.5539 -0.3465
16470SOL    HW251343   8.205   0.178   4.809 -0.1526  0.6336 -0.2018
16471SOL     OW51344   4.863   0.770   8.222  0.2474  0.4113  0.0796
16471SOL    HW151345   4.942   0.716   8.218 -0.3344 -0.4878  0.5024
16471SOL    HW251346   4.837   0.783   8.131 -0.5533 -1.4466  0.0126
16472SOL     OW51347   7.561   4.820   3.296 -0.0601 -0.4016 -0.1222
16472SOL    HW151348   7.606   4.882   3.353  0.7050 -1.3861  0.3581
16472SOL    HW251349   7.600   4.834   3.210  0.2224 -0.3299  0.0166
16473SOL     OW51350   2.112   7.896   8.626  0.0930  0.2314  0.2121
16473SOL    HW151351   2.124   7.853   8.710 -0.3928 -1.3352 -0.4749
16473SOL    HW251352   2.032   7.858   8.590  1.0982 -0.2966 -1.6203
16474SOL     OW51353   3.221   7.973   8.269 -0.1210  0.0852 -0.4366
16474SOL    HW151354   3.162   7.996   8.341 -1.0464  0.5179 -1.3065
16474SOL    HW251355   3.164   7.931   8.205  1.1178 -2.7429  0.1611
16475SOL     OW51356   0.080   6.006   1.210  0.1322 -0.1051 -0.3335
16475SOL    HW151357   0.095   5.973   1.121  0.3647 -2.4487  0.5224
16475SOL    HW251358   0.166   6.039   1.238  0.5478 -1.2297 -0.2582
16476SOL     OW51359   6.532   7.141   1.905 -0.1440  0.2572  0.2427
16476SOL    HW151360   6.525   7.151   2.000 -1.1595  1.1931  0.0842
16476SOL    HW251361   6.521   7.229   1.870  0.9517  0.0342 -0.7213
16477SOL     OW51362   1.189   5.204   2.915 -0.4594 -0.6366  0.0054
16477SOL    HW151363   1.129   5.178   2.846  0.9264 -1.9815 -0.7575
16477SOL    HW251364   1.276   5.199   2.875  0.2688 -0.0490  1.4328
16478SOL     OW51365   7.436   6.812   1.903  0.1965  0.5278 -0.7425
16478SOL    HW151366   7.429   6.815   1.999  1.2214 -1.9584 -0.5140
16478SOL    HW251367   7.386   6.734   1.878  1.0567  0.3789 -2.0686
16479SOL     OW51368   1.879   4.308   5.650 -0.2874  0.1085  0.0151
16479SOL    HW151369   1.945   4.356   5.600  1.9797 -1.4631  1.3686
16479SOL    HW251370   1.840   4.248   5.587 -0.1675  0.7607 -0.6977
16480SOL     OW51371   1.601   8.607   0.452 -0.0588  0.5027 -0.3206
16480SOL    HW151372   1.685   8.654   0.445 -0.4204  1.2395  0.1995
16480SOL    HW251373   1.536   8.676   0.461 -0.9011  0.0051 -2.1590
16481SOL     OW51374   7.160   1.825   1.750  0.2217 -0.0715 -0.1250
16481SOL    HW151375   7.228   1.771   1.790  0.9195  0.0254 -1.1424
16481SOL    HW251376   7.117   1.867   1.824  1.5292  0.1705  0.5307
16482SOL     OW51377   3.441   5.975   1.693 -0.2292 -0.2485 -0.0639
16482SOL    HW151378   3.381   5.965   1.619  2.6932 -0.5241 -2.5683
16482SOL    HW251379   3.492   5.895   1.694  2.1404  1.1572 -0.0491
16483SOL     OW51380   8.190   2.755   4.408 -0.5671 -0.2121  0.2073
16483SOL    HW151381   8.114   2.812   4.390 -0.7058 -0.4569  0.0001
16483SOL    HW251382   8.197   2.701   4.329 -0.0026  0.0003  0.1113
16484SOL     OW51383   6.468   4.230   6.088 -0.2820 -0.0841  0.6059
16484SOL    HW151384   6.557   4.225   6.122  0.7122  0.2111 -1.7961
16484SOL    HW251385   6.439   4.319   6.110 -0.5341 -0.6040  2.5499
16485SOL     OW51386   3.655   3.265   1.232  0.5854  0.6309 -0.5859
16485SOL    HW151387   3.627   3.316   1.155 -3.5082  0.1585  0.3841
16485SOL    HW251388   3.681   3.331   1.296 -0.0090  1.2275 -0.9492
16486SOL     OW51389   8.791   3.647   0.661  0.3040 -0.2592  0.3218
16486SOL    HW151390   8.737   3.695   0.724  0.4308  0.4888 -0.1258
16486SOL    HW251391   8.729   3.614   0.596  0.2469 -0.4640  0.4814
16487SOL     OW51392   6.031   7.406   2.194 -0.2274  0.1131  0.1531
16487SOL    HW151393   5.993   7.475   2.247 -0.1516 -1.0797  1.8272
16487SOL    HW251394   5.956   7.359   2.158 -0.3453  2.1806 -2.7174
16488SOL     OW51395   8.759   6.159   1.808 -0.2608 -0.2539  0.1282
16488SOL    HW151396   8.826   6.151   1.740 -1.2531  2.5641 -1.3831
16488SOL    HW251397   8.695   6.092   1.788 -1.5995  1.7692 -3.2375
16489SOL     OW51398   1.676   6.910   7.031 -0.0630 -0.6005 -0.0168
16489SOL    HW151399   1.736   6.838   7.054 -0.2924 -1.1137 -0.9964
16489SOL    HW251400   1.591   6.881   7.063  0.0712 -0.1698  0.7644
16490SOL     OW51401   2.636   3.590   2.513  0.0363 -0.0986 -0.7148
16490SOL    HW151402   2.629   3.580   2.608 -1.2044 -0.4383 -0.8258
16490SOL    HW251403   2.627   3.684   2.498 -1.4727 -0.2038 -0.6007
16491SOL     OW51404   6.365   6.176   3.684  0.2536 -0.4784  0.2032
16491SOL    HW151405   6.449   6.143   3.652  0.0156 -1.4107  0.5149
16491SOL    HW251406   6.353   6.259   3.638  0.6606 -1.0256 -0.9266
16492SOL     OW51407   5.930   3.662   8.147 -0.0115  0.3442  0.5970
16492SOL    HW151408   5.866   3.665   8.075 -0.6114 -1.6198  0.9858
16492SOL    HW251409   5.976   3.579   8.134  0.2236  0.1992  2.1792
16493SOL     OW51410   6.460   4.328   5.138  0.5587 -0.0668  0.5974
16493SOL    HW151411   6.457   4.418   5.171 -0.9184  1.0804 -2.3276
16493SOL    HW251412   6.487   4.336   5.047  0.6235 -2.6549  0.3042
16494SOL     OW51413   2.721   0.857   6.312 -0.0837  0.1744 -0.2338
16494SOL    HW151414   2.649   0.795   6.316  0.2761 -0.4194 -2.2618
16494SOL    HW251415   2.799   0.803   6.301  0.5720  0.8626  0.8742
16495SOL     OW51416   5.865   4.931   4.974  0.3912 -0.4263  0.6909
16495SOL    HW151417   5.845   4.957   5.064  1.5318  0.1767  0.7784
16495SOL    HW251418   5.827   5.001   4.920 -0.7870 -1.0666  0.6427
16496SOL     OW51419   3.473   8.011   8.118 -0.1254  0.2093 -1.1258
16496SOL    HW151420   3.542   8.072   8.145  0.5671 -0.2488 -1.7949
16496SOL    HW251421   3.391   8.053   8.145  0.4413  0.5111  0.1754
16497SOL     OW51422   5.963   5.004   0.467 -0.5628 -0.8259  0.2270
16497SOL    HW151423   5.900   5.074   0.451 -0.4938 -1.2333 -2.2276
16497SOL    HW251424   5.930   4.930   0.416  1.1701 -1.4718 -0.0282
16498SOL     OW51425   3.293   1.062   4.283  0.0018 -0.2061 -0.2907
16498SOL    HW151426   3.385   1.070   4.306  0.4994 -1.9571 -1.4404
16498SOL    HW251427   3.258   0.999   4.347 -0.0689 -0.5067 -0.6182
16499SOL     OW51428   2.092   1.212   6.621 -0.5626  0.3106  0.2569
16499SOL    HW151429   2.162   1.151   6.645 -0.4471  0.3955  0.1445
16499SOL    HW251430   2.133   1.299   6.628 -1.1189  0.4745  1.7795
16500SOL     OW51431   2.749   0.558   7.285 -0.5828 -0.3108  0.2573
16500SOL    HW151432   2.773   0.527   7.373  2.2292  1.7198  0.3322
16500SOL    HW251433   2.712   0.645   7.300  0.6987  0.4123 -0.5584
16501SOL     OW51434   0.864   7.441   8.028 -0.1651  0.2104 -0.6658
16501SOL    HW151435   0.836   7.450   8.120  1.0387 -2.0193 -0.0229
16501SOL    HW251436   0.816   7.365   7.996  1.0506 -0.3613 -1.1846
16502SOL     OW51437   5.494   2.494   3.798 -0.2652 -0.5077 -0.0895
16502SOL    HW151438   5.421   2.509   3.859  0.7034  1.2918  0.6925
16502SOL    HW251439   5.534   2.580   3.786  1.2914 -1.3207 -1.0879
16503SOL     OW51440   1.404   0.614   2.371 -0.1657 -0.3253 -0.0197
16503SOL    HW151441   1.313   0.641   2.384 -0.2295 -0.1900 -0.6854
16503SOL    HW251442   1.415   0.611   2.275  0.2181 -1.3923  0.0429
16504SOL     OW51443   3.714   1.975   2.570 -0.2340 -0.5605 -0.4177
16504SOL    HW151444   3.648   2.033   2.532 -1.6511 -1.5671  0.3873
16504SOL    HW251445   3.672   1.940   2.649  1.8579 -0.0395  1.0101
16505SOL     OW51446   3.262   4.599   0.045 -0.8952 -0.7707 -0.1532
16505SOL    HW151447   3.336   4.586   0.104 -2.5824 -2.3129  1.7466
16505SOL    HW251448   3.256   4.517  -0.004  0.2571  0.3588 -2.3208
16506SOL     OW51449   5.478   3.497   1.226 -0.0332  0.4301 -0.0603
16506SOL    HW151450   5.559   3.536   1.259 -0.2384  1.2416 -0.4828
16506SOL    HW251451   5.506   3.441   1.154  0.1872  0.4646 -0.0029
16507SOL     OW51452   2.808   8.855   8.646  0.0633  1.1569  0.0932
16507SOL    HW151453   2.840   8.945   8.652  1.4835  0.5854  1.7787
16507SOL    HW251454   2.874   8.810   8.593  2.2927 -0.0291  3.5930
16508SOL     OW51455   6.029   5.589   4.704  0.4979  0.4080 -0.2041
16508SOL    HW151456   6.102   5.596   4.643 -0.7029 -0.6685 -1.8554
16508SOL    HW251457   5.999   5.679   4.717  1.9466  0.8430  0.3512
16509SOL     OW51458   4.728   8.477   4.869  0.3660  0.1988 -0.3897
16509SOL    HW151459   4.667   8.422   4.918 -0.3239 -0.6472 -2.1095
16509SOL    HW251460   4.692   8.565   4.875  0.7171  0.2605  1.2219
16510SOL     OW51461   2.607   8.384   7.791  0.9913 -0.1446 -0.8797
16510SOL    HW151462   2.582   8.308   7.844  1.6370  2.0262  2.9111
16510SOL    HW251463   2.524   8.429   7.774  0.8729 -0.3731 -0.9160
16511SOL     OW51464   7.298   2.586   4.263  0.0531  0.3730 -0.2414
16511SOL    HW151465   7.205   2.580   4.241  0.4018 -0.5681 -1.5869
16511SOL    HW251466   7.316   2.508   4.314  0.1638  0.4203 -0.2081
16512SOL     OW51467   8.305   0.656   7.701  0.1404  0.1154  0.1434
16512SOL    HW151468   8.370   0.668   7.770 -0.1222 -1.7819  0.7849
16512SOL    HW251469   8.228   0.621   7.746  0.5748 -2.9833 -1.2275
16513SOL     OW51470   1.409   1.150   7.724  0.0512  0.4512 -0.4518
16513SOL    HW151471   1.332   1.101   7.695  0.7885  0.5606 -2.7788
16513SOL    HW251472   1.456   1.089   7.782 -0.2076 -0.7704 -1.4906
16514SOL     OW51473   2.536   3.005   3.267 -0.1196 -0.1661 -0.3198
16514SOL    HW151474   2.507   2.993   3.176  2.0873 -1.4475 -0.9108
16514SOL    HW251475   2.630   2.991   3.265  0.3292  1.9354  1.8393
16515SOL     OW51476   6.554   1.694   3.966 -0.0251 -0.4804 -0.0455
16515SOL    HW151477   6.649   1.700   3.965  0.2271 -3.1000  0.0559
16515SOL    HW251478   6.528   1.725   4.053  0.8178 -0.6476  0.2691
16516SOL     OW51479   4.028   1.292   2.397 -0.1355  0.3835  0.1950
16516SOL    HW151480   4.038   1.223   2.463 -1.4308  0.1952  0.2085
16516SOL    HW251481   4.006   1.244   2.317  1.5740  0.5917 -0.4576
16517SOL     OW51482   0.757   4.420   6.400  0.1373  0.3540  0.3596
16517SOL    HW151483   0.804   4.402   6.481 -0.7395  0.4243  0.8941
16517SOL    HW251484   0.782   4.509   6.377  2.8482 -0.6759 -1.1713
16518SOL     OW51485   3.388   4.059   0.736 -0.2927 -0.0891  0.0738
16518SOL    HW151486   3.395   4.072   0.641  1.0775  0.9809  0.2779
16518SOL    HW251487   3.411   4.144   0.773 -0.3669 -0.6190  1.3827
16519SOL     OW51488   4.535   1.496   1.072  0.0307 -0.4177  0.3871
16519SOL    HW151489   4.442   1.500   1.051  0.1128 -0.0825  0.0788
16519SOL    HW251490   4.577   1.472   0.989  0.2378 -0.3404  0.4691
16520SOL     OW51491   8.365   8.826   6.716  0.0033 -0.4013 -0.2702
16520SOL    HW151492   8.305   8.752   6.703  0.3503 -1.1266  1.8570
16520SOL    HW251493   8.374   8.865   6.629 -1.6273 -1.7470 -1.1052
16521SOL     OW51494   4.956   3.973   6.727  0.1459  0.0367 -0.3813
16521SOL    HW151495   4.992   4.002   6.811  1.0952 -0.3277 -0.6431
16521SOL    HW251496   4.970   3.878   6.727  0.5022  0.0865 -1.1042
16522SOL     OW51497   7.071   3.817   0.311  0.1084 -0.1746  0.5934
16522SOL    HW151498   7.043   3.765   0.386  2.0056  0.8493  2.0900
16522SOL    HW251499   7.166   3.803   0.306  0.3054  1.2948 -0.4350
16523SOL     OW51500   7.806   0.984   6.453 -0.3244  0.0683  0.2485
16523SOL    HW151501   7.846   1.056   6.501  0.0450  0.1595 -0.1811
16523SOL    HW251502   7.881   0.936   6.416 -0.6203  0.9795 -1.6379
16524SOL     OW51503   4.045   7.535   4.578 -0.4517  0.6181 -0.0770
16524SOL    HW151504   4.083   7.529   4.666 -0.6583  0.2075 -0.0157
16524SOL    HW251505   3.956   7.504   4.588  0.2717 -1.9229 -0.9144
16525SOL     OW51506   2.839   7.272   5.841 -0.6520 -0.6857 -0.0136
16525SOL    HW151507   2.808   7.284   5.931 -0.6761 -0.9045  0.0085
16525SOL    HW251508   2.934   7.263   5.850 -0.3836  1.4545 -0.2226
16526SOL     OW51509   8.641   1.801   4.259 -0.3436  0.2682  0.4091
16526SOL    HW151510   8.636   1.853   4.339  1.2165 -0.0082  0.7222
16526SOL    HW251511   8.695   1.726   4.283  0.7396  0.5366 -1.0751
16527SOL     OW51512   1.227   6.608   0.336 -0.0960 -0.0656  0.4935
16527SOL    HW151513   1.170   6.650   0.271 -1.0571 -0.5082  1.0238
16527SOL    HW251514   1.195   6.640   0.420 -0.3790 -1.2731  0.8662
16528SOL     OW51515   4.598   8.664   8.826 -0.3032  0.2989 -0.2514
16528SOL    HW151516   4.677   8.612   8.835 -1.1674 -1.1964 -0.8955
16528SOL    HW251517   4.584   8.702   8.913 -0.5641 -1.9490  0.7516
16529SOL     OW51518   8.039   1.079   2.952  0.2686 -0.1510  0.1767
16529SOL    HW151519   8.113   1.138   2.938 -1.5021  1.9371 -1.1722
16529SOL    HW251520   7.987   1.122   3.021 -2.5999  1.7637 -2.8238
16530SOL     OW51521   6.828   5.479   3.360  0.2924  0.1331 -0.1201
16530SOL    HW151522   6.825   5.440   3.447  0.1145 -0.0593 -0.2104
16530SOL    HW251523   6.823   5.573   3.375 -0.4129  0.0715  0.0485
16531SOL     OW51524   4.046   4.948   1.098 -0.1412  0.0197 -0.9768
16531SOL    HW151525   4.053   4.937   1.003 -0.1630  1.5837 -1.1821
16531SOL    HW251526   4.032   5.042   1.111 -0.6342 -0.2273  0.5516
16532SOL     OW51527   7.232   3.854   5.019 -0.0841  0.3714  0.3298
16532SOL    HW151528   7.300   3.790   5.039  0.0808  0.5844  0.4648
16532SOL    HW251529   7.149   3.806   5.029  0.0775 -0.4266 -1.7479
16533SOL     OW51530   4.845   2.264   2.499 -0.4025 -0.1390  0.1153
16533SOL    HW151531   4.792   2.344   2.503 -0.2900 -0.1177  1.9245
16533SOL    HW251532   4.782   2.195   2.476 -0.6628  0.3185 -0.5805
16534SOL     OW51533   7.729   7.846   8.062 -0.6598  0.3463 -0.7489
16534SOL    HW151534   7.687   7.911   8.007  1.2741  2.5731  0.2034
16534SOL    HW251535   7.701   7.868   8.151  1.7894  1.5091 -0.1595
16535SOL     OW51536   8.227   6.924   4.429 -0.1309  0.1759  0.6251
16535SOL    HW151537   8.145   6.952   4.470 -0.6894  0.6887 -0.8091
16535SOL    HW251538   8.212   6.832   4.406 -0.6245  0.5038 -0.3971
16536SOL     OW51539   5.353   3.844   6.744  0.0202 -0.3514 -0.2517
16536SOL    HW151540   5.299   3.791   6.686 -1.1874 -0.6139  1.0694
16536SOL    HW251541   5.312   3.931   6.744  2.0247  0.6913 -2.4585
16537SOL     OW51542   8.000   2.839   7.240  0.0339 -0.0136 -0.6878
16537SOL    HW151543   8.033   2.760   7.283 -1.1453  0.2504  0.7939
16537SOL    HW251544   8.071   2.902   7.249  0.7367 -0.6992 -1.3129
16538SOL     OW51545   3.599   8.534   0.700 -0.4140  0.8882  0.4421
16538SOL    HW151546   3.693   8.521   0.686 -0.9658 -1.8531 -1.7119
16538SOL    HW251547   3.590   8.544   0.795  1.9045 -0.3677  0.8721
16539SOL     OW51548   3.161   3.272   8.636 -0.5088 -0.1375 -0.0962
16539SOL    HW151549   3.230   3.211   8.610  0.8863 -0.1876  3.2002
16539SOL    HW251550   3.085   3.217   8.655  0.1117 -0.6757  0.9090
16540SOL     OW51551   1.422   4.588   3.842 -0.2184  0.2390 -0.1837
16540SOL    HW151552   1.471   4.509   3.819 -1.2551 -0.0754 -1.4291
16540SOL    HW251553   1.377   4.613   3.761 -1.4875  0.9713  0.7080
16541SOL     OW51554   2.142   3.666   4.263 -0.1009 -0.7465  0.3048
16541SOL    HW151555   2.156   3.758   4.284 -1.0067 -1.1476  3.1369
16541SOL    HW251556   2.049   3.660   4.241 -0.0946 -1.0158  0.3462
16542SOL     OW51557   4.080   2.270   8.742 -0.3599 -0.2849 -0.0980
16542SOL    HW151558   4.098   2.318   8.661 -0.6681 -1.0675 -0.6358
16542SOL    HW251559   3.984   2.273   8.751 -0.4069 -1.0684 -0.3041
16543SOL     OW51560   7.199   5.170   7.306  0.7064 -0.1863  0.0543
16543SOL    HW151561   7.235   5.257   7.291 -0.7314  0.1218 -1.9685
16543SOL    HW251562   7.243   5.114   7.242 -0.0129 -0.4536 -0.2245
16544SOL     OW51563   7.375   1.734   4.366 -0.3077  0.1677 -0.1216
16544SOL    HW151564   7.343   1.755   4.278 -0.4358  0.0099 -0.1142
16544SOL    HW251565   7.310   1.672   4.400 -0.5085  0.5846  0.2611
16545SOL     OW51566   4.446   7.650   6.393  0.1144 -0.4883  0.2338
16545SOL    HW151567   4.524   7.701   6.416  0.5090 -0.4159 -1.1486
16545SOL    HW251568   4.373   7.709   6.408  0.5893  0.6299 -1.6202
16546SOL     OW51569   4.678   3.792   8.387 -0.0228 -0.5974 -0.4821
16546SOL    HW151570   4.713   3.822   8.470  0.1978 -1.4272 -0.2637
16546SOL    HW251571   4.589   3.763   8.407 -0.7922  1.2692 -0.9857
16547SOL     OW51572   2.751   0.466   1.414 -0.2370  0.2201 -0.2871
16547SOL    HW151573   2.794   0.551   1.412  2.2939 -0.9702 -0.3812
16547SOL    HW251574   2.821   0.404   1.433 -1.8463 -1.9414 -0.9985
16548SOL     OW51575   3.154   5.764   6.811  0.6218 -0.0320 -0.1978
16548SOL    HW151576   3.219   5.815   6.859  0.2623  1.3607 -1.1413
16548SOL    HW251577   3.069   5.793   6.845  0.4305 -0.6467 -0.1281
16549SOL     OW51578   2.612   5.268   0.085 -0.0392 -0.3196 -0.2465
16549SOL    HW151579   2.657   5.185   0.070 -3.2133 -2.5677  1.5561
16549SOL    HW251580   2.627   5.287   0.177 -1.8804 -0.6353  0.1540
16550SOL     OW51581   7.569   6.254   0.186 -0.2589  0.3365  0.2422
16550SOL    HW151582   7.659   6.235   0.158 -1.1071 -2.0726 -1.1239
16550SOL    HW251583   7.537   6.318   0.123  0.7916  2.0284  1.3695
16551SOL     OW51584   6.579   3.051   1.330 -0.3876  0.2400  0.3163
16551SOL    HW151585   6.498   3.083   1.371  0.2894  0.4035  1.5912
16551SOL    HW251586   6.613   3.126   1.282 -2.8046 -0.7633 -3.3938
16552SOL     OW51587   5.164   6.493   0.251 -0.0427  0.5141 -0.1695
16552SOL    HW151588   5.070   6.486   0.230  0.2056 -0.0454 -1.1811
16552SOL    HW251589   5.183   6.413   0.301 -0.1092  0.6311  0.0419
16553SOL     OW51590   6.763   5.272   6.968 -0.1153 -0.4548  0.7044
16553SOL    HW151591   6.712   5.344   7.006 -0.4477  0.1603 -0.8659
16553SOL    HW251592   6.706   5.233   6.903  1.2671  0.0587 -0.8949
16554SOL     OW51593   6.846   4.270   3.900 -0.3781  0.2925  0.5877
16554SOL    HW151594   6.782   4.226   3.955  0.2420 -0.3984  0.7707
16554SOL    HW251595   6.915   4.205   3.886  0.2696  1.0059  0.3657
16555SOL     OW51596   5.729   8.354   1.882  0.1200  0.0145 -0.7654
16555SOL    HW151597   5.710   8.362   1.975 -0.4688  1.0676 -0.9615
16555SOL    HW251598   5.652   8.390   1.838 -0.0124 -1.3126 -1.6868
16556SOL     OW51599   2.035   6.771   0.405 -0.4318  0.3559 -0.1084
16556SOL    HW151600   1.946   6.776   0.369 -0.6491 -1.0956  0.1620
16556SOL    HW251601   2.065   6.683   0.381  0.8017  0.7096  0.1091
16557SOL     OW51602   0.551   6.682   5.891  0.1232 -0.5630 -0.2821
16557SOL    HW151603   0.511   6.595   5.890  0.6526 -0.8149 -0.4551
16557SOL    HW251604   0.495   6.734   5.947 -0.1892 -1.0278 -0.1574
16558SOL     OW51605   6.357   6.645   0.816 -0.3874 -0.5894  0.1690
16558SOL    HW151606   6.447   6.617   0.795 -0.2066 -0.1277  0.3049
16558SOL    HW251607   6.337   6.600   0.898  0.0902  0.0577  0.6550
16559SOL     OW51608   0.371   8.039   6.963 -0.4060 -0.1876  0.1372
16559SOL    HW151609   0.313   7.964   6.950 -0.5119 -0.2706  1.0698
16559SOL    HW251610   0.402   8.031   7.053  0.6029  0.1807 -0.1635
16560SOL     OW51611   7.873   6.302   3.754 -0.0452  0.4503  0.3388
16560SOL    HW151612   7.832   6.216   3.744  2.6112 -1.0215  1.0748
16560SOL    HW251613   7.822   6.345   3.823 -1.6388 -0.3565 -0.2884
16561SOL     OW51614   5.536   5.521   0.201  0.0553 -0.3647 -0.0574
16561SOL    HW151615   5.466   5.570   0.158  0.1982  1.5867  1.7752
16561SOL    HW251616   5.607   5.519   0.137  0.6927  3.4217  0.3071
16562SOL     OW51617   8.492   0.573   1.821  0.1324 -0.5260  0.2449
16562SOL    HW151618   8.575   0.545   1.858 -0.0887 -2.0404 -0.2902
16562SOL    HW251619   8.430   0.568   1.894  0.2725 -0.5911  0.3604
16563SOL     OW51620   2.919   4.562   3.414 -0.7177  0.0732 -0.0608
16563SOL    HW151621   2.988   4.604   3.361  0.6484 -0.6357  1.0734
16563SOL    HW251622   2.838   4.601   3.383  0.2768  1.6692 -0.7947
16564SOL     OW51623   6.277   3.539   5.557 -0.0349  0.5195  0.3409
16564SOL    HW151624   6.249   3.544   5.466  0.4671 -1.0736  0.0672
16564SOL    HW251625   6.366   3.574   5.557  0.9912 -1.8911 -0.3272
16565SOL     OW51626   0.175   0.426   3.903 -0.6899  0.5270  0.8525
16565SOL    HW151627   0.085   0.393   3.907 -0.1574 -0.9433  1.3811
16565SOL    HW251628   0.183   0.481   3.981 -1.7924  2.5565 -0.3853
16566SOL     OW51629   7.108   1.542   2.459 -0.6434 -0.1405  0.9054
16566SOL    HW151630   7.059   1.461   2.465 -0.3709 -0.7155 -2.6343
16566SOL    HW251631   7.043   1.609   2.439 -0.3271 -0.5204 -1.6151
16567SOL     OW51632   1.907   8.768   8.594 -0.3160  0.4867  0.4628
16567SOL    HW151633   1.998   8.748   8.573 -0.1369  1.0439  0.7121
16567SOL    HW251634   1.901   8.863   8.591 -0.9815  0.4432  0.0770
16568SOL     OW51635   2.811   7.009   8.310 -0.1418 -0.3965 -1.0418
16568SOL    HW151636   2.719   7.013   8.336  1.0505  0.2594  4.2379
16568SOL    HW251637   2.840   6.922   8.339  1.2098 -0.0735 -1.3543
16569SOL     OW51638   6.328   7.738   6.815  0.0028  0.0661 -0.3718
16569SOL    HW151639   6.279   7.818   6.795 -0.1885 -0.2113 -1.0303
16569SOL    HW251640   6.394   7.732   6.747  0.2805 -0.1204 -0.0888
16570SOL     OW51641   6.699   6.789   5.068  0.1517 -0.2319  0.3367
16570SOL    HW151642   6.730   6.710   5.024  2.6469 -0.2332  1.9138
16570SOL    HW251643   6.769   6.853   5.055 -0.5636  0.8380  1.4825
16571SOL     OW51644   2.842   5.613   4.092 -0.2988  0.0684  0.1331
16571SOL    HW151645   2.806   5.659   4.168 -0.7428 -0.4193  0.2262
16571SOL    HW251646   2.912   5.559   4.128 -2.4111 -2.4792  0.7676
16572SOL     OW51647   3.951   3.861   8.341  0.1213 -0.1633  0.3299
16572SOL    HW151648   4.042   3.887   8.325 -0.9866  2.7302 -2.2051
16572SOL    HW251649   3.932   3.798   8.271 -0.8969  2.4190 -1.8800
16573SOL     OW51650   8.305   3.308   8.367 -0.3427 -0.2595  0.3354
16573SOL    HW151651   8.289   3.350   8.283  0.1906 -0.3879  0.1673
16573SOL    HW251652   8.398   3.325   8.386 -0.3204 -0.6914  0.6366
16574SOL     OW51653   2.796   7.946   6.303 -0.3337 -0.1970  0.0267
16574SOL    HW151654   2.817   7.991   6.222  0.1514  0.4101  0.4770
16574SOL    HW251655   2.859   7.875   6.309  0.0212  0.1227  0.1581
16575SOL     OW51656   0.670   5.676   5.157  0.1891 -0.3016 -0.0636
16575SOL    HW151657   0.638   5.698   5.070  0.5839 -0.2539 -0.1986
16575SOL    HW251658   0.665   5.758   5.206 -0.6669 -0.4816  0.1576
16576SOL     OW51659   5.823   4.196   1.909 -0.2470  0.5865 -0.2533
16576SOL    HW151660   5.917   4.213   1.906 -0.2303  1.2687  2.1513
16576SOL    HW251661   5.784   4.270   1.862  0.3610  1.2648  0.2812
16577SOL     OW51662   7.586   4.570   7.660 -0.0769  0.9261  0.1375
16577SOL    HW151663   7.570   4.482   7.627 -0.4548  1.0489 -0.0147
16577SOL    HW251664   7.622   4.557   7.748  0.3164  0.6105 -0.0655
16578SOL     OW51665   8.863   7.638   0.474 -0.1473 -0.4577  0.3267
16578SOL    HW151666   8.832   7.571   0.413  2.4014 -0.4120 -1.1639
16578SOL    HW251667   8.814   7.717   0.449  1.3880 -0.2238 -2.3566
16579SOL     OW51668   3.044   4.723   8.115  1.0692  0.1171 -0.3891
16579SOL    HW151669   3.102   4.794   8.091  1.2327  1.0453  2.4186
16579SOL    HW251670   3.099   4.661   8.163  0.1314  0.1741  0.8226
16580SOL     OW51671   7.610   2.151   8.297  0.3843 -0.1587 -0.1543
16580SOL    HW151672   7.652   2.065   8.295  0.5364 -0.1639  1.5237
16580SOL    HW251673   7.679   2.212   8.271  0.9975 -0.3401  0.9495
16581SOL     OW51674   0.479   8.830   8.796 -0.2453  0.1719 -0.4344
16581SOL    HW151675   0.540   8.902   8.811  0.4064 -0.3943 -0.3492
16581SOL    HW251676   0.528   8.768   8.741 -0.7338 -0.2949 -0.3505
16582SOL     OW51677   3.792   7.260   1.981  1.4081 -0.3656  0.3511
16582SOL    HW151678   3.835   7.223   1.903  1.4373 -1.6834  0.9663
16582SOL    HW251679   3.862   7.264   2.047  1.3479  0.5993  0.3694
16583SOL     OW51680   4.837   7.228   4.870  0.1030 -0.4581 -0.1343
16583SOL    HW151681   4.876   7.141   4.869 -1.7639 -1.3295 -0.3444
16583SOL    HW251682   4.820   7.248   4.778 -0.9163 -0.5598  0.0267
16584SOL     OW51683   7.859   2.040   4.821  0.2665  0.3520 -0.3485
16584SOL    HW151684   7.819   2.127   4.829  0.8289  0.5737  0.1146
16584SOL    HW251685   7.906   2.043   4.738  1.6124  1.0545  0.4100
16585SOL     OW51686   0.823   6.794   2.786 -0.4102  0.4572  0.5193
16585SOL    HW151687   0.897   6.768   2.731 -1.6074  1.7591 -1.8671
16585SOL    HW251688   0.746   6.777   2.732 -1.8032  0.4794  2.3897
16586SOL     OW51689   3.356   4.812   1.640 -0.2707 -0.3023  0.0604
16586SOL    HW151690   3.313   4.728   1.623  1.6730 -1.3954  0.2631
16586SOL    HW251691   3.445   4.789   1.669  0.2842  1.8194  0.2478
16587SOL     OW51692   7.247   6.834   2.797  0.1770 -0.1572 -0.8396
16587SOL    HW151693   7.217   6.901   2.857 -0.1055 -0.4029 -0.7052
16587SOL    HW251694   7.340   6.823   2.818 -0.0997 -0.8122  0.1007
16588SOL     OW51695   7.000   3.797   4.812 -0.3229  0.0700  0.1168
16588SOL    HW151696   7.080   3.745   4.805 -0.3380  0.2022 -1.3187
16588SOL    HW251697   6.932   3.734   4.836 -0.2326 -0.5019 -1.0530
16589SOL     OW51698   8.627   7.881   8.152  0.1421  0.3055  0.3119
16589SOL    HW151699   8.600   7.821   8.083  3.2464 -2.0695  0.9180
16589SOL    HW251700   8.692   7.937   8.111  0.4895  0.2714  0.8067
16590SOL     OW51701   2.119   2.976   8.490  0.2699 -0.1170  0.1506
16590SOL    HW151702   2.141   3.049   8.548 -1.2591 -0.6245  1.4587
16590SOL    HW251703   2.131   3.011   8.402  0.9116  1.2688  0.7608
16591SOL     OW51704   0.351   5.134   3.994  0.0680 -0.5089  0.6149
16591SOL    HW151705   0.432   5.114   3.947  0.3058 -1.3691  1.3485
16591SOL    HW251706   0.308   5.201   3.941  0.6120 -1.0055 -0.4833
16592SOL     OW51707   2.618   2.254   4.403  0.7502  0.2600 -1.0877
16592SOL    HW151708   2.692   2.294   4.356  2.2505 -0.5812  0.4368
16592SOL    HW251709   2.642   2.262   4.495 -0.5614 -1.0272 -0.6118
16593SOL     OW51710   3.085   1.463   6.846  0.6785 -0.9215  0.1393
16593SOL    HW151711   3.088   1.557   6.865 -2.2998  0.0422 -3.1711
16593SOL    HW251712   3.147   1.451   6.774  0.0266 -1.1878 -0.3895
16594SOL     OW51713   5.661   3.232   6.075 -0.2801 -0.0673 -0.4253
16594SOL    HW151714   5.578   3.186   6.089 -1.4956  1.7330 -1.3355
16594SOL    HW251715   5.688   3.205   5.987  0.3319 -0.9504  0.0187
16595SOL     OW51716   7.838   6.383   3.437 -0.0129 -0.4255 -0.1338
16595SOL    HW151717   7.785   6.393   3.357 -0.4203 -0.5858  0.1141
16595SOL    HW251718   7.775   6.355   3.504  0.1197  0.7537  0.5090
16596SOL     OW51719   7.201   2.387   0.194 -0.0641  0.0779  0.0441
16596SOL    HW151720   7.260   2.312   0.183 -0.6126 -0.3517 -0.0305
16596SOL    HW251721   7.236   2.434   0.269 -0.0206 -0.5599  0.4319
16597SOL     OW51722   2.742   4.366   6.955  0.1966 -0.2924 -0.3228
16597SOL    HW151723   2.713   4.390   7.043 -0.9430  0.0969 -0.7862
16597SOL    HW251724   2.661   4.345   6.908  0.6828  0.5453 -1.5807
16598SOL     OW51725   7.317   5.381   8.584 -0.4314 -0.2097 -0.8148
16598SOL    HW151726   7.402   5.394   8.540 -0.7808  0.2108 -1.3856
16598SOL    HW251727   7.286   5.297   8.550 -0.6732  0.0860 -1.3422
16599SOL     OW51728   0.898   2.416   3.049  0.0850  0.3391 -0.4172
16599SOL    HW151729   0.888   2.510   3.064 -2.1925  0.4548 -2.1690
16599SOL    HW251730   0.842   2.375   3.114 -0.0495  0.2559 -0.5849
16600SOL     OW51731   4.406   5.814   4.398  0.4072 -0.0127  0.3970
16600SOL    HW151732   4.478   5.845   4.454  0.5550 -0.3704  0.4085
16600SOL    HW251733   4.395   5.883   4.333  0.6750  0.1054  0.4751
16601SOL     OW51734   3.686   5.581   7.573 -0.3480  0.1658 -0.4323
16601SOL    HW151735   3.635   5.618   7.502  0.4052 -0.9868 -1.6210
16601SOL    HW251736   3.770   5.628   7.571 -0.3120  0.1074 -0.3345
16602SOL     OW51737   8.049   2.507   7.858  0.0203  0.1287 -0.1311
16602SOL    HW151738   8.001   2.560   7.794  0.3969 -0.1981 -0.6955
16602SOL    HW251739   8.076   2.569   7.926 -1.3953  0.2866  0.3282
16603SOL     OW51740   2.619   8.789   1.981  0.4246  0.3529  0.0280
16603SOL    HW151741   2.545   8.797   1.921 -0.1851  0.7496  0.8081
16603SOL    HW251742   2.640   8.695   1.980 -1.4955 -0.1516  1.3921
16604SOL     OW51743   7.261   3.462   8.721  0.1569 -0.0993 -0.3414
16604SOL    HW151744   7.179   3.412   8.724  0.0801  0.0175 -0.4462
16604SOL    HW251745   7.317   3.413   8.661 -0.3084  0.5094 -1.3103
16605SOL     OW51746   6.287   7.170   7.374  0.1074 -0.2934  0.0791
16605SOL    HW151747   6.363   7.182   7.431 -0.0708 -0.3142  0.3194
16605SOL    HW251748   6.213   7.206   7.424 -0.0173 -0.1361 -0.2136
16606SOL     OW51749   5.374   2.162   2.058  0.1085 -0.2295 -0.4168
16606SOL    HW151750   5.430   2.089   2.086  0.3244 -0.4821 -1.4489
16606SOL    HW251751   5.292   2.121   2.031 -0.2089  0.0377  0.1398
16607SOL     OW51752   3.249   7.519   0.596 -0.2519  0.0081 -0.1070
16607SOL    HW151753   3.319   7.462   0.566 -0.0649 -0.5340  1.2607
16607SOL    HW251754   3.266   7.530   0.690 -0.3962  2.1693 -0.2976
16608SOL     OW51755   8.418   7.274   8.774  0.2131  0.7696  0.3840
16608SOL    HW151756   8.470   7.273   8.693  0.6072  1.8587  0.5994
16608SOL    HW251757   8.483   7.269   8.844 -0.2249 -2.8573  0.7026
16609SOL     OW51758   2.873   5.126   8.272 -0.1837  0.4896  0.2680
16609SOL    HW151759   2.948   5.178   8.243  1.5669 -1.6999  0.6364
16609SOL    HW251760   2.866   5.056   8.207 -1.3278  0.1192  0.7703
16610SOL     OW51761   0.102   0.403   1.878  0.1010 -0.9046 -0.2394
16610SOL    HW151762   0.145   0.318   1.888  2.1058 -0.2876 -2.5310
16610SOL    HW251763   0.037   0.389   1.809 -0.9556 -0.9965  0.7475
16611SOL     OW51764   7.216   7.787   5.020  0.4214 -0.0882  0.1712
16611SOL    HW151765   7.220   7.714   4.958  2.0384 -0.6519  0.8884
16611SOL    HW251766   7.278   7.851   4.984  0.2854  0.1899  0.4377
16612SOL     OW51767   6.764   0.149   3.945 -0.7965 -0.2354 -0.1027
16612SOL    HW151768   6.826   0.210   3.905 -0.5787  1.5016  2.6025
16612SOL    HW251769   6.818   0.079   3.982 -0.7703 -0.4827 -0.6046
16613SOL     OW51770   6.755   8.377   0.165 -0.4490  0.0661  0.5996
16613SOL    HW151771   6.671   8.379   0.120 -0.3044 -1.0259  0.2433
16613SOL    HW251772   6.820   8.373   0.094 -0.1806 -0.7075  0.8722
16614SOL     OW51773   7.882   7.481   4.080 -0.0265 -0.2252 -0.0319
16614SOL    HW151774   7.940   7.416   4.040  0.3968 -0.8562  1.5368
16614SOL    HW251775   7.931   7.512   4.156 -0.1946  1.9975 -0.7627
16615SOL     OW51776   3.773   7.414   6.736  0.1269  0.8111 -0.1718
16615SOL    HW151777   3.753   7.329   6.775  1.0211  1.3489  1.5881
16615SOL    HW251778   3.777   7.474   6.811  1.0778  2.0897 -1.1936
16616SOL     OW51779   0.251   6.761   8.145 -1.0624 -0.2651  0.3917
16616SOL    HW151780   0.179   6.729   8.090 -0.6710  0.0180 -0.2944
16616SOL    HW251781   0.219   6.845   8.179 -1.0567 -0.1245  0.0628
16617SOL     OW51782   7.100   3.562   2.775 -0.0564  0.1035  0.1619
16617SOL    HW151783   7.087   3.635   2.835  1.5389 -0.7603  1.6689
16617SOL    HW251784   7.120   3.488   2.832 -1.4170 -1.4753 -1.3306
16618SOL     OW51785   0.159   7.286   0.026 -0.1728  0.1068  0.1780
16618SOL    HW151786   0.109   7.363   0.052 -0.2916  0.1816 -0.2689
16618SOL    HW251787   0.179   7.300  -0.066 -1.9377 -1.3213 -0.5003
16619SOL     OW51788   2.775   4.621   5.892  0.3282  0.4831  0.2669
16619SOL    HW151789   2.838   4.599   5.960  0.5163 -2.5019 -0.7129
16619SOL    HW251790   2.691   4.627   5.938  0.4624 -1.4199  0.8536
16620SOL     OW51791   2.980   1.224   7.192 -0.0310 -0.1797  0.2008
16620SOL    HW151792   2.975   1.189   7.103 -0.4778 -1.5019  0.7230
16620SOL    HW251793   2.913   1.293   7.194 -0.6269 -0.7295 -0.2445
16621SOL     OW51794   3.544   0.416   3.695  0.0328 -0.4774 -0.2553
16621SOL    HW151795   3.591   0.334   3.680 -0.2637 -0.8840  0.9058
16621SOL    HW251796   3.474   0.416   3.630  0.4781 -0.7830 -0.7467
16622SOL     OW51797   5.508   8.294   5.393  0.5303  0.1026 -0.0394
16622SOL    HW151798   5.462   8.321   5.314 -1.3756  1.0324  1.3328
16622SOL    HW251799   5.442   8.248   5.445  1.5430  0.1412  1.3393
16623SOL     OW51800   4.256   3.484   6.816 -0.0773  0.2315  0.0685
16623SOL    HW151801   4.295   3.436   6.742  0.3395 -1.1566  1.1446
16623SOL    HW251802   4.179   3.526   6.779  0.0443 -0.5452 -1.1395
16624SOL     OW51803   4.699   0.507   8.094 -0.0025  0.1983  0.2544
16624SOL    HW151804   4.704   0.459   8.011 -3.1005 -0.4158  0.2973
16624SOL    HW251805   4.703   0.599   8.068  2.1427  0.0183 -0.2091
16625SOL     OW51806   1.109   4.362   2.818 -0.0845 -0.3711  0.3134
16625SOL    HW151807   1.139   4.358   2.727  0.1729  3.0853  0.1138
16625SOL    HW251808   1.014   4.359   2.812 -0.0415 -1.2530  0.0350
16626SOL     OW51809   2.278   6.969   2.460  0.1838  0.5501  0.0961
16626SOL    HW151810   2.306   6.991   2.548  1.8226  3.1661 -0.9572
16626SOL    HW251811   2.323   6.886   2.441  2.4819  1.5674  0.6526
16627SOL     OW51812   5.845   4.304   4.825 -0.4768  0.2837 -0.1823
16627SOL    HW151813   5.823   4.243   4.755  1.1187 -0.2019 -0.3176
16627SOL    HW251814   5.812   4.262   4.905 -2.1344  0.7523 -0.5835
16628SOL     OW51815   6.230   8.615   0.316  0.2682  0.1559  0.1975
16628SOL    HW151816   6.205   8.523   0.326 -1.6707  0.6418  0.2308
16628SOL    HW251817   6.163   8.664   0.365 -1.4891  1.8213 -3.4429
16629SOL     OW51818   6.726   7.177   0.166 -0.2052  0.4184  0.3514
16629SOL    HW151819   6.705   7.265   0.197 -2.9343  0.1458 -0.5088
16629SOL    HW251820   6.715   7.181   0.071  2.0027 -0.3065 -0.0014
16630SOL     OW51821   4.448   6.325   8.529 -0.1576  0.4346  0.1006
16630SOL    HW151822   4.420   6.367   8.448 -1.1565  0.2722  0.3428
16630SOL    HW251823   4.531   6.367   8.552 -1.5001  2.8719  0.7719
16631SOL     OW51824   4.101   6.806   2.150 -0.1489 -0.4973 -0.2204
16631SOL    HW151825   4.174   6.808   2.088  0.1062  3.3479 -0.0211
16631SOL    HW251826   4.136   6.757   2.225  1.7804  0.0655 -0.6795
16632SOL     OW51827   2.166   8.060   1.053  0.3931  0.0294 -0.6066
16632SOL    HW151828   2.144   8.149   1.025 -2.0143 -0.0526  0.7509
16632SOL    HW251829   2.095   8.006   1.019  0.9647 -1.1285 -0.0193
16633SOL     OW51830   8.773   5.617   5.247 -0.0110  0.0339  0.0274
16633SOL    HW151831   8.788   5.628   5.342  0.9085  1.3318 -0.2356
16633SOL    HW251832   8.856   5.643   5.207 -0.2203 -0.9967 -1.1256
16634SOL     OW51833   0.918   0.047   2.221  0.3210  0.4344 -0.1087
16634SOL    HW151834   0.928   0.089   2.306  0.9476 -0.0122  0.0506
16634SOL    HW251835   0.928   0.117   2.158 -0.4212  0.8174  0.1885
16635SOL     OW51836   4.548   2.761   2.694  0.4040  0.6828  0.0669
16635SOL    HW151837   4.528   2.774   2.787  1.0003  0.3225  0.2518
16635SOL    HW251838   4.602   2.836   2.670 -0.4693  1.2367 -0.2258
16636SOL     OW51839   5.399   3.663   1.004  0.9565 -0.3297  0.4579
16636SOL    HW151840   5.411   3.610   1.083  0.2322 -0.1023  0.7217
16636SOL    HW251841   5.358   3.744   1.035 -0.1224 -0.5854 -0.2512
16637SOL     OW51842   7.611   6.799   0.622 -0.7480 -0.7009  0.2359
16637SOL    HW151843   7.637   6.737   0.690  0.3814 -1.4149 -0.7995
16637SOL    HW251844   7.597   6.744   0.545 -0.2824  0.2729 -0.5600
16638SOL     OW51845   3.068   0.495   2.143  0.0655  0.0639 -0.3814
16638SOL    HW151846   3.012   0.513   2.219  0.8394 -0.3371  0.3050
16638SOL    HW251847   3.021   0.428   2.094 -2.4450  3.1252 -2.5152
16639SOL     OW51848   5.034   7.901   2.127 -0.2092  0.3371  0.1373
16639SOL    HW151849   5.116   7.867   2.164 -0.5073 -1.6475 -0.8678
16639SOL    HW251850   4.966   7.860   2.179 -0.5812  0.1977 -0.4519
16640SOL     OW51851   2.051   6.777   2.433 -0.2911  0.2491 -0.1326
16640SOL    HW151852   2.092   6.854   2.472 -4.4144  1.5527  2.2566
16640SOL    HW251853   2.059   6.710   2.501  1.3140 -0.8127 -1.3112
16641SOL     OW51854   3.395   4.732   7.971 -0.1047 -0.3819  0.1272
16641SOL    HW151855   3.471   4.769   7.926 -0.6895  0.0291 -0.5424
16641SOL    HW251856   3.341   4.809   7.992 -0.3344 -0.6697  0.5924
16642SOL     OW51857   4.222   6.437   0.360 -0.1180  0.0923  0.3280
16642SOL    HW151858   4.250   6.423   0.270  0.9076  0.3527  0.5925
16642SOL    HW251859   4.129   6.414   0.360 -1.0624  3.1696 -1.5671
16643SOL     OW51860   5.886   1.147   8.008 -0.3587 -0.6022 -0.5264
16643SOL    HW151861   5.861   1.230   7.968  0.1861  0.2991  0.9232
16643SOL    HW251862   5.817   1.085   7.981 -0.5354  0.1812 -1.9813
16644SOL     OW51863   3.499   6.710   8.019  0.2851 -0.1459 -0.0240
16644SOL    HW151864   3.516   6.791   8.066 -0.0310 -0.7980  1.2439
16644SOL    HW251865   3.404   6.709   8.006  0.2077 -0.6205  0.5473
16645SOL     OW51866   4.409   2.407   7.407  0.6971 -0.0617 -0.2776
16645SOL    HW151867   4.489   2.356   7.416  1.7420  1.3134 -1.3331
16645SOL    HW251868   4.398   2.451   7.491  2.9503  2.3204 -1.1082
16646SOL     OW51869   8.795   0.208   3.013 -0.4006  0.4454  0.3166
16646SOL    HW151870   8.720   0.149   3.009 -0.2059  0.2478 -1.2035
16646SOL    HW251871   8.825   0.215   2.922  1.8482 -0.0283  0.9544
16647SOL     OW51872   0.985   3.480   4.074 -0.1309 -0.1482  0.1576
16647SOL    HW151873   0.895   3.508   4.089  0.3484  1.5276  0.1286
16647SOL    HW251874   1.032   3.505   4.153  0.2262 -1.5517  0.4279
16648SOL     OW51875   0.448   1.090   0.295 -0.4016 -0.4093  0.4910
16648SOL    HW151876   0.476   1.156   0.359  0.3313 -0.6113  0.3911
16648SOL    HW251877   0.365   1.124   0.261 -0.1116  0.3958  0.5490
16649SOL     OW51878   3.614   0.538   4.552 -0.4426  0.5181  0.4690
16649SOL    HW151879   3.696   0.518   4.508 -0.6182 -0.6181  0.6349
16649SOL    HW251880   3.639   0.550   4.644 -0.1460  2.4289  0.1787
16650SOL     OW51881   2.001   6.016   7.149  0.2862  0.3072  0.0577
16650SOL    HW151882   1.974   5.944   7.207 -0.7122  0.1981 -0.5113
16650SOL    HW251883   1.947   6.090   7.176 -0.2189  0.2435 -0.7354
16651SOL     OW51884   3.503   4.549   0.197  0.6385  0.6511  0.0527
16651SOL    HW151885   3.528   4.459   0.213 -1.9349  0.2212  2.3377
16651SOL    HW251886   3.505   4.591   0.283 -0.3310  2.1615 -0.6116
16652SOL     OW51887   4.023   2.818   3.132 -0.1409  0.1393 -0.0345
16652SOL    HW151888   3.987   2.905   3.115 -1.7314  0.1533  2.7864
16652SOL    HW251889   3.972   2.759   3.076 -2.1663  0.6057  1.2036
16653SOL     OW51890   3.385   6.448   5.859  0.2076 -0.0797 -0.4482
16653SOL    HW151891   3.420   6.359   5.858 -0.8240 -0.5094 -0.2140
16653SOL    HW251892   3.291   6.437   5.842  0.1868  1.0293 -1.1265
16654SOL     OW51893   2.860   5.217   4.096 -0.1244 -0.4438  0.2334
16654SOL    HW151894   2.844   5.259   4.011  3.1136  1.9494  0.5837
16654SOL    HW251895   2.915   5.142   4.075 -0.2528 -0.5025  0.1043
16655SOL     OW51896   2.489   2.931   8.861 -0.5802  0.3489 -0.3800
16655SOL    HW151897   2.451   2.936   8.949  1.4796 -0.1745  0.6189
16655SOL    HW251898   2.441   2.861   8.818 -0.8164 -0.2341  0.7858
16656SOL     OW51899   4.559   8.493   1.676  0.0595  0.1615  0.1245
16656SOL    HW151900   4.565   8.413   1.729 -2.3341 -1.3127 -1.6154
16656SOL    HW251901   4.522   8.558   1.736  3.3700  0.5497  1.9872
16657SOL     OW51902   5.337   5.393   6.144  0.8592 -0.2072 -0.7659
16657SOL    HW151903   5.421   5.359   6.111  0.2590 -2.0668 -0.5200
16657SOL    HW251904   5.311   5.331   6.212 -0.6177  0.4591 -0.6764
16658SOL     OW51905   0.888   2.274   7.535  0.0692  0.1450 -0.1756
16658SOL    HW151906   0.907   2.368   7.536 -0.5546  0.2790 -0.3867
16658SOL    HW251907   0.916   2.245   7.448 -1.1963  0.4593 -0.7089
16659SOL     OW51908   2.432   0.141   6.372 -0.1008 -0.0356  0.1632
16659SOL    HW151909   2.503   0.197   6.343  0.6682 -0.7213  0.6659
16659SOL    HW251910   2.476   0.067   6.415 -1.1333  0.0969  1.5080
16660SOL     OW51911   4.624   7.907   5.731  0.2455 -0.6214  0.3576
16660SOL    HW151912   4.693   7.884   5.668 -0.5738 -2.1780 -0.0242
16660SOL    HW251913   4.581   7.984   5.692 -1.4650 -2.6319 -2.0726
16661SOL     OW51914   7.453   3.307   8.396 -0.0039  0.6483 -0.3145
16661SOL    HW151915   7.397   3.268   8.463 -0.9951  1.7051 -0.4916
16661SOL    HW251916   7.427   3.265   8.315 -0.2639  0.8459 -0.3346
16662SOL     OW51917   6.178   3.989   3.025 -0.0672  0.0104  0.0293
16662SOL    HW151918   6.166   4.053   3.095  0.1240 -0.1514  0.2151
16662SOL    HW251919   6.266   3.955   3.039  0.1060  0.2326 -0.5114
16663SOL     OW51920   7.967   7.840   0.425 -0.3551 -0.1277 -0.0098
16663SOL    HW151921   7.922   7.757   0.441 -1.8834  0.5991 -0.3413
16663SOL    HW251922   7.926   7.875   0.346  1.0021  0.4564 -0.4929
16664SOL     OW51923   8.443   0.585   4.305 -0.4516  0.0352 -0.1851
16664SOL    HW151924   8.390   0.655   4.342 -0.8645 -0.4911  0.2502
16664SOL    HW251925   8.533   0.616   4.312 -0.5687  0.1941  0.7429
16665SOL     OW51926   6.746   2.884   7.664 -0.5521 -0.1090  0.0160
16665SOL    HW151927   6.757   2.964   7.612 -1.5082 -1.7525 -2.9667
16665SOL    HW251928   6.652   2.866   7.660 -0.3182 -1.5186  0.3534
16666SOL     OW51929   4.650   8.719   6.383  0.1561  0.3447 -0.5998
16666SOL    HW151930   4.661   8.630   6.416  2.1972  0.8835  0.2877
16666SOL    HW251931   4.602   8.765   6.452 -2.0167 -0.2865 -1.5716
16667SOL     OW51932   5.522   1.935   7.080  0.5956  0.3501  0.3979
16667SOL    HW151933   5.567   1.887   7.150 -2.0221  0.5592  2.3706
16667SOL    HW251934   5.530   2.027   7.106  0.9091  0.5763 -0.4519
16668SOL     OW51935   8.846   4.255   3.689 -0.5176  0.5694  0.5794
16668SOL    HW151936   8.912   4.313   3.652 -0.7327 -0.1209 -0.9772
16668SOL    HW251937   8.896   4.192   3.742  0.0771  0.1384 -0.4674
16669SOL     OW51938   7.301   7.334   2.572 -1.0478  0.4722 -0.1073
16669SOL    HW151939   7.318   7.304   2.483 -0.3795 -0.5114  0.3322
16669SOL    HW251940   7.367   7.401   2.589  2.9562 -3.3994  1.6339
16670SOL     OW51941   2.060   5.820   1.460 -0.0696  0.2438  0.1123
16670SOL    HW151942   1.984   5.863   1.419  1.3962  1.6922 -1.2225
16670SOL    HW251943   2.088   5.755   1.395  0.7148  0.7755 -0.1016
16671SOL     OW51944   5.813   0.446   2.923  0.0645  0.0663  0.3833
16671SOL    HW151945   5.892   0.476   2.878 -0.2192 -0.0927 -0.2296
16671SOL    HW251946   5.778   0.524   2.966 -0.8810  0.7178 -1.5029
16672SOL     OW51947   7.933   5.334   7.998  0.2348 -0.0496 -0.1535
16672SOL    HW151948   7.957   5.251   8.039  0.4829 -0.3682 -0.9277
16672SOL    HW251949   7.868   5.372   8.057 -0.1571 -0.9711  0.0237
16673SOL     OW51950   3.773   1.429   1.010 -0.7746 -0.2201  0.1771
16673SOL    HW151951   3.723   1.510   1.022 -1.2399 -0.5919  0.7619
16673SOL    HW251952   3.747   1.399   0.922 -1.7104 -0.4923  0.5324
16674SOL     OW51953   7.114   8.318   5.313  0.5609 -0.1875 -0.1385
16674SOL    HW151954   7.109   8.264   5.234 -3.0013 -0.2642 -0.0352
16674SOL    HW251955   7.076   8.402   5.287  0.5622  0.2296  1.1432
16675SOL     OW51956   5.465   0.991   4.185 -0.0782  0.1157 -0.2478
16675SOL    HW151957   5.444   1.083   4.171 -0.6380  0.4063  2.0228
16675SOL    HW251958   5.455   0.950   4.099  0.0354  2.1234 -1.2736
16676SOL     OW51959   3.081   0.157   7.238  0.3078 -0.4453 -0.1215
16676SOL    HW151960   3.143   0.146   7.166  0.4312  0.3053 -0.1427
16676SOL    HW251961   3.129   0.208   7.303 -0.9161  2.0470 -1.0287
16677SOL     OW51962   1.281   7.033   0.707 -0.3867  0.1049 -0.2744
16677SOL    HW151963   1.365   6.986   0.710  0.3143  1.1579 -1.9077
16677SOL    HW251964   1.268   7.064   0.797 -0.1638 -1.9232  0.5186
16678SOL     OW51965   5.312   3.589   7.274  0.1143  0.0873  0.3665
16678SOL    HW151966   5.333   3.650   7.204  0.4219  0.0766  0.4492
16678SOL    HW251967   5.240   3.631   7.321  0.5985  0.5907  0.6781
16679SOL     OW51968   0.738   7.433   1.333 -0.2019 -0.3077 -0.5163
16679SOL    HW151969   0.711   7.389   1.252 -1.4674 -1.8333  0.6530
16679SOL    HW251970   0.812   7.381   1.365 -1.4459 -1.4441  0.6646
16680SOL     OW51971   6.668   8.002   8.801 -0.4479 -0.4888  0.0166
16680SOL    HW151972   6.757   7.965   8.799  0.3574  1.2184 -3.3129
16680SOL    HW251973   6.616   7.942   8.749 -0.8169 -0.5586  0.4666
16681SOL     OW51974   3.326   6.095   7.467  0.4468  0.5985 -0.2507
16681SOL    HW151975   3.406   6.044   7.480  0.3157  0.4422 -0.0479
16681SOL    HW251976   3.257   6.030   7.455 -0.2115  0.5803  2.6824
16682SOL     OW51977   6.867   1.844   8.546 -0.5643 -0.0130  0.8474
16682SOL    HW151978   6.949   1.799   8.568 -0.9112 -0.4186  1.3220
16682SOL    HW251979   6.866   1.846   8.450 -0.2846 -0.5358  0.8307
16683SOL     OW51980   1.636   1.924   5.989  0.4436 -0.0954 -0.1264
16683SOL    HW151981   1.725   1.956   5.975 -0.2517  1.6657 -0.8745
16683SOL    HW251982   1.592   1.995   6.035 -0.7927 -0.6049 -0.4896
16684SOL     OW51983   2.189   4.952   0.331  0.1568 -0.0571  0.8043
16684SOL    HW151984   2.116   4.905   0.370 -0.5850  0.6196  0.2532
16684SOL    HW251985   2.162   5.043   0.331  0.7910  0.1411  0.1417
16685SOL     OW51986   7.474   1.041   4.333  0.7481 -0.0283  0.0538
16685SOL    HW151987   7.385   1.033   4.299  0.7519  1.2865 -0.3018
16685SOL    HW251988   7.498   1.132   4.318  2.0787 -0.3042  0.3491
16686SOL     OW51989   7.779   2.361   4.034  0.3732 -0.0910  0.6489
16686SOL    HW151990   7.785   2.388   3.942 -1.6755 -1.3299  0.0656
16686SOL    HW251991   7.737   2.435   4.078  1.1006  0.3959  0.5264
16687SOL     OW51992   5.636   6.626   5.778 -0.0842  0.2497  0.0576
16687SOL    HW151993   5.610   6.607   5.868  0.1899  2.5209  0.6841
16687SOL    HW251994   5.696   6.701   5.785  2.1397 -1.1964 -1.8156
16688SOL     OW51995   0.775   4.925   1.236 -0.3227 -0.5117 -0.6762
16688SOL    HW151996   0.828   4.926   1.156 -1.2851  0.8980 -1.3529
16688SOL    HW251997   0.803   5.004   1.283 -0.9499 -0.4287 -0.4437
16689SOL     OW51998   7.516   6.244   7.923  0.4099 -0.2440  0.3025
16689SOL    HW151999   7.540   6.159   7.888 -0.3238 -0.2704 -0.1647
16689SOL    HW252000   7.494   6.228   8.014 -2.5395 -1.1269 -0.4637
16690SOL     OW52001   8.089   8.668   6.440 -0.4635  0.8187  0.5354
16690SOL    HW152002   8.026   8.596   6.432  0.0838  0.4291 -0.4119
16690SOL    HW252003   8.128   8.676   6.353 -0.3847  2.1569  0.6636
16691SOL     OW52004   0.664   0.933   1.535  0.1182  0.2450  0.0649
16691SOL    HW152005   0.573   0.954   1.554  0.9004  1.8619  2.5938
16691SOL    HW252006   0.666   0.913   1.442 -2.4137  2.4933 -0.5729
16692SOL     OW52007   0.587   3.037   5.426 -0.0272  0.4070  0.1350
16692SOL    HW152008   0.578   3.131   5.441 -0.2132  0.3467  0.4188
16692SOL    HW252009   0.601   3.000   5.514  0.7278  0.2459 -0.0538
16693SOL     OW52010   6.583   1.764   4.506  0.2477 -0.0387 -1.0625
16693SOL    HW152011   6.656   1.766   4.567  0.3379  0.3530 -1.1803
16693SOL    HW252012   6.515   1.713   4.551  0.5114 -0.2177 -0.8664
16694SOL     OW52013   3.749   8.552   1.506  0.0691 -0.0915  0.6208
16694SOL    HW152014   3.735   8.515   1.419 -0.0252  1.3061  0.0124
16694SOL    HW252015   3.754   8.476   1.564 -2.6291 -0.9963 -0.1822
16695SOL     OW52016   3.433   4.026   7.505  0.6118 -0.3530  0.1832
16695SOL    HW152017   3.406   4.047   7.595 -0.0878 -0.5781  0.0301
16695SOL    HW252018   3.368   4.070   7.450  1.1918  0.0011 -0.2254
16696SOL     OW52019   2.579   6.994   8.627 -0.4265  0.5732  0.1365
16696SOL    HW152020   2.525   7.053   8.679 -0.2767  0.9531 -0.1325
16696SOL    HW252021   2.552   7.011   8.536  1.5832  2.2856 -0.2017
16697SOL     OW52022   7.381   7.989   5.681 -0.3504 -0.5867  0.2176
16697SOL    HW152023   7.318   7.925   5.645 -1.4317 -0.4526  1.7640
16697SOL    HW252024   7.436   7.938   5.740 -0.3513 -0.3273  0.4439
16698SOL     OW52025   4.784   5.044   7.784 -0.0066  0.3783  0.7181
16698SOL    HW152026   4.778   5.139   7.797 -0.0344  0.6615 -1.0581
16698SOL    HW252027   4.858   5.017   7.838  2.0745  1.9812 -1.1388
16699SOL     OW52028   5.807   5.374   2.218 -0.4050  0.0984 -0.5848
16699SOL    HW152029   5.839   5.284   2.222 -1.5739 -0.3746 -1.3522
16699SOL    HW252030   5.882   5.427   2.247  0.0139 -1.1587  0.7746
16700SOL     OW52031   8.507   2.946   6.484  0.5611 -0.0614  0.7391
16700SOL    HW152032   8.474   3.021   6.435 -1.2033 -0.0101  1.8977
16700SOL    HW252033   8.575   2.982   6.540  0.6481  0.4157  0.3364
16701SOL     OW52034   6.333   3.680   2.960  0.3355  0.5770  0.2761
16701SOL    HW152035   6.329   3.763   2.912  0.9698  0.2112 -0.4222
16701SOL    HW252036   6.417   3.641   2.935 -0.0451 -0.3781  0.4305
16702SOL     OW52037   7.318   0.574   1.231 -0.6357 -0.3597 -0.1936
16702SOL    HW152038   7.304   0.668   1.246 -0.5972 -0.4197  0.2187
16702SOL    HW252039   7.235   0.533   1.257 -1.8935 -0.1659 -3.3280
16703SOL     OW52040   1.296   8.622   0.698 -0.3446  0.6864 -0.2566
16703SOL    HW152041   1.350   8.694   0.730 -2.4568  2.0605  0.3847
16703SOL    HW252042   1.315   8.549   0.757  1.5853  0.7597 -0.7205
16704SOL     OW52043   5.743   1.923   8.795  0.2002  0.4797 -0.1840
16704SOL    HW152044   5.818   1.935   8.854  0.6998 -0.1727 -0.6730
16704SOL    HW252045   5.679   1.874   8.847 -0.2717  1.7753  0.5251
16705SOL     OW52046   5.832   6.958   6.992 -0.0072 -0.2357 -0.0697
16705SOL    HW152047   5.905   6.952   7.053  0.5628 -1.2239 -0.8079
16705SOL    HW252048   5.772   7.021   7.031  0.3807 -0.7852  1.4611
16706SOL     OW52049   7.359   1.596   0.021  0.3737 -0.2778  0.2801
16706SOL    HW152050   7.264   1.598   0.007  0.2754  0.4396  0.9347
16706SOL    HW252051   7.369   1.587   0.116  0.9510  0.2242  0.2749
16707SOL     OW52052   8.850   7.429   0.815  0.2165  0.1089 -0.3316
16707SOL    HW152053   8.761   7.443   0.849  0.6139 -0.6587  1.0834
16707SOL    HW252054   8.875   7.514   0.779 -1.3800  0.1358 -1.5341
16708SOL     OW52055   1.212   2.878   5.944 -0.3866 -0.1468 -0.2983
16708SOL    HW152056   1.296   2.852   5.980 -0.9049 -0.8350  0.4456
16708SOL    HW252057   1.215   2.973   5.941  0.0756 -0.1245  0.5915
16709SOL     OW52058   4.809   7.332   6.431  0.4504 -0.1957  0.0789
16709SOL    HW152059   4.815   7.295   6.519 -1.1143 -0.8158 -0.0489
16709SOL    HW252060   4.768   7.264   6.378 -0.8477  1.0330 -0.5760
16710SOL     OW52061   1.357   1.447   3.361 -0.2538  0.2244  0.3080
16710SOL    HW152062   1.351   1.542   3.364 -2.4939  0.3164 -2.6436
16710SOL    HW252063   1.268   1.417   3.382  0.0875 -1.1314 -0.0973
16711SOL     OW52064   3.428   2.869   6.760  0.2223  0.2294  0.0181
16711SOL    HW152065   3.417   2.937   6.693 -1.4788  1.6112  1.5966
16711SOL    HW252066   3.343   2.823   6.761  0.2669  0.1447  1.1091
16712SOL     OW52067   5.352   3.641   3.359  0.3127 -0.0842  0.6701
16712SOL    HW152068   5.328   3.687   3.440 -0.5644 -0.6523  0.7433
16712SOL    HW252069   5.297   3.680   3.292 -0.1958 -0.7819  0.6715
16713SOL     OW52070   5.747   8.358   5.826  0.5311 -0.8442 -0.0831
16713SOL    HW152071   5.811   8.421   5.860  1.8934 -1.9348 -0.5022
16713SOL    HW252072   5.711   8.400   5.749  1.0714 -0.3680 -0.0860
16714SOL     OW52073   1.555   3.996   4.944  0.1317  0.2563  0.1877
16714SOL    HW152074   1.471   3.982   4.901  0.6180 -0.3909 -0.5673
16714SOL    HW252075   1.606   3.918   4.925  0.2364 -0.2410  2.2876
16715SOL     OW52076   8.530   1.456   3.043  0.0764  0.1221  0.1767
16715SOL    HW152077   8.606   1.403   3.018 -0.7122 -0.1283 -1.8394
16715SOL    HW252078   8.554   1.545   3.017 -0.3506  0.0228 -0.5769
16716SOL     OW52079   0.275   4.028   2.230  0.4484  0.1850  0.3007
16716SOL    HW152080   0.268   3.934   2.247  0.3772  0.2696  0.7477
16716SOL    HW252081   0.238   4.039   2.142  1.5161 -0.3661 -0.2326
16717SOL     OW52082   2.455   1.903   0.438  0.5932 -0.1795  0.5742
16717SOL    HW152083   2.374   1.911   0.487 -0.7867 -1.0833 -1.3950
16717SOL    HW252084   2.498   1.825   0.475  1.1536  0.9136  2.3377
16718SOL     OW52085   0.294   4.348   6.423  0.3853 -0.5296 -0.6495
16718SOL    HW152086   0.288   4.323   6.330 -1.1993  0.9609 -0.9960
16718SOL    HW252087   0.388   4.357   6.438  0.7144 -1.4695 -1.9216
16719SOL     OW52088   1.868   8.229   4.403 -0.3920  0.3170  0.1137
16719SOL    HW152089   1.891   8.321   4.389 -0.6922  0.4541  0.5027
16719SOL    HW252090   1.790   8.232   4.458 -0.8029 -0.1611 -0.4407
16720SOL     OW52091   6.689   2.087   0.308 -0.6469  0.7942 -0.3363
16720SOL    HW152092   6.716   2.018   0.247 -0.0385 -1.8258  2.6749
16720SOL    HW252093   6.766   2.143   0.317  0.2200 -0.4342  0.1097
16721SOL     OW52094   7.392   1.266   0.763 -0.3399  0.1208  0.0574
16721SOL    HW152095   7.479   1.227   0.755 -0.7588 -1.0090  0.8706
16721SOL    HW252096   7.409   1.360   0.775  0.6733  0.2701 -2.1071
16722SOL     OW52097   7.901   1.517   6.879 -0.5680 -0.0403  0.4560
16722SOL    HW152098   7.972   1.555   6.929  0.6679 -0.4292 -0.9355
16722SOL    HW252099   7.914   1.548   6.789 -1.0904 -1.5201 -0.1814
16723SOL     OW52100   4.543   3.113   1.976 -0.7251 -0.6719 -0.0910
16723SOL    HW152101   4.472   3.176   1.982 -1.8659 -2.0237  1.9412
16723SOL    HW252102   4.599   3.132   2.052  0.7730 -0.0329 -1.3105
16724SOL     OW52103   1.464   2.263   5.688 -0.0088 -0.4466 -0.1345
16724SOL    HW152104   1.394   2.297   5.744  0.1422  1.0725 -0.8118
16724SOL    HW252105   1.477   2.173   5.717 -0.0044  0.2443  2.2219
16725SOL     OW52106   3.966   3.084   8.338 -0.0715 -0.3237 -0.4394
16725SOL    HW152107   3.881   3.049   8.311 -0.0583 -0.9355  0.2779
16725SOL    HW252108   3.974   3.168   8.292 -1.8790  0.6316  0.8738
16726SOL     OW52109   4.810   4.175   4.330  0.6419 -0.1584 -0.0509
16726SOL    HW152110   4.779   4.152   4.242 -0.9629  0.5338  0.3005
16726SOL    HW252111   4.750   4.131   4.389  1.4941 -0.3183  0.7202
16727SOL     OW52112   3.714   5.351   1.800  0.5669 -0.0881 -0.1792
16727SOL    HW152113   3.700   5.281   1.736  0.8061  0.5119 -0.9079
16727SOL    HW252114   3.737   5.306   1.881 -1.0754 -0.9309 -0.1407
16728SOL     OW52115   6.290   0.850   5.353 -0.4019  0.6711  0.2237
16728SOL    HW152116   6.215   0.815   5.305 -0.7304  1.0136  0.4785
16728SOL    HW252117   6.313   0.930   5.305 -1.2774  1.4872  1.1112
16729SOL     OW52118   4.713   4.123   8.078 -0.7049 -0.4431 -0.1905
16729SOL    HW152119   4.763   4.144   7.999 -1.2729  0.2219 -0.3804
16729SOL    HW252120   4.746   4.037   8.106 -1.1608 -1.1274 -1.6829
16730SOL     OW52121   1.983   4.964   3.703  0.3161  0.2993  0.0773
16730SOL    HW152122   1.936   4.983   3.784  1.4231  0.3052  0.7423
16730SOL    HW252123   2.047   4.898   3.728  1.7681  1.4620 -0.3830
16731SOL     OW52124   0.795   4.021   6.782  0.3828  0.1296  0.0833
16731SOL    HW152125   0.741   4.100   6.791 -1.7940 -1.1666 -0.8037
16731SOL    HW252126   0.847   4.037   6.703 -0.2155  0.6147 -0.2304
16732SOL     OW52127   6.968   4.795   7.129 -0.4387 -0.0260 -0.4991
16732SOL    HW152128   6.967   4.889   7.115 -2.6910 -0.1118 -1.2399
16732SOL    HW252129   6.895   4.779   7.189 -0.0570 -1.3093 -0.3441
16733SOL     OW52130   3.178   5.343   5.696  0.2879  0.4806  0.0344
16733SOL    HW152131   3.136   5.270   5.742 -1.3109  0.5724 -1.1725
16733SOL    HW252132   3.186   5.312   5.605 -0.4476  1.7817 -0.5008
16734SOL     OW52133   3.139   4.649   7.478  0.1701  0.6067  0.8556
16734SOL    HW152134   3.055   4.664   7.522  0.2965  1.1706  0.9053
16734SOL    HW252135   3.120   4.581   7.413 -0.5883  1.5200  0.1041
16735SOL     OW52136   0.387   5.808   0.738 -0.2724  0.2063  0.8287
16735SOL    HW152137   0.352   5.732   0.693  2.8571 -1.2605  0.6054
16735SOL    HW252138   0.448   5.847   0.675  2.0571 -0.2227  2.6704
16736SOL     OW52139   6.579   2.858   1.143  0.6692  0.4425  0.2480
16736SOL    HW152140   6.605   2.904   1.063 -0.4947 -0.1960 -0.5232
16736SOL    HW252141   6.578   2.926   1.210 -0.1579  1.4006 -0.6894
16737SOL     OW52142   2.425   6.227   6.130  0.4291  0.0991  0.2823
16737SOL    HW152143   2.468   6.277   6.199 -1.5583  1.8528  0.3640
16737SOL    HW252144   2.335   6.218   6.160  0.4554 -2.7451 -0.2173
16738SOL     OW52145   0.460   6.930   8.201 -0.0247  0.6556  0.3887
16738SOL    HW152146   0.493   6.886   8.279 -0.0997 -0.4300 -0.1653
16738SOL    HW252147   0.384   6.877   8.175  0.9694 -0.0056 -1.3410
16739SOL     OW52148   7.060   5.004   1.046 -1.0457 -0.0638  0.2831
16739SOL    HW152149   7.051   5.088   1.091  0.7940  0.3209 -0.0007
16739SOL    HW252150   7.116   4.952   1.104  1.2755  0.4001 -1.4002
16740SOL     OW52151   6.743   3.292   6.891 -0.2627 -0.4045  0.0729
16740SOL    HW152152   6.721   3.320   6.980 -0.1204  0.1760 -0.0723
16740SOL    HW252153   6.831   3.326   6.876 -1.0871  1.4281 -1.0683
16741SOL     OW52154   5.200   6.790   1.341 -0.6284  0.3836  0.5469
16741SOL    HW152155   5.256   6.716   1.317  0.1777  0.9962  0.4854
16741SOL    HW252156   5.166   6.767   1.427  0.4446  0.3970  0.9882
16742SOL     OW52157   2.081   7.739   5.536  0.8355 -0.0239 -0.2643
16742SOL    HW152158   2.146   7.796   5.577  0.7732 -0.0558 -0.1189
16742SOL    HW252159   2.100   7.744   5.443 -0.0199  1.3141 -0.3905
16743SOL     OW52160   1.969   1.831   5.206 -0.3763  0.1249  0.2698
16743SOL    HW152161   2.007   1.888   5.273  0.6623  0.2581 -0.4192
16743SOL    HW252162   2.011   1.858   5.125  0.0846 -1.5740 -0.0859
16744SOL     OW52163   0.498   2.395   3.192 -0.2891 -0.1758  0.6964
16744SOL    HW152164   0.567   2.426   3.250  0.1954 -0.0481  0.0512
16744SOL    HW252165   0.422   2.385   3.250  0.1996 -0.1057  1.3659
16745SOL     OW52166   7.295   1.365   1.090 -0.0462 -0.5571  0.5163
16745SOL    HW152167   7.217   1.412   1.120 -0.6297 -2.4263  2.1042
16745SOL    HW252168   7.274   1.272   1.103  0.6755 -1.4506 -3.3723
16746SOL     OW52169   6.347   1.516   4.917  0.3218 -0.1107  0.1178
16746SOL    HW152170   6.328   1.422   4.921  1.1264 -0.4099 -1.9171
16746SOL    HW252171   6.268   1.558   4.952 -0.0821 -1.5196  0.9850
16747SOL     OW52172   6.564   5.439   7.073  0.6472  0.2727  0.2230
16747SOL    HW152173   6.581   5.521   7.027 -0.5929  0.1225 -0.5385
16747SOL    HW252174   6.546   5.465   7.163  1.0073  0.7626  0.1588
16748SOL     OW52175   2.502   3.781   3.817 -0.3578 -0.0323 -0.1779
16748SOL    HW152176   2.508   3.721   3.891 -0.4893 -0.6422 -0.6528
16748SOL    HW252177   2.410   3.778   3.790 -0.1820 -0.3076 -0.7622
16749SOL     OW52178   0.199   7.916   7.817 -0.1251  0.2469 -0.1875
16749SOL    HW152179   0.189   8.004   7.780 -0.7312  0.4539  0.4447
16749SOL    HW252180   0.149   7.860   7.757 -2.6302  0.8326  1.2000
16750SOL     OW52181   8.050   1.730   0.360 -0.7978  0.2315 -0.0527
16750SOL    HW152182   8.097   1.796   0.411 -1.2338 -0.8456  1.8169
16750SOL    HW252183   7.982   1.780   0.314 -0.9752  1.1219  1.1466
16751SOL     OW52184   2.277   0.864   7.725  0.0930 -0.1888  0.1932
16751SOL    HW152185   2.315   0.810   7.794  1.7384  2.2131  1.3037
16751SOL    HW252186   2.183   0.866   7.744  0.2750 -1.0055  1.2552
16752SOL     OW52187   0.914   7.257   2.957  0.4945 -0.7624 -0.2098
16752SOL    HW152188   0.917   7.163   2.971  3.5199 -0.7055  0.2443
16752SOL    HW252189   0.947   7.270   2.868 -1.1481 -0.1713 -0.7573
16753SOL     OW52190   2.959   2.782   1.743 -0.1800  0.1888 -0.5392
16753SOL    HW152191   3.014   2.853   1.777 -2.4947  0.6406  2.7894
16753SOL    HW252192   2.886   2.827   1.701 -1.3883 -0.1311  1.1204
16754SOL     OW52193   5.807   1.750   8.136  0.3043 -0.2764  0.3040
16754SOL    HW152194   5.831   1.730   8.227  2.2876 -1.3396 -0.3890
16754SOL    HW252195   5.847   1.835   8.119 -1.1985  0.5702  0.7720
16755SOL     OW52196   2.903   7.586   1.133 -1.0127  0.1284  0.5537
16755SOL    HW152197   2.823   7.637   1.143 -1.7806 -1.0776  0.6198
16755SOL    HW252198   2.937   7.611   1.046 -1.1702  1.0096  0.7332
16756SOL     OW52199   4.322   5.422   5.733  0.0335 -0.2140 -0.0041
16756SOL    HW152200   4.380   5.498   5.735  1.3367 -1.1684  0.6830
16756SOL    HW252201   4.381   5.348   5.750 -1.2437 -1.3380 -0.3379
16757SOL     OW52202   4.347   8.676   4.037  0.1051  0.2311 -0.0319
16757SOL    HW152203   4.333   8.614   4.109  1.1584  0.6954  0.5988
16757SOL    HW252204   4.395   8.626   3.971  0.7829  0.3063  0.3932
16758SOL     OW52205   4.764   3.730   4.440 -0.0026  0.2765 -0.5203
16758SOL    HW152206   4.815   3.655   4.470  0.3227  1.1009  1.0980
16758SOL    HW252207   4.813   3.764   4.365 -0.2972 -1.2374 -1.4681
16759SOL     OW52208   6.024   4.915   6.072  0.1238 -0.1268 -0.6370
16759SOL    HW152209   5.935   4.883   6.064 -0.6848  1.8527 -0.2210
16759SOL    HW252210   6.058   4.875   6.152 -0.3487 -0.9652 -0.8486
16760SOL     OW52211   5.765   7.681   3.582 -0.0145 -0.0163  0.4783
16760SOL    HW152212   5.773   7.683   3.677  1.2081  0.2301  0.3972
16760SOL    HW252213   5.688   7.733   3.562  0.7034  1.3925  1.2545
16761SOL     OW52214   4.698   4.666   4.800 -0.1478 -0.0208 -0.3050
16761SOL    HW152215   4.693   4.580   4.842  2.2368 -0.4888 -0.8546
16761SOL    HW252216   4.774   4.661   4.742  0.9443  2.8708  0.6750
16762SOL     OW52217   0.956   6.219   1.627  0.3031  0.4837  0.2517
16762SOL    HW152218   0.880   6.274   1.645  0.5392  1.1071 -0.6214
16762SOL    HW252219   0.928   6.130   1.651 -0.4653  0.8047  0.5639
16763SOL     OW52220   5.927   2.168   6.429 -0.2863 -0.1895 -0.6121
16763SOL    HW152221   5.982   2.247   6.433 -1.0098  0.3403 -0.9743
16763SOL    HW252222   5.968   2.108   6.492  0.3040  0.4499 -0.3689
16764SOL     OW52223   7.424   3.293   7.461 -0.4330  0.3818 -0.4748
16764SOL    HW152224   7.448   3.246   7.380  1.4460  0.4410 -0.0086
16764SOL    HW252225   7.381   3.227   7.515  1.6640 -0.7520 -0.0589
16765SOL     OW52226   5.950   4.039   7.945  0.1982  0.4517  0.7112
16765SOL    HW152227   5.991   4.000   8.021  1.9022  0.9069  0.0694
16765SOL    HW252228   5.968   4.133   7.953 -0.2257  0.5961  0.1115
16766SOL     OW52229   6.059   6.637   5.454  0.5222  0.2130 -0.1540
16766SOL    HW152230   6.131   6.652   5.516 -0.2469  1.8557  0.4035
16766SOL    HW252231   6.008   6.717   5.457 -0.3148 -0.2032 -1.9368
16767SOL     OW52232   7.289   7.972   0.245  0.5812 -0.1262 -0.1845
16767SOL    HW152233   7.339   7.962   0.164  0.5662  0.8561 -0.3340
16767SOL    HW252234   7.221   8.036   0.223  0.6420  0.2267  0.6305
16768SOL     OW52235   6.395   0.674   2.291  0.6525 -0.4603  0.2016
16768SOL    HW152236   6.331   0.602   2.287 -0.5657  0.6229 -1.7725
16768SOL    HW252237   6.445   0.664   2.210  3.2071 -1.3806  1.7819
16769SOL     OW52238   6.075   3.416   8.083 -0.6824  0.6313 -0.0560
16769SOL    HW152239   6.032   3.344   8.037  0.2321  0.0201  0.0297
16769SOL    HW252240   6.154   3.433   8.032 -0.5038  1.0664  0.3625
16770SOL     OW52241   8.333   6.930   5.691 -0.0541  0.0664  0.0545
16770SOL    HW152242   8.245   6.965   5.709 -0.8036 -0.3582 -2.4604
16770SOL    HW252243   8.317   6.850   5.642  1.7353  0.5129 -1.3456
16771SOL     OW52244   3.088   0.882   7.155  0.2723  0.1692 -0.7527
16771SOL    HW152245   3.030   0.919   7.089 -0.8571  2.2165  1.2573
16771SOL    HW252246   3.146   0.954   7.180  1.3435 -0.8415 -0.2104
16772SOL     OW52247   6.816   2.341   2.007  0.0475 -0.4542  0.1613
16772SOL    HW152248   6.736   2.336   2.059 -0.1146  0.6146  0.0244
16772SOL    HW252249   6.814   2.262   1.953  0.1108 -1.4805  1.5954
16773SOL     OW52250   8.083   1.969   3.166  0.0123  0.0357 -0.1081
16773SOL    HW152251   8.131   1.889   3.143  0.1129  0.5332 -1.7211
16773SOL    HW252252   8.150   2.033   3.187  0.0128  0.2138 -0.6247
16774SOL     OW52253   5.204   8.240   4.052  0.0034 -0.6355 -0.4438
16774SOL    HW152254   5.203   8.217   3.959  1.3081  1.1561 -0.9447
16774SOL    HW252255   5.296   8.254   4.072  0.4058 -5.0544  2.2657
16775SOL     OW52256   7.343   4.868   0.765  0.2053 -0.3760 -0.1911
16775SOL    HW152257   7.306   4.955   0.782 -1.7540 -0.8628 -1.5185
16775SOL    HW252258   7.324   4.817   0.844 -0.7507 -0.2048 -0.2919
16776SOL     OW52259   1.778   2.662   8.811  0.0198  0.6415  0.6682
16776SOL    HW152260   1.796   2.700   8.725  0.1826  1.2134  0.9474
16776SOL    HW252261   1.694   2.618   8.801  0.4555 -0.0529 -0.0200
16777SOL     OW52262   1.336   5.737   7.190  0.0578  0.1733 -0.2715
16777SOL    HW152263   1.321   5.791   7.268  1.2610  2.2418 -1.4077
16777SOL    HW252264   1.323   5.647   7.221  1.0398  0.8770  2.4462
16778SOL     OW52265   4.590   8.685   7.292 -0.0684  0.4582 -0.3873
16778SOL    HW152266   4.583   8.589   7.289  2.6590  0.1474  0.3802
16778SOL    HW252267   4.676   8.701   7.329 -1.1810  3.2779  1.2373
16779SOL     OW52268   2.402   7.573   0.712  0.3006  0.8313  0.2009
16779SOL    HW152269   2.332   7.535   0.659  0.3205 -0.5240  1.0854
16779SOL    HW252270   2.418   7.659   0.673 -1.4031  0.9082 -0.4110
16780SOL     OW52271   1.419   4.605   8.782  0.0303 -0.1009  0.1398
16780SOL    HW152272   1.409   4.602   8.687  2.5529  0.3410 -0.2104
16780SOL    HW252273   1.442   4.515   8.807  1.9328  0.2785 -0.0828
16781SOL     OW52274   6.266   1.064   7.692 -0.1926  0.1871  0.5637
16781SOL    HW152275   6.190   1.113   7.724  0.6467  1.7703  0.2775
16781SOL    HW252276   6.302   1.120   7.622 -0.0225 -1.5639 -0.8145
16782SOL     OW52277   2.070   5.631   1.725 -0.0301  0.0100  0.2911
16782SOL    HW152278   2.058   5.725   1.710 -0.4270 -0.0934 -0.0338
16782SOL    HW252279   2.004   5.589   1.671 -0.3959 -0.4274  1.0672
16783SOL     OW52280   4.471   0.832   4.448  0.9005 -0.1677  0.2341
16783SOL    HW152281   4.521   0.913   4.461  0.6942 -0.1073  0.6432
16783SOL    HW252282   4.484   0.783   4.528  1.5715 -0.8459 -0.2752
16784SOL     OW52283   2.345   8.024   0.343  0.6666  0.2123 -0.1721
16784SOL    HW152284   2.261   7.979   0.354  1.5660 -1.7920 -0.9962
16784SOL    HW252285   2.406   7.954   0.319  2.6223  1.5799  0.6091
16785SOL     OW52286   3.717   4.502   7.002 -0.6545 -0.2273 -0.0383
16785SOL    HW152287   3.658   4.453   7.059 -0.6016  0.8029  0.9425
16785SOL    HW252288   3.658   4.545   6.939 -0.7719 -0.8074 -0.3307
16786SOL     OW52289   1.110   4.992   5.837 -0.1844 -0.2548  0.1323
16786SOL    HW152290   1.197   4.955   5.824 -0.7533 -2.1115  1.1931
16786SOL    HW252291   1.126   5.074   5.884  0.9966 -0.7000  0.5528
16787SOL     OW52292   7.557   2.226   1.909  0.0662 -0.4173 -0.0033
16787SOL    HW152293   7.474   2.189   1.877  0.5025 -1.1614 -0.3170
16787SOL    HW252294   7.614   2.150   1.920  1.4592  0.2412 -1.9986
16788SOL     OW52295   2.380   6.410   7.253 -0.4174  0.5683 -0.1094
16788SOL    HW152296   2.290   6.384   7.233 -0.0096  0.2820 -1.7271
16788SOL    HW252297   2.419   6.333   7.294 -0.7286  0.4666 -0.0043
16789SOL     OW52298   2.397   1.373   0.489  0.2018 -0.0865 -0.5483
16789SOL    HW152299   2.354   1.359   0.574  0.4858 -0.4887 -0.4706
16789SOL    HW252300   2.325   1.372   0.426  0.2173 -2.3433 -0.6024
16790SOL     OW52301   0.639   6.694   4.757 -0.3721 -0.0460  0.4262
16790SOL    HW152302   0.682   6.609   4.752 -0.3049  0.0345 -0.9392
16790SOL    HW252303   0.675   6.735   4.835 -0.1832 -1.1522  0.9343
16791SOL     OW52304   2.067   5.763   8.318 -0.2152 -0.3490  0.0843
16791SOL    HW152305   2.003   5.744   8.387  0.4989 -0.3475  0.7599
16791SOL    HW252306   2.152   5.759   8.362  0.2049  0.5395 -0.6012
16792SOL     OW52307   8.481   7.448   8.047 -0.0391 -0.3352 -0.1113
16792SOL    HW152308   8.431   7.511   7.995 -2.9484 -1.9551  0.4842
16792SOL    HW252309   8.434   7.444   8.131  2.7070 -0.0670  1.5878
16793SOL     OW52310   5.929   5.331   4.718  0.0428  0.1115  0.3725
16793SOL    HW152311   5.938   5.425   4.702  0.8501 -0.1410 -0.8581
16793SOL    HW252312   5.869   5.301   4.650  0.7701 -0.4525 -0.0412
16794SOL     OW52313   0.156   6.764   1.558 -0.2978  0.2277  0.1009
16794SOL    HW152314   0.218   6.705   1.601 -0.9172 -0.1066  0.5372
16794SOL    HW252315   0.136   6.721   1.474 -1.4086 -0.6331  0.7805
16795SOL     OW52316   3.535   6.540   5.503 -0.2592  0.5983 -0.1801
16795SOL    HW152317   3.535   6.452   5.541  2.6383  0.6755  0.2089
16795SOL    HW252318   3.561   6.597   5.575  0.1015  1.4586 -0.9778
16796SOL     OW52319   3.520   6.409   1.006  0.0826  0.1188  0.1650
16796SOL    HW152320   3.568   6.343   0.956  0.0995  0.7575 -0.7019
16796SOL    HW252321   3.582   6.483   1.011 -0.5081  0.6549 -0.2777
16797SOL     OW52322   2.818   4.848   2.793 -0.0744 -0.4338  0.2154
16797SOL    HW152323   2.752   4.868   2.859 -0.5959 -2.9734  0.5583
16797SOL    HW252324   2.901   4.858   2.838 -0.3833 -1.0217  0.9330
16798SOL     OW52325   2.398   2.172   2.721  0.0624  0.2147 -0.3408
16798SOL    HW152326   2.359   2.094   2.683 -0.6725  0.3418  0.1325
16798SOL    HW252327   2.325   2.234   2.728  0.9977  1.7290 -2.6860
16799SOL     OW52328   6.730   2.931   7.062 -0.1748 -0.0960 -0.2867
16799SOL    HW152329   6.735   3.002   7.126 -0.2529  0.1506 -0.5547
16799SOL    HW252330   6.686   2.969   6.987 -1.2883 -0.7535  0.0082
16800SOL     OW52331   6.473   5.329   5.951  0.1663 -0.0338 -0.2342
16800SOL    HW152332   6.429   5.268   6.011  1.3218 -0.4407  0.2335
16800SOL    HW252333   6.566   5.308   5.960  0.6508  2.1500  0.3278
16801SOL     OW52334   7.281   5.309   2.610 -0.6408  0.1633 -0.2734
16801SOL    HW152335   7.354   5.248   2.600 -0.8214  0.0396 -0.8649
16801SOL    HW252336   7.316   5.379   2.665  0.3656  0.8059 -1.6673
16802SOL     OW52337   1.858   5.106   1.191  0.0499  0.3876 -0.0200
16802SOL    HW152338   1.793   5.053   1.237 -1.0588  0.7174 -1.1561
16802SOL    HW252339   1.898   5.160   1.259  1.2068 -1.8247  1.1837
16803SOL     OW52340   7.990   2.118   1.214 -0.0320 -0.0691  0.6142
16803SOL    HW152341   7.903   2.155   1.199  0.1362  0.3017  0.5339
16803SOL    HW252342   7.974   2.032   1.252 -0.4609 -0.5423 -0.5778
16804SOL     OW52343   0.067   1.399   6.501  0.0626  0.4235  0.0303
16804SOL    HW152344   0.113   1.437   6.576  1.1061  1.0514 -0.9067
16804SOL    HW252345   0.073   1.465   6.433  3.1819 -1.8173 -2.1356
16805SOL     OW52346   1.720   4.887   4.086 -0.2163 -0.1711  0.7060
16805SOL    HW152347   1.776   4.826   4.133  0.5700 -0.7426 -0.9060
16805SOL    HW252348   1.642   4.836   4.064 -0.5494  0.0739  1.2869
16806SOL     OW52349   8.339   0.237   7.710  0.1412 -0.3927 -1.0381
16806SOL    HW152350   8.433   0.234   7.726  0.2480 -0.0948 -1.5892
16806SOL    HW252351   8.314   0.146   7.692  0.1903 -0.5801 -0.1635
16807SOL     OW52352   6.783   3.579   0.921  0.1988  0.2582  0.7541
16807SOL    HW152353   6.738   3.647   0.970  0.6871  0.0130  1.5613
16807SOL    HW252354   6.861   3.559   0.974  0.9110  0.2191 -0.2892
16808SOL     OW52355   1.593   2.166   3.953  0.4028 -0.3990 -0.6675
16808SOL    HW152356   1.581   2.077   3.987  0.2800  0.3386  1.3589
16808SOL    HW252357   1.505   2.195   3.929  0.4475 -0.8136 -1.3650
16809SOL     OW52358   7.408   7.658   7.141 -0.0627 -0.7849  0.7178
16809SOL    HW152359   7.440   7.590   7.200  0.7628  0.4170  1.7170
16809SOL    HW252360   7.476   7.726   7.144 -1.1362  0.3444  0.2310
16810SOL     OW52361   7.955   0.975   5.345 -0.0267 -0.3442  0.4299
16810SOL    HW152362   8.026   0.912   5.333 -0.9087 -1.0365 -1.7680
16810SOL    HW252363   7.924   0.960   5.434  1.5594 -1.0907  0.8977
16811SOL     OW52364   4.249   0.153   8.599 -0.0667 -0.1546  0.3493
16811SOL    HW152365   4.308   0.090   8.641  0.4183  1.0759  1.5981
16811SOL    HW252366   4.169   0.104   8.583 -0.2351 -0.7363  2.6453
16812SOL     OW52367   7.457   5.251   5.435 -0.4572 -0.5799  0.1977
16812SOL    HW152368   7.516   5.326   5.427 -0.3525 -0.7342 -0.5212
16812SOL    HW252369   7.371   5.286   5.408 -0.5354 -0.5556  0.4801
16813SOL     OW52370   6.965   2.553   8.633  0.2512 -0.1799 -0.4347
16813SOL    HW152371   7.009   2.476   8.598  0.1447  0.1787 -1.3938
16813SOL    HW252372   6.980   2.549   8.727  0.4891 -1.2150 -0.5042
16814SOL     OW52373   8.636   3.165   2.112 -0.2028 -0.0469  0.9208
16814SOL    HW152374   8.598   3.239   2.160 -0.1869 -0.3622  1.4274
16814SOL    HW252375   8.654   3.200   2.025  0.8318  0.8624  1.4698
16815SOL     OW52376   0.811   5.420   2.579  0.6512  0.6931 -0.0345
16815SOL    HW152377   0.783   5.471   2.655 -0.0682  0.7882 -0.3599
16815SOL    HW252378   0.836   5.485   2.514 -1.3154  0.7002 -0.8547
16816SOL     OW52379   6.229   7.510   6.620 -0.3468  0.3629  0.5541
16816SOL    HW152380   6.217   7.571   6.693 -0.2028  0.0624  0.8279
16816SOL    HW252381   6.323   7.512   6.603 -0.3591  0.3124  0.4802
16817SOL     OW52382   8.031   0.285   0.439  0.6602 -0.2014 -0.2604
16817SOL    HW152383   8.075   0.219   0.493  0.1272 -0.7954 -0.5374
16817SOL    HW252384   8.090   0.297   0.364  0.9085 -0.1292 -0.0552
16818SOL     OW52385   5.709   1.259   1.432  0.3109 -0.2311 -0.1365
16818SOL    HW152386   5.776   1.302   1.485  2.3720 -1.7143 -1.3896
16818SOL    HW252387   5.751   1.178   1.401 -2.0036 -1.1315 -1.1583
16819SOL     OW52388   7.483   2.994   2.490 -0.7707 -0.1561 -0.1555
16819SOL    HW152389   7.471   2.917   2.433 -1.1771  2.0848 -3.3787
16819SOL    HW252390   7.394   3.023   2.511 -0.6451  0.2215 -0.1385
16820SOL     OW52391   5.040   1.421   7.210 -0.0197  0.0703  0.2675
16820SOL    HW152392   4.959   1.462   7.180 -0.2278 -0.0839  0.6191
16820SOL    HW252393   5.012   1.355   7.274  0.5489  2.0854  2.7530
16821SOL     OW52394   7.070   3.638   5.204 -0.9147 -0.0423  0.1771
16821SOL    HW152395   6.975   3.644   5.198 -0.7638  1.3564 -1.5805
16821SOL    HW252396   7.087   3.546   5.224 -2.6004 -0.7173 -1.2404
16822SOL     OW52397   1.081   7.261   8.056 -0.0615 -0.3950 -0.1094
16822SOL    HW152398   0.995   7.224   8.078 -0.2580 -0.4441 -0.9475
16822SOL    HW252399   1.095   7.328   8.123 -0.9777 -0.0491 -0.2408
16823SOL     OW52400   8.445   7.928   3.898 -0.3966 -0.3801 -0.4399
16823SOL    HW152401   8.483   7.874   3.967  1.3248  0.2836 -0.8070
16823SOL    HW252402   8.377   7.874   3.859  0.7944 -2.0195 -0.3428
16824SOL     OW52403   1.656   8.004   1.144 -0.2619 -0.2914  0.0974
16824SOL    HW152404   1.733   8.000   1.202  1.0620 -0.6575 -1.6139
16824SOL    HW252405   1.584   8.028   1.202  0.9199 -1.0592  1.9815
16825SOL     OW52406   2.641   4.683   1.242  0.0897  0.0343  0.3481
16825SOL    HW152407   2.577   4.707   1.309  1.6233  1.7505  1.2859
16825SOL    HW252408   2.601   4.710   1.159 -1.3306 -1.0516  0.6357
16826SOL     OW52409   8.228   7.577   6.232  0.0238  0.5709 -0.4638
16826SOL    HW152410   8.180   7.653   6.266  0.7683  0.0396  1.9995
16826SOL    HW252411   8.320   7.603   6.235  0.1384  0.4141 -1.9787
16827SOL     OW52412   8.316   2.166   3.698 -0.2143 -0.2956  0.3169
16827SOL    HW152413   8.306   2.183   3.604  1.3717 -0.3331  0.1038
16827SOL    HW252414   8.297   2.073   3.708 -0.6790 -0.2285  0.0909
16828SOL     OW52415   5.003   6.908   2.480  0.0424  0.1165  0.6422
16828SOL    HW152416   5.097   6.924   2.481 -0.1025  1.1513 -0.2115
16828SOL    HW252417   4.991   6.833   2.422  0.3220  0.0131  0.7177
16829SOL     OW52418   6.857   6.218   3.600 -0.0395 -0.0140  0.5818
16829SOL    HW152419   6.860   6.171   3.517  0.0406 -1.3070  1.2856
16829SOL    HW252420   6.882   6.308   3.578  1.5426 -0.6874 -0.5369
16830SOL     OW52421   4.278   6.533   8.695 -0.0951  0.9367  0.2207
16830SOL    HW152422   4.360   6.555   8.739  0.3924  2.3383 -1.2872
16830SOL    HW252423   4.295   6.448   8.654 -0.9081 -0.9407  3.4270
16831SOL     OW52424   4.579   3.283   3.870  0.8865 -0.2151  0.3293
16831SOL    HW152425   4.609   3.247   3.786  0.1713  0.3215 -0.1723
16831SOL    HW252426   4.500   3.332   3.848  0.3663 -0.5274  1.4112
16832SOL     OW52427   7.534   2.186   3.528 -0.9508 -0.3862 -0.1620
16832SOL    HW152428   7.457   2.239   3.506 -0.1158  0.3838 -1.4163
16832SOL    HW252429   7.585   2.184   3.447  1.3870  0.9377  1.1558
16833SOL     OW52430   0.373   7.586   5.197 -0.0296  0.1618  0.3133
16833SOL    HW152431   0.286   7.549   5.209 -0.8500  2.2987  1.5097
16833SOL    HW252432   0.417   7.570   5.280 -0.3175  1.5733  0.7640
16834SOL     OW52433   4.555   4.232   1.841  0.1677  0.1503  0.8308
16834SOL    HW152434   4.585   4.229   1.750  0.6687 -0.7235  1.0120
16834SOL    HW252435   4.636   4.222   1.892  0.1428  2.3607  1.4252
16835SOL     OW52436   2.787   6.984   1.913 -0.5488 -0.1457  0.0609
16835SOL    HW152437   2.835   6.990   1.831 -1.4872  0.1011 -0.4813
16835SOL    HW252438   2.853   6.955   1.977  0.2975  0.1218 -0.6668
16836SOL     OW52439   3.884   4.144   3.684  0.1695 -0.5049  0.0253
16836SOL    HW152440   3.962   4.140   3.740 -1.1614  0.4386  2.0512
16836SOL    HW252441   3.817   4.186   3.738 -1.4295 -0.1949 -2.0603
16837SOL     OW52442   7.688   6.384   3.949  0.2361 -0.0563  0.2746
16837SOL    HW152443   7.600   6.357   3.973 -0.7001  1.9642 -0.5770
16837SOL    HW252444   7.687   6.480   3.959  2.3346  0.0136  0.2366
16838SOL     OW52445   6.522   5.657   4.723 -0.4951  0.4864  0.1951
16838SOL    HW152446   6.453   5.657   4.790 -1.2994 -2.6628 -0.4804
16838SOL    HW252447   6.479   5.623   4.645  1.9644 -2.6076 -0.0020
16839SOL     OW52448   8.590   7.935   5.236 -0.4899  0.2902 -0.0744
16839SOL    HW152449   8.527   7.868   5.262 -0.8806  0.2518 -1.0629
16839SOL    HW252450   8.581   7.940   5.141  0.0904  1.2049 -0.0900
16840SOL     OW52451   2.329   7.773   3.668 -0.1499  0.4845  0.2374
16840SOL    HW152452   2.348   7.721   3.590 -1.1420  0.4228  0.0260
16840SOL    HW252453   2.403   7.833   3.675  0.4386 -0.1794 -0.1749
16841SOL     OW52454   0.065   7.368   8.266 -0.1262 -0.0092  0.3713
16841SOL    HW152455   0.024   7.388   8.182 -0.7470 -1.6174  0.2660
16841SOL    HW252456   0.159   7.380   8.250 -0.2111 -0.5577 -0.6409
16842SOL     OW52457   5.016   2.055   6.455  0.6442 -0.2190 -0.3179
16842SOL    HW152458   4.947   2.031   6.393  0.2074  1.8398 -0.7247
16842SOL    HW252459   5.096   2.055   6.403  0.3045  1.3280 -0.9080
16843SOL     OW52460   1.792   3.971   1.921  0.1073 -0.5910  0.8710
16843SOL    HW152461   1.707   3.998   1.886  0.2476 -0.7997  0.3554
16843SOL    HW252462   1.794   3.876   1.907  1.4621 -0.2793 -1.4920
16844SOL     OW52463   1.978   4.438   8.219  0.4387  0.2712  0.4211
16844SOL    HW152464   1.959   4.499   8.148  0.8385 -0.5577 -0.4163
16844SOL    HW252465   1.893   4.401   8.242  0.4134 -0.0224 -0.1490
16845SOL     OW52466   5.659   8.850   8.857 -0.1211  0.3115 -0.2611
16845SOL    HW152467   5.606   8.929   8.853 -0.9961 -0.3061 -1.8600
16845SOL    HW252468   5.745   8.877   8.826  0.1700  1.0348  1.1013
16846SOL     OW52469   0.972   6.186   6.780  0.3324 -0.0415 -0.2716
16846SOL    HW152470   0.882   6.218   6.786  1.1104  2.0365  2.1493
16846SOL    HW252471   1.010   6.236   6.708 -0.2080 -0.3008 -0.7432
16847SOL     OW52472   5.320   4.954   0.593 -0.1551  0.0894 -0.2400
16847SOL    HW152473   5.405   4.920   0.621 -0.0036  0.3817 -0.3447
16847SOL    HW252474   5.301   4.908   0.512  0.1836  0.4593 -0.5315
16848SOL     OW52475   0.747   7.707   1.209 -0.0144  0.0444  0.0393
16848SOL    HW152476   0.775   7.617   1.192 -1.1612 -0.4741  0.7276
16848SOL    HW252477   0.712   7.704   1.298 -3.4344  0.2610 -1.1344
16849SOL     OW52478   0.296   4.679   1.939 -0.5046 -0.3602  0.4146
16849SOL    HW152479   0.354   4.660   1.865 -0.9725 -0.9889  0.2028
16849SOL    HW252480   0.281   4.594   1.980 -1.9583 -0.3357 -0.0342
16850SOL     OW52481   7.251   8.325   7.220  0.1941  0.2927 -0.1096
16850SOL    HW152482   7.181   8.373   7.264  1.9872  1.2553  1.9360
16850SOL    HW252483   7.210   8.286   7.143 -2.7177  0.2070  1.3497
16851SOL     OW52484   7.673   6.166   7.195  0.3022  0.0970 -0.1727
16851SOL    HW152485   7.617   6.243   7.200 -0.5029 -0.5249  0.6100
16851SOL    HW252486   7.625   6.103   7.141  0.9145  0.0997 -0.7353
16852SOL     OW52487   6.598   7.778   3.637  0.2264 -0.6498  0.0006
16852SOL    HW152488   6.644   7.724   3.702 -1.1196  0.9754  2.4389
16852SOL    HW252489   6.668   7.811   3.580  1.7118 -0.6746  1.7220
16853SOL     OW52490   7.250   7.189   6.135 -0.3277  0.0193  0.6365
16853SOL    HW152491   7.298   7.207   6.054  0.6084  0.1773  1.2229
16853SOL    HW252492   7.159   7.176   6.106  0.1300 -0.6970 -0.5210
16854SOL     OW52493   3.525   6.706   2.010  0.5127  0.2829 -0.1915
16854SOL    HW152494   3.593   6.641   2.030  1.3029  1.3475  0.6551
16854SOL    HW252495   3.443   6.656   2.015  1.1291 -0.7514 -0.0237
16855SOL     OW52496   5.546   8.203   7.439 -0.5125  0.1866  0.1690
16855SOL    HW152497   5.455   8.216   7.467 -0.1350  0.9848  1.0886
16855SOL    HW252498   5.576   8.290   7.414 -0.4600 -0.3218 -1.6439
16856SOL     OW52499   4.248   2.104   3.540 -0.2713 -0.1292 -0.4381
16856SOL    HW152500   4.190   2.173   3.510  0.7904  0.5571 -0.9972
16856SOL    HW252501   4.332   2.123   3.497 -0.2902 -2.5550 -1.7451
16857SOL     OW52502   2.045   0.101   0.681 -0.1963 -0.0827  1.0463
16857SOL    HW152503   2.065   0.086   0.589 -0.2797  2.0577  0.6141
16857SOL    HW252504   2.109   0.048   0.729 -0.3590 -1.4788 -0.2074
16858SOL     OW52505   2.785   3.619   5.237 -0.3194  0.1350  0.1877
16858SOL    HW152506   2.819   3.661   5.316 -0.3182  1.6040 -0.5584
16858SOL    HW252507   2.858   3.621   5.176 -0.4563 -0.6053 -0.0183
16859SOL     OW52508   1.885   3.444   6.373 -0.4147  0.1167 -0.0793
16859SOL    HW152509   1.951   3.499   6.331  1.1637 -1.4796  0.1719
16859SOL    HW252510   1.861   3.493   6.452  1.5986  0.1313  0.6061
16860SOL     OW52511   7.342   7.204   7.184  0.2379 -0.4762 -0.3323
16860SOL    HW152512   7.377   7.288   7.214  2.2160 -1.0153 -0.9862
16860SOL    HW252513   7.367   7.142   7.252  1.0389 -0.9587 -1.0459
16861SOL     OW52514   8.021   8.618   3.563  0.3647 -0.0371 -0.3978
16861SOL    HW152515   8.003   8.525   3.550 -1.1286  0.1203  0.3223
16861SOL    HW252516   8.033   8.627   3.657 -0.7241  0.6697 -0.3073
16862SOL     OW52517   2.267   5.897   1.604  0.0372  0.2887  0.0896
16862SOL    HW152518   2.301   5.809   1.616 -0.8622  0.1875  2.3422
16862SOL    HW252519   2.187   5.885   1.553  0.8207  0.0406 -1.1350
16863SOL     OW52520   8.817   1.830   3.438 -0.1692  0.0175 -0.1973
16863SOL    HW152521   8.726   1.854   3.456 -0.8215  0.5294 -3.5087
16863SOL    HW252522   8.829   1.746   3.482 -2.2223 -0.0439  0.3651
16864SOL     OW52523   5.137   7.076   7.042 -0.3065 -0.0174 -0.5706
16864SOL    HW152524   5.111   7.038   6.958  0.4475  1.9097 -1.7294
16864SOL    HW252525   5.092   7.160   7.045 -0.9894 -0.4126  1.3807
16865SOL     OW52526   2.552   3.596   7.548 -0.4213  0.7088 -0.8183
16865SOL    HW152527   2.480   3.589   7.611  0.4316  0.9218  0.2130
16865SOL    HW252528   2.614   3.656   7.589  1.4661 -1.2813 -0.5305
16866SOL     OW52529   0.297   3.647   3.982  0.7005  0.2190 -0.0691
16866SOL    HW152530   0.337   3.580   3.926 -0.4974 -1.5072  1.0412
16866SOL    HW252531   0.319   3.620   4.071 -0.1422  1.0856  0.4254
16867SOL     OW52532   3.940   0.894   0.173  0.0464 -0.0122  0.1336
16867SOL    HW152533   3.987   0.975   0.193  0.2724  0.1698 -1.0707
16867SOL    HW252534   3.848   0.914   0.190  0.1029  0.4893 -0.1617
16868SOL     OW52535   2.261   4.149   3.676 -0.1554 -0.3714  0.6069
16868SOL    HW152536   2.261   4.100   3.594 -0.4088 -0.4787  0.6712
16868SOL    HW252537   2.190   4.110   3.727 -0.2898 -0.0070  0.6977
16869SOL     OW52538   3.978   1.801   2.198  0.1239 -0.0769  0.2453
16869SOL    HW152539   3.889   1.819   2.228 -0.7069  0.3069 -2.2369
16869SOL    HW252540   4.019   1.887   2.190  0.1236 -0.1279 -0.3129
16870SOL     OW52541   6.768   5.979   8.751 -0.2324 -0.2406 -0.3001
16870SOL    HW152542   6.846   6.013   8.793 -0.0758  0.3815 -1.0550
16870SOL    HW252543   6.790   5.979   8.657 -0.9600 -0.5101 -0.4758
16871SOL     OW52544   7.550   4.583   8.445  0.0615 -0.4553  0.2066
16871SOL    HW152545   7.620   4.646   8.427  0.6359 -0.8359  1.0879
16871SOL    HW252546   7.560   4.516   8.378 -0.2756  0.1408 -0.4624
16872SOL     OW52547   1.767   2.509   4.957 -0.3531  0.4679 -0.0139
16872SOL    HW152548   1.746   2.594   4.994 -1.2581 -0.4299  1.6615
16872SOL    HW252549   1.732   2.512   4.868  2.5655  2.9684 -1.2296
16873SOL     OW52550   7.551   6.270   1.864  0.1885 -0.3742 -0.0533
16873SOL    HW152551   7.559   6.362   1.887 -0.7416 -0.4153  0.4650
16873SOL    HW252552   7.457   6.253   1.860  0.3436 -1.2691 -0.2802
16874SOL     OW52553   3.772   1.080   6.042 -0.1500  0.1145  0.1354
16874SOL    HW152554   3.799   1.068   6.133  0.1665  3.2497  0.5788
16874SOL    HW252555   3.756   1.174   6.034  1.3968  0.2409 -3.4843
16875SOL     OW52556   2.462   7.183   1.030  0.2370 -0.2357  0.3393
16875SOL    HW152557   2.387   7.160   1.085 -1.0577  0.5635 -1.0283
16875SOL    HW252558   2.518   7.236   1.087 -1.1106  0.6466  0.9002
16876SOL     OW52559   3.429   6.216   1.843 -0.3835  0.3687  0.2868
16876SOL    HW152560   3.336   6.241   1.846 -0.4000  0.3041  0.3218
16876SOL    HW252561   3.430   6.137   1.789 -0.3717  0.2723  0.4256
16877SOL     OW52562   7.371   8.837   7.681  0.1527 -0.1523 -0.8010
16877SOL    HW152563   7.457   8.877   7.689  0.1759 -0.1054 -1.2485
16877SOL    HW252564   7.380   8.752   7.726 -0.4278  1.0773  1.8312
16878SOL     OW52565   4.416   8.631   2.093 -0.2090 -0.1739 -0.3440
16878SOL    HW152566   4.462   8.650   2.011 -0.8778  0.2057 -0.6479
16878SOL    HW252567   4.385   8.717   2.123  0.7631 -0.1964  0.7640
16879SOL     OW52568   4.118   7.644   4.096  0.3042  0.3179  0.5459
16879SOL    HW152569   4.195   7.668   4.147  0.4104 -0.8351  0.9674
16879SOL    HW252570   4.045   7.688   4.140  0.5091  0.0409  1.1778
16880SOL     OW52571   0.348   7.765   8.005 -0.2588  0.0856 -0.4944
16880SOL    HW152572   0.302   7.796   7.927  0.0298  1.2345 -0.2216
16880SOL    HW252573   0.392   7.685   7.976 -1.6820 -0.5442 -0.9897
16881SOL     OW52574   8.269   3.129   5.949  0.0966  0.4064 -0.0382
16881SOL    HW152575   8.256   3.220   5.925 -0.7012  0.1611 -0.5613
16881SOL    HW252576   8.255   3.127   6.044 -1.4602  0.5685 -0.2450
16882SOL     OW52577   5.811   5.880   4.371 -0.8042  0.5693  0.1616
16882SOL    HW152578   5.781   5.970   4.363 -0.1193  0.7375 -0.6818
16882SOL    HW252579   5.779   5.836   4.292  0.3050  0.5171 -0.2845
16883SOL     OW52580   8.063   5.446   0.698  0.4848 -0.0446 -0.6688
16883SOL    HW152581   8.139   5.498   0.721  0.6198 -0.8251  0.7439
16883SOL    HW252582   8.094   5.387   0.630  0.9306  0.1644 -0.6469
16884SOL     OW52583   2.643   3.982   6.445 -0.4442 -0.2147 -0.1318
16884SOL    HW152584   2.617   3.891   6.436  0.5710 -0.6551  1.0799
16884SOL    HW252585   2.670   3.990   6.537 -0.2999  1.2507 -0.2764
16885SOL     OW52586   1.781   3.201   6.731  0.1065 -0.2886  0.0611
16885SOL    HW152587   1.785   3.206   6.635  1.5418  0.5476  0.1229
16885SOL    HW252588   1.873   3.206   6.758 -0.2763 -0.6359  1.4793
16886SOL     OW52589   2.525   0.442   3.698  0.1866  0.0501 -0.4883
16886SOL    HW152590   2.550   0.492   3.776  1.2257 -2.3138  0.7985
16886SOL    HW252591   2.542   0.502   3.625 -0.8160  2.3536  1.0380
16887SOL     OW52592   8.179   7.348   0.990 -0.0101  0.0802  0.2751
16887SOL    HW152593   8.201   7.262   1.027 -0.6602 -0.6534 -0.9765
16887SOL    HW252594   8.204   7.342   0.898  0.2447  1.3601  0.2395
16888SOL     OW52595   8.459   0.363   2.425 -0.5172 -0.4557 -0.4437
16888SOL    HW152596   8.435   0.362   2.332 -1.5690 -1.4585 -0.1709
16888SOL    HW252597   8.500   0.278   2.440 -1.9269 -1.0002  0.4076
16889SOL     OW52598   7.900   7.068   2.842 -0.3806  0.3544  0.2919
16889SOL    HW152599   7.923   6.994   2.786  1.1876  0.7914  0.3088
16889SOL    HW252600   7.869   7.135   2.781 -1.5684 -0.1937  0.2543
16890SOL     OW52601   6.626   0.807   5.736 -0.2974  0.3684  0.2605
16890SOL    HW152602   6.554   0.772   5.683 -1.2089 -1.6524  2.6306
16890SOL    HW252603   6.593   0.891   5.768 -0.6612  0.5298 -0.5114
16891SOL     OW52604   8.249   2.263   2.990 -0.0346 -0.4644  0.0408
16891SOL    HW152605   8.169   2.237   3.037 -0.7085  1.4086 -0.0030
16891SOL    HW252606   8.229   2.245   2.898 -0.8180  0.8915 -0.0814
16892SOL     OW52607   3.819   7.615   3.480 -0.5011 -0.0496  0.4419
16892SOL    HW152608   3.783   7.598   3.393 -0.9308  0.1314  0.5815
16892SOL    HW252609   3.841   7.528   3.513  1.2515  0.0001 -0.5091
16893SOL     OW52610   0.832   8.509   8.545  0.4464 -0.4049 -0.5046
16893SOL    HW152611   0.873   8.577   8.597 -0.5656 -0.0678 -0.1257
16893SOL    HW252612   0.901   8.478   8.486  1.1403  0.3551 -0.0983
16894SOL     OW52613   6.483   2.474   7.516 -0.1688 -0.7351 -0.3719
16894SOL    HW152614   6.551   2.539   7.497  0.7113 -1.8746 -1.2385
16894SOL    HW252615   6.431   2.514   7.586  3.3613 -1.1636  2.7725
16895SOL     OW52616   0.728   0.703   4.153  0.2332 -0.0980  0.5105
16895SOL    HW152617   0.760   0.652   4.078 -0.9624  0.7668 -0.6484
16895SOL    HW252618   0.637   0.721   4.132  0.3177  1.5730  1.3933
16896SOL     OW52619   4.128   0.088   5.538  0.5256  0.1611  0.7111
16896SOL    HW152620   4.200   0.034   5.506  0.3057  1.0759 -1.4925
16896SOL    HW252621   4.096   0.041   5.615  2.1480 -1.3259  0.5511
16897SOL     OW52622   2.031   3.935   6.696 -0.1756 -0.2403 -0.3058
16897SOL    HW152623   2.009   3.891   6.614  0.8909 -3.9689  1.2058
16897SOL    HW252624   2.101   3.996   6.673 -1.1187  0.1212 -2.4152
16898SOL     OW52625   8.323   6.649   5.015  0.1462 -0.1042 -0.2930
16898SOL    HW152626   8.391   6.690   5.068 -0.5851  0.9282 -0.1088
16898SOL    HW252627   8.241   6.675   5.058 -0.5249  1.4872 -2.3501
16899SOL     OW52628   7.729   5.501   8.715  0.0598 -0.2382 -0.0861
16899SOL    HW152629   7.702   5.535   8.800  2.4000  3.6218 -0.6709
16899SOL    HW252630   7.809   5.451   8.733  0.9245  1.1225  0.0078
16900SOL     OW52631   7.830   8.058   4.720  0.3294  0.1513 -0.2354
16900SOL    HW152632   7.831   7.969   4.686  2.2088 -0.5465  1.4291
16900SOL    HW252633   7.865   8.112   4.649  1.8672 -0.8788 -0.2912
16901SOL     OW52634   8.775   0.017   7.005 -0.0457  0.1414 -0.0748
16901SOL    HW152635   8.788   0.109   7.025  0.6395  0.1619 -0.5803
16901SOL    HW252636   8.858  -0.025   7.029 -0.5868 -0.4688  0.8214
16902SOL     OW52637   7.496   7.857   8.535 -0.4884 -0.1989 -0.4967
16902SOL    HW152638   7.587   7.871   8.561 -0.1863 -1.7570 -0.5999
16902SOL    HW252639   7.456   7.944   8.536  0.4889  0.2834  1.4577
16903SOL     OW52640   0.947   1.382   3.715 -0.3395  0.5626  0.3452
16903SOL    HW152641   0.873   1.339   3.757  1.2169 -1.5826  1.1030
16903SOL    HW252642   0.922   1.389   3.623 -1.5651  0.0936  0.6274
16904SOL     OW52643   7.603   6.831   7.123 -0.0794  0.2905 -0.1512
16904SOL    HW152644   7.690   6.843   7.086  0.2143 -2.8156 -0.8044
16904SOL    HW252645   7.548   6.808   7.047 -1.0649  0.5040  0.4820
16905SOL     OW52646   2.109   4.492   1.799 -0.0435  0.5042 -0.5746
16905SOL    HW152647   2.079   4.541   1.875 -2.0970 -0.1821 -0.8711
16905SOL    HW252648   2.047   4.515   1.729 -1.2566 -2.5062 -0.6813
16906SOL     OW52649   0.528   8.387   5.958 -0.4423 -0.2400  0.4822
16906SOL    HW152650   0.477   8.445   6.014 -0.6192  0.4354 -0.3476
16906SOL    HW252651   0.472   8.372   5.882 -0.1602 -1.0347  0.4206
16907SOL     OW52652   7.883   7.236   3.427 -0.3840 -0.1790  0.0385
16907SOL    HW152653   7.794   7.242   3.391 -0.3096  0.0577 -0.1060
16907SOL    HW252654   7.891   7.314   3.482 -0.9919 -1.2201  1.6817
16908SOL     OW52655   5.229   7.121   1.796  0.4367 -0.7447  0.2161
16908SOL    HW152656   5.217   7.139   1.703  0.7509  2.4667  0.6896
16908SOL    HW252657   5.142   7.100   1.828  0.1029 -0.5849 -0.5601
16909SOL     OW52658   6.023   7.029   0.304  0.1908 -0.8817 -0.6959
16909SOL    HW152659   6.034   7.067   0.217  1.3046 -0.5154 -0.4121
16909SOL    HW252660   6.107   7.042   0.347 -0.5797 -0.3329  0.7259
16910SOL     OW52661   7.422   5.136   8.681  0.4966 -0.2387 -0.7240
16910SOL    HW152662   7.400   5.218   8.726 -0.2320 -1.0355  0.4449
16910SOL    HW252663   7.439   5.074   8.752  1.0801 -1.0962 -1.5851
16911SOL     OW52664   7.846   5.361   5.520  0.0590  0.6060  0.2705
16911SOL    HW152665   7.829   5.272   5.490  0.6175  1.0783 -1.5670
16911SOL    HW252666   7.868   5.351   5.613  1.3454 -1.3436 -0.1769
16912SOL     OW52667   5.201   5.982   8.082  0.1124  0.2094  0.1025
16912SOL    HW152668   5.234   5.935   8.005  0.0062  0.4699 -0.1081
16912SOL    HW252669   5.271   5.976   8.146  0.8685  1.3593 -0.5885
16913SOL     OW52670   6.759   5.598   8.549  0.0726  0.3673 -0.4699
16913SOL    HW152671   6.747   5.683   8.507 -1.2684  0.6596  0.4697
16913SOL    HW252672   6.685   5.589   8.608  1.9273  0.0343  1.9898
16914SOL     OW52673   1.986   0.829   4.735 -0.4090 -0.0906  0.2796
16914SOL    HW152674   1.896   0.800   4.722  0.4789 -2.4189 -1.2924
16914SOL    HW252675   2.012   0.788   4.817 -0.3238 -0.7302 -0.0575
16915SOL     OW52676   4.875   0.730   0.115  0.0955  0.0495  0.3685
16915SOL    HW152677   4.872   0.796   0.185 -0.2294  0.1477  0.2655
16915SOL    HW252678   4.956   0.683   0.129 -0.3718 -0.4900  1.3225
16916SOL     OW52679   5.129   3.613   2.599  0.2253  0.7303 -0.1072
16916SOL    HW152680   5.218   3.590   2.571 -0.2784  1.0646 -2.2037
16916SOL    HW252681   5.121   3.706   2.580 -0.6097  0.6723 -0.0932
16917SOL     OW52682   8.290   8.497   4.231 -0.5665 -0.0581  0.4353
16917SOL    HW152683   8.211   8.445   4.216 -0.6191  0.3404 -0.8205
16917SOL    HW252684   8.340   8.489   4.149  0.1949  0.5368  0.8267
16918SOL     OW52685   0.467   1.245   0.550  0.3594 -0.2990  0.0284
16918SOL    HW152686   0.384   1.211   0.518  0.7668 -1.1452 -0.1484
16918SOL    HW252687   0.452   1.262   0.643 -0.0622 -0.2795 -0.0430
16919SOL     OW52688   5.281   4.217   7.397  0.0578  0.2683 -0.0677
16919SOL    HW152689   5.307   4.297   7.352  0.8517 -0.0814 -0.2362
16919SOL    HW252690   5.265   4.244   7.487 -1.5594  0.9783 -0.5209
16920SOL     OW52691   7.954   2.883   4.434  0.1748  0.2313  0.3072
16920SOL    HW152692   7.923   2.836   4.356  1.0762 -0.7889  0.5374
16920SOL    HW252693   7.876   2.924   4.470 -0.8585 -1.8960  0.6285
16921SOL     OW52694   6.629   8.398   1.225 -0.0588 -0.3904 -0.5160
16921SOL    HW152695   6.614   8.307   1.200  0.4898 -0.1157 -1.9576
16921SOL    HW252696   6.541   8.436   1.232 -0.5357 -1.7950  3.5207
16922SOL     OW52697   0.299   7.586   2.622 -0.0231 -0.0745  0.3106
16922SOL    HW152698   0.373   7.571   2.563 -0.5235 -0.0160 -0.3465
16922SOL    HW252699   0.302   7.680   2.642 -0.8122  0.2478 -0.9626
16923SOL     OW52700   5.350   2.698   5.583  0.4371  0.0380 -0.0646
16923SOL    HW152701   5.338   2.651   5.666 -1.1521 -0.1154 -0.3499
16923SOL    HW252702   5.397   2.778   5.607  0.4756 -0.2590  0.8947
16924SOL     OW52703   3.737   1.403   3.845  0.2068  0.0174 -0.4424
16924SOL    HW152704   3.801   1.339   3.876  3.6520  2.0438 -2.6815
16924SOL    HW252705   3.768   1.487   3.880 -1.6727  1.0483 -1.0823
16925SOL     OW52706   0.284   5.356   3.477  0.0920 -0.0732  0.7599
16925SOL    HW152707   0.254   5.267   3.497 -0.1401 -0.8151 -2.3698
16925SOL    HW252708   0.347   5.344   3.406  1.6288  2.1601  1.6509
16926SOL     OW52709   6.870   0.596   5.451  0.4927  0.2080  0.0387
16926SOL    HW152710   6.906   0.533   5.389  0.3858  0.0779  0.1081
16926SOL    HW252711   6.946   0.631   5.497  0.5583  0.1817 -0.0489
16927SOL     OW52712   6.085   6.307   2.364 -0.1273  0.1966 -0.1947
16927SOL    HW152713   6.095   6.342   2.453  0.7270  0.3784 -0.3521
16927SOL    HW252714   6.123   6.375   2.308 -3.0474  1.3467 -0.9660
16928SOL     OW52715   2.339   4.874   4.799  0.3516 -0.0608  0.1668
16928SOL    HW152716   2.258   4.903   4.759 -0.2856 -0.7259  0.9357
16928SOL    HW252717   2.395   4.850   4.726 -0.2627  0.1089 -0.3656
16929SOL     OW52718   2.504   4.644   6.102 -0.0399  0.1662  0.4089
16929SOL    HW152719   2.424   4.629   6.051  1.6692  0.4290 -2.5483
16929SOL    HW252720   2.536   4.556   6.124  1.1907 -0.1703 -2.4029
16930SOL     OW52721   7.190   6.962   8.468  0.2191  0.0271 -0.2206
16930SOL    HW152722   7.214   7.036   8.522 -2.6909 -0.5926  2.2008
16930SOL    HW252723   7.234   6.887   8.508 -0.4807 -0.1681  0.2081
16931SOL     OW52724   4.534   4.443   6.484 -0.4207  0.4046  0.6399
16931SOL    HW152725   4.573   4.488   6.408  2.1207 -1.4641  0.7224
16931SOL    HW252726   4.468   4.505   6.516  1.0841  2.9425 -0.7722
16932SOL     OW52727   7.608   3.176   2.310 -0.0777  0.4280 -0.5048
16932SOL    HW152728   7.565   3.123   2.378 -0.6147  1.5657  0.0823
16932SOL    HW252729   7.541   3.186   2.243  0.4717 -0.7417 -1.2517
16933SOL     OW52730   3.965   7.109   7.209  0.3733  0.0580  0.0987
16933SOL    HW152731   4.032   7.121   7.276  1.1362 -1.3225 -0.3697
16933SOL    HW252732   4.003   7.144   7.129 -0.3817  1.3380  0.2643
16934SOL     OW52733   7.610   3.548   3.908  0.4148 -0.0877  0.2078
16934SOL    HW152734   7.635   3.579   3.995 -1.0481 -1.1392  1.0502
16934SOL    HW252735   7.577   3.626   3.863  1.1088  0.4461  0.5942
16935SOL     OW52736   4.372   8.401   0.654 -0.5423 -0.6643  0.1191
16935SOL    HW152737   4.446   8.462   0.650  0.2492 -1.6045  0.0712
16935SOL    HW252738   4.297   8.452   0.625 -0.1010  0.5913  1.1120
16936SOL     OW52739   8.474   2.900   1.670  0.2270 -0.0000 -0.0663
16936SOL    HW152740   8.445   2.900   1.579 -0.0452  2.2923 -0.0223
16936SOL    HW252741   8.413   2.840   1.714 -0.9241  0.4161 -1.0300
16937SOL     OW52742   0.174   5.631   1.304 -0.2734  0.0040  0.0742
16937SOL    HW152743   0.111   5.695   1.336  0.4228  1.1245 -0.7209
16937SOL    HW252744   0.158   5.626   1.210  0.1901 -0.4073  0.0124
16938SOL     OW52745   1.244   5.900   8.567  0.2698 -0.1694  0.3065
16938SOL    HW152746   1.229   5.843   8.643 -0.2368 -0.9125 -0.3232
16938SOL    HW252747   1.239   5.840   8.492  2.6907  0.2025 -0.2188
16939SOL     OW52748   6.995   8.328   0.676 -0.0483 -0.1052  0.1214
16939SOL    HW152749   6.909   8.296   0.650  0.6624 -1.0470 -1.1458
16939SOL    HW252750   7.017   8.278   0.755 -0.7081  0.2597  0.5498
16940SOL     OW52751   8.643   8.006   5.511  0.0879 -0.3995  0.4823
16940SOL    HW152752   8.624   7.971   5.424  0.1457 -0.9348  0.6842
16940SOL    HW252753   8.558   8.037   5.543  0.1098  0.0209  0.1422
16941SOL     OW52754   7.790   7.980   5.472 -0.1538 -0.4740 -0.0316
16941SOL    HW152755   7.807   7.932   5.554 -0.4243 -1.8615 -0.7538
16941SOL    HW252756   7.704   8.018   5.485 -0.6874 -1.6212 -0.0676
16942SOL     OW52757   8.269   0.515   8.528 -0.2172 -0.2867 -0.0355
16942SOL    HW152758   8.327   0.569   8.582  0.4913 -0.7999 -0.2628
16942SOL    HW252759   8.198   0.574   8.502  0.1999  0.3525  0.2547
16943SOL     OW52760   3.100   0.026   7.853  0.5011  0.1026 -0.1634
16943SOL    HW152761   3.036   0.086   7.890  0.3356  0.3134 -0.7849
16943SOL    HW252762   3.157   0.003   7.927 -0.3049 -0.1126  0.3992
16944SOL     OW52763   6.124   3.554   6.411 -0.6274  0.0063  0.1465
16944SOL    HW152764   6.078   3.569   6.329  0.5349  0.1673 -0.4946
16944SOL    HW252765   6.193   3.491   6.390 -0.1660  0.2227  0.9298
16945SOL     OW52766   8.321   7.909   4.853 -0.4788  0.0754  0.1738
16945SOL    HW152767   8.273   7.914   4.936 -0.2753  0.5472  0.2670
16945SOL    HW252768   8.285   7.980   4.800  0.5888  0.8831  0.5013
16946SOL     OW52769   6.253   6.155   7.091  0.3288  0.3810 -0.1495
16946SOL    HW152770   6.255   6.059   7.085 -0.1618  0.3288  0.3220
16946SOL    HW252771   6.291   6.186   7.009 -0.8107 -0.2227 -0.9377
16947SOL     OW52772   8.815   7.500   4.642 -0.1142 -0.2617 -0.3656
16947SOL    HW152773   8.793   7.479   4.552 -0.9912  0.0257 -0.2291
16947SOL    HW252774   8.908   7.522   4.640 -0.1230 -0.2724 -1.1904
16948SOL     OW52775   8.534   2.964   3.001  0.2397 -0.0171  0.1393
16948SOL    HW152776   8.457   2.976   2.945  0.5905  1.0202 -0.1616
16948SOL    HW252777   8.535   3.042   3.056  2.8076  1.7113 -2.0415
16949SOL     OW52778   0.359   2.922   3.433  0.3111 -0.4898  0.0612
16949SOL    HW152779   0.300   2.852   3.407 -0.6061  0.3441 -0.1760
16949SOL    HW252780   0.439   2.905   3.383 -0.4467 -0.4991 -1.1969
16950SOL     OW52781   2.651   1.327   5.205  0.0723 -0.2523  0.4525
16950SOL    HW152782   2.569   1.343   5.158 -0.6282  0.0587  1.7398
16950SOL    HW252783   2.664   1.232   5.200  0.0587 -0.2169 -0.4183
16951SOL     OW52784   6.528   1.788   6.979  0.2166  0.2554 -0.2485
16951SOL    HW152785   6.620   1.813   6.987  0.0112  0.8070  0.4581
16951SOL    HW252786   6.496   1.838   6.904  0.7024 -0.6056 -1.0597
16952SOL     OW52787   7.887   3.676   6.254  0.3612  0.0366  0.2623
16952SOL    HW152788   7.893   3.601   6.195  3.0506 -0.7537  1.4153
16952SOL    HW252789   7.794   3.699   6.254 -0.3567 -2.5093 -1.0615
16953SOL     OW52790   7.861   0.974   4.521  0.5839  0.2938 -0.3172
16953SOL    HW152791   7.793   0.936   4.465  1.2383 -0.7898 -0.4067
16953SOL    HW252792   7.875   0.909   4.590  1.1089  0.7702  0.0313
16954SOL     OW52793   7.217   6.283   2.498  0.2639 -0.3939  0.2148
16954SOL    HW152794   7.125   6.311   2.496  0.2779 -0.3973 -0.5581
16954SOL    HW252795   7.249   6.298   2.409  1.1354  0.0108  0.5877
16955SOL     OW52796   6.077   4.265   0.246 -0.5242  0.1289  0.1532
16955SOL    HW152797   6.121   4.200   0.301 -2.2106 -0.4377  0.8974
16955SOL    HW252798   6.148   4.315   0.206  0.9762 -3.1190 -1.6796
16956SOL     OW52799   8.433   3.292   0.590  0.1828  0.2123  0.3036
16956SOL    HW152800   8.475   3.289   0.676  2.6892  4.0578 -0.5339
16956SOL    HW252801   8.502   3.265   0.529  0.1037  2.2825 -0.7870
16957SOL     OW52802   3.490   5.382   2.036 -0.1445 -0.2560 -0.0323
16957SOL    HW152803   3.575   5.426   2.043 -0.3237  0.2253 -0.8512
16957SOL    HW252804   3.435   5.442   1.986 -0.4473 -1.3178 -1.0149
16958SOL     OW52805   8.227   3.107   8.615  0.2086  0.1789 -0.1791
16958SOL    HW152806   8.191   3.191   8.587  1.4748  0.6366 -0.5144
16958SOL    HW252807   8.158   3.068   8.669 -0.0179  1.8921  0.8468
16959SOL     OW52808   8.441   6.559   6.227  0.7648  0.6400 -0.1889
16959SOL    HW152809   8.488   6.586   6.305 -0.5334  2.2405  0.1098
16959SOL    HW252810   8.500   6.579   6.154  0.8682  1.9260  0.2230
16960SOL     OW52811   3.382   2.445   1.169  0.7080 -0.3121 -0.1787
16960SOL    HW152812   3.402   2.501   1.244 -3.5003  2.5689 -0.8252
16960SOL    HW252813   3.336   2.370   1.207 -0.8509  0.8262  0.2702
16961SOL     OW52814   4.085   2.075   2.095  0.4233 -0.2200 -0.2949
16961SOL    HW152815   3.997   2.112   2.083 -0.1225 -1.3895  0.0290
16961SOL    HW252816   4.088   2.000   2.036  1.6978  0.5801 -1.3044
16962SOL     OW52817   0.546   2.868   8.568  0.1243 -0.2468 -0.5893
16962SOL    HW152818   0.522   2.879   8.659 -0.6633  0.2962 -0.8582
16962SOL    HW252819   0.527   2.952   8.527  2.6959  0.3368 -0.7991
16963SOL     OW52820   4.010   2.949   1.264  0.1023  0.0482  0.9292
16963SOL    HW152821   4.054   2.907   1.190 -0.7256  0.7643  0.0028
16963SOL    HW252822   3.955   2.880   1.302 -0.3606 -0.0172  0.1496
16964SOL     OW52823   0.539   8.395   3.871 -0.0470 -0.1555  0.3176
16964SOL    HW152824   0.494   8.406   3.955 -1.1928 -1.9161 -0.0241
16964SOL    HW252825   0.628   8.428   3.887 -0.0805 -0.9383  2.3879
16965SOL     OW52826   1.437   0.075   4.302  0.1468  0.3580 -0.6077
16965SOL    HW152827   1.416  -0.018   4.302  0.7097  0.1521  1.6816
16965SOL    HW252828   1.389   0.111   4.227 -0.6427 -1.6343 -1.1277
16966SOL     OW52829   8.207   4.335   4.021 -0.0826 -0.0609 -0.5179
16966SOL    HW152830   8.160   4.312   3.941 -0.2977  1.8037 -0.9784
16966SOL    HW252831   8.140   4.336   4.089 -0.0506 -0.8355 -0.4687
16967SOL     OW52832   0.316   0.690   1.066  0.0458  0.8433 -0.1894
16967SOL    HW152833   0.232   0.648   1.087  0.1237  0.5102 -0.5311
16967SOL    HW252834   0.359   0.700   1.150 -0.6064  1.5964  0.0626
16968SOL     OW52835   6.373   1.665   4.696 -0.4302 -0.5045 -0.3616
16968SOL    HW152836   6.357   1.596   4.760  0.9985  1.1981  1.9594
16968SOL    HW252837   6.329   1.742   4.731 -0.6196  0.2217 -2.0661
16969SOL     OW52838   1.916   4.033   8.130 -0.7690 -0.0862  0.0882
16969SOL    HW152839   1.950   4.092   8.062 -0.7004  0.3652  0.5102
16969SOL    HW252840   1.995   3.998   8.172 -0.8132  0.1733  0.3919
16970SOL     OW52841   5.075   0.618   5.599 -0.1653 -0.2769 -0.5212
16970SOL    HW152842   5.003   0.681   5.602  0.5210  0.5775 -1.3158
16970SOL    HW252843   5.131   0.649   5.528 -0.6374 -2.6787 -2.0715
16971SOL     OW52844   5.245   2.413   4.791 -0.0890  0.2270 -0.5204
16971SOL    HW152845   5.278   2.497   4.759  1.9371 -0.1892  0.2794
16971SOL    HW252846   5.277   2.408   4.881 -0.3856 -1.2781 -0.4697
16972SOL     OW52847   3.086   5.397   8.351 -0.4510 -0.6024  0.7238
16972SOL    HW152848   3.113   5.354   8.270 -0.2677  0.8442 -0.0036
16972SOL    HW252849   3.125   5.484   8.347 -0.7430 -0.3694  2.2038
16973SOL     OW52850   6.509   8.626   2.642 -0.0344 -0.0301  0.2281
16973SOL    HW152851   6.549   8.626   2.728 -0.1776 -0.6323  0.3009
16973SOL    HW252852   6.433   8.569   2.651  0.3217 -0.6261 -0.4630
16974SOL     OW52853   3.009   3.765   6.847  0.6923  0.2936 -0.4668
16974SOL    HW152854   3.020   3.828   6.918  0.6045 -0.1761 -0.0284
16974SOL    HW252855   3.038   3.811   6.769  3.5415 -0.0797  0.2623
16975SOL     OW52856   3.362   4.768   2.970 -0.5845 -0.3699 -0.1658
16975SOL    HW152857   3.433   4.732   2.917 -0.0321  0.2471  0.1418
16975SOL    HW252858   3.374   4.727   3.056 -0.6691 -0.3424 -0.1409
16976SOL     OW52859   7.598   4.069   2.662  0.2609 -0.0840  0.0124
16976SOL    HW152860   7.574   4.123   2.587 -0.6033 -0.6292 -0.1074
16976SOL    HW252861   7.617   3.983   2.625 -0.1988 -0.3629  0.4154
16977SOL     OW52862   0.740   2.094   0.071 -0.0062  0.1655  0.2364
16977SOL    HW152863   0.806   2.080   0.003  1.4651 -1.5735  1.9232
16977SOL    HW252864   0.767   2.176   0.113  0.8247 -0.2818  0.5973
16978SOL     OW52865   8.566   3.494   3.503  0.3706 -0.0675 -0.1172
16978SOL    HW152866   8.575   3.571   3.447 -0.2057  0.3663  0.3802
16978SOL    HW252867   8.479   3.502   3.542  0.3823 -0.8682  0.0928
16979SOL     OW52868   6.941   2.576   3.271 -0.0017 -0.4782 -0.6256
16979SOL    HW152869   6.879   2.648   3.282 -0.1854 -0.8475  1.0451
16979SOL    HW252870   6.887   2.503   3.241 -0.7431 -1.1913  2.1054
16980SOL     OW52871   3.033   4.216   4.210  0.5521 -0.2299 -0.1773
16980SOL    HW152872   3.046   4.123   4.191  0.4982 -0.4366  0.7743
16980SOL    HW252873   2.995   4.218   4.298 -1.2240  0.6057 -0.9203
16981SOL     OW52874   8.840   4.728   2.247 -0.0346  0.3609  0.4113
16981SOL    HW152875   8.837   4.649   2.193  1.6138  0.4390  0.1508
16981SOL    HW252876   8.783   4.708   2.322 -0.3069 -0.7324 -0.0658
16982SOL     OW52877   3.648   5.122   8.835  0.2728 -0.4569  0.4705
16982SOL    HW152878   3.615   5.194   8.782 -0.9467 -1.4193 -0.1010
16982SOL    HW252879   3.683   5.165   8.914 -0.5634  0.7366  0.2144
16983SOL     OW52880   6.410   8.158   4.571  0.5106  0.0564 -0.3024
16983SOL    HW152881   6.342   8.091   4.570  0.9194 -0.3999  0.7631
16983SOL    HW252882   6.427   8.176   4.479  1.2964 -2.2244 -0.6592
16984SOL     OW52883   2.105   2.000   2.986 -0.2299 -0.2653 -0.5816
16984SOL    HW152884   2.101   1.978   2.893  1.2407 -0.7236 -0.5742
16984SOL    HW252885   2.027   2.052   3.003  0.3046  1.2357 -2.4501
16985SOL     OW52886   3.295   1.336   5.533 -0.1634 -0.1566  0.6979
16985SOL    HW152887   3.365   1.299   5.588  0.2306 -1.0922 -0.3933
16985SOL    HW252888   3.221   1.277   5.546 -0.6306  0.5729  1.4918
16986SOL     OW52889   6.071   5.145   1.179  0.6188  0.5928  0.1400
16986SOL    HW152890   6.153   5.155   1.131  0.5228  0.4440 -0.0574
16986SOL    HW252891   6.029   5.231   1.174 -1.2474 -0.3375 -3.4662
16987SOL     OW52892   6.460   3.748   6.607 -0.1155 -0.4869  0.1569
16987SOL    HW152893   6.507   3.693   6.544  2.1641  1.7611 -0.2332
16987SOL    HW252894   6.513   3.744   6.686  0.2262  1.2499  0.0530
16988SOL     OW52895   2.141   8.179   5.391  0.1107 -0.6085  0.2332
16988SOL    HW152896   2.130   8.223   5.307 -0.1361  0.4656  0.8116
16988SOL    HW252897   2.152   8.250   5.454 -0.3643 -1.3686  1.1973
16989SOL     OW52898   0.339   1.664   7.906  0.1014 -0.0155 -0.7309
16989SOL    HW152899   0.247   1.677   7.932  0.7050  1.3173  0.9627
16989SOL    HW252900   0.374   1.605   7.973  0.8669  0.7752 -0.4178
16990SOL     OW52901   0.822   7.760   4.729  0.5976  0.6074  0.2646
16990SOL    HW152902   0.760   7.691   4.753  0.5640  0.0383 -1.3073
16990SOL    HW252903   0.768   7.838   4.717 -0.2272 -0.2658 -2.8213
16991SOL     OW52904   0.371   5.541   7.937  0.2954  0.1618  0.7782
16991SOL    HW152905   0.348   5.626   7.901  2.0832  0.0639 -0.7197
16991SOL    HW252906   0.451   5.557   7.988  0.9023 -0.6818  0.1117
16992SOL     OW52907   4.704   8.025   8.086 -0.0118  0.5620 -0.1224
16992SOL    HW152908   4.617   8.026   8.127 -0.4169  2.6393 -0.8981
16992SOL    HW252909   4.764   8.007   8.158 -1.0956 -1.9969  0.2548
16993SOL     OW52910   8.013   2.259   2.583  0.2424 -0.2006  0.4434
16993SOL    HW152911   7.969   2.315   2.519  0.3283  0.6210  1.0781
16993SOL    HW252912   8.023   2.175   2.539 -0.7400  0.0017 -0.1940
16994SOL     OW52913   5.896   8.369   0.791 -0.0020 -0.1626  0.7633
16994SOL    HW152914   5.948   8.411   0.860  0.0966  0.1585  0.4980
16994SOL    HW252915   5.830   8.318   0.838 -0.0561  0.2071  1.0968
16995SOL     OW52916   0.338   2.734   2.091 -0.0296  0.0686 -0.0367
16995SOL    HW152917   0.329   2.682   2.012  2.9837 -0.8907  0.1201
16995SOL    HW252918   0.266   2.705   2.147 -1.7910  0.2572 -2.1008
16996SOL     OW52919   0.977   8.171   8.690 -0.3968  0.0879  0.0674
16996SOL    HW152920   0.915   8.234   8.727  0.1305  0.8368 -0.2905
16996SOL    HW252921   0.934   8.139   8.610  0.5394  2.2533 -1.4043
16997SOL     OW52922   7.290   5.174   0.335  0.3860  0.1123  0.3388
16997SOL    HW152923   7.371   5.153   0.288  0.6023  0.3540  0.5955
16997SOL    HW252924   7.273   5.098   0.390  1.3935  0.7400  1.5795
16998SOL     OW52925   6.387   3.006   5.132  0.7337 -0.1458  0.0070
16998SOL    HW152926   6.413   2.976   5.045  1.2947  1.7599 -0.5236
16998SOL    HW252927   6.311   3.062   5.117  2.4847  2.5367  0.2958
16999SOL     OW52928   1.040   7.871   8.103  0.3547 -0.0643 -0.3512
16999SOL    HW152929   1.031   7.959   8.068 -1.7495 -0.8596 -2.0189
16999SOL    HW252930   0.966   7.860   8.163  0.5596 -0.7121 -0.1986
17000SOL     OW52931   7.489   8.325   3.732 -0.0348 -0.0420 -0.0518
17000SOL    HW152932   7.470   8.235   3.706  0.3127 -0.5553  1.3829
17000SOL    HW252933   7.527   8.365   3.654 -0.5932 -0.9999 -0.8415
17001SOL     OW52934   8.535   2.935   0.361  0.3202  0.1057 -0.3484
17001SOL    HW152935   8.466   2.990   0.324 -0.1397 -0.7903 -0.8559
17001SOL    HW252936   8.496   2.897   0.440  0.8810  1.0506  0.4040
17002SOL     OW52937   4.572   4.229   1.571  0.0600  0.0296  0.3921
17002SOL    HW152938   4.641   4.249   1.507 -1.5308  1.3929 -0.9824
17002SOL    HW252939   4.532   4.149   1.537 -0.5144  0.5233 -0.1168
17003SOL     OW52940   8.841   1.515   7.302 -0.3887  0.5488 -0.0938
17003SOL    HW152941   8.777   1.572   7.345 -0.6534  0.1958 -0.0172
17003SOL    HW252942   8.902   1.491   7.371 -1.8035 -1.4618  0.5574
17004SOL     OW52943   1.804   2.479   5.354  0.3347 -0.8571 -0.0432
17004SOL    HW152944   1.730   2.453   5.408 -0.3011 -1.4131 -1.1637
17004SOL    HW252945   1.829   2.400   5.306  0.3733 -0.1937 -1.1575
17005SOL     OW52946   2.796   4.488   5.416  0.2842  0.1799 -0.0580
17005SOL    HW152947   2.836   4.523   5.495  0.5703  1.8448 -0.8912
17005SOL    HW252948   2.732   4.424   5.447 -0.4491  1.6271  1.5966
17006SOL     OW52949   1.814   8.676   6.248 -0.3119  0.5323  0.0167
17006SOL    HW152950   1.727   8.666   6.285  0.0873 -1.6165  0.5055
17006SOL    HW252951   1.870   8.698   6.323 -0.2505  0.8618 -0.1213
17007SOL     OW52952   7.378   8.721   6.713 -0.2930 -0.0326  0.2408
17007SOL    HW152953   7.324   8.797   6.734 -0.7800  0.2182 -1.7042
17007SOL    HW252954   7.450   8.756   6.661  0.4281 -0.6947  0.7660
17008SOL     OW52955   4.406   6.414   3.099  0.0406  0.3344  0.1088
17008SOL    HW152956   4.408   6.510   3.096 -1.7383  0.3889 -2.2844
17008SOL    HW252957   4.325   6.393   3.146 -1.1043  0.1410 -1.8093
17009SOL     OW52958   3.643   2.692   5.821  0.4302 -0.6514 -0.5694
17009SOL    HW152959   3.562   2.720   5.863  0.0329 -1.0967 -1.0205
17009SOL    HW252960   3.639   2.733   5.734  1.5497  0.8013  0.0157
17010SOL     OW52961   0.360   2.145   4.932  0.1999 -0.3315 -0.3632
17010SOL    HW152962   0.455   2.138   4.928  0.2130  0.1586 -1.0187
17010SOL    HW252963   0.328   2.057   4.913  0.5079 -0.3731 -0.6840
17011SOL     OW52964   1.014   7.016   0.674 -0.1669 -0.0495  0.4044
17011SOL    HW152965   1.110   7.018   0.671 -0.2018  0.5835 -1.0349
17011SOL    HW252966   0.987   7.048   0.588 -1.6863  1.3318  1.3384
17012SOL     OW52967   6.225   2.293   6.179  0.3903  0.1112  0.4575
17012SOL    HW152968   6.279   2.214   6.191 -0.0797 -0.5614 -1.4189
17012SOL    HW252969   6.177   2.276   6.098 -1.5902  1.3070  1.3318
17013SOL     OW52970   3.758   8.714   2.806 -0.3052 -0.3787  0.0235
17013SOL    HW152971   3.837   8.664   2.785 -0.3984 -0.3111 -0.5191
17013SOL    HW252972   3.791   8.796   2.843 -0.1255 -0.4228 -0.0350
17014SOL     OW52973   2.267   2.109   5.252 -0.0080  0.1340  0.5699
17014SOL    HW152974   2.323   2.051   5.304  1.4328  0.2738 -0.7431
17014SOL    HW252975   2.325   2.144   5.184 -1.8340 -0.2607 -1.3225
17015SOL     OW52976   5.740   2.594   3.544  0.0570  0.4633 -0.0673
17015SOL    HW152977   5.719   2.639   3.462  0.3634  1.1411  0.2150
17015SOL    HW252978   5.697   2.647   3.612  1.7088  1.2432  0.4151
17016SOL     OW52979   3.449   7.349   5.549  0.1464 -0.4392 -0.2300
17016SOL    HW152980   3.472   7.287   5.480  0.4136  0.4456 -0.9506
17016SOL    HW252981   3.525   7.406   5.556  0.3891 -0.9192  1.2646
17017SOL     OW52982   1.775   8.682   2.181 -0.3323  0.0396  0.1204
17017SOL    HW152983   1.806   8.594   2.205 -1.4109 -0.2551  0.4720
17017SOL    HW252984   1.787   8.687   2.086 -0.7375 -0.6800  0.0281
17018SOL     OW52985   3.404   0.321   4.456 -0.4644 -0.0714  0.5050
17018SOL    HW152986   3.450   0.327   4.372 -1.3101 -1.4041 -0.0877
17018SOL    HW252987   3.474   0.320   4.522  0.4655 -2.5552 -0.3925
17019SOL     OW52988   4.559   5.350   7.914  0.4226  0.3993 -0.3697
17019SOL    HW152989   4.557   5.440   7.880 -0.7469  0.4995 -0.0560
17019SOL    HW252990   4.492   5.348   7.983 -0.4984 -1.0590 -1.2482
17020SOL     OW52991   6.899   2.006   0.697  0.3595  0.0614  0.0305
17020SOL    HW152992   6.970   2.071   0.700 -0.9226  1.5397 -0.1770
17020SOL    HW252993   6.881   1.986   0.789  1.3178 -0.6788  0.0779
17021SOL     OW52994   8.278   7.762   7.456  0.5667  0.2759 -0.1098
17021SOL    HW152995   8.185   7.781   7.450  0.0689 -0.5995  3.1203
17021SOL    HW252996   8.314   7.836   7.507  1.3682 -0.0660 -0.1633
17022SOL     OW52997   8.506   1.699   2.295 -1.0520  0.7421 -0.1381
17022SOL    HW152998   8.585   1.746   2.322 -0.5048  1.1485 -2.3056
17022SOL    HW252999   8.539   1.624   2.245 -2.0421  0.7463 -0.8109
17023SOL     OW53000   8.181   4.898   6.119 -0.7083 -0.6921 -0.1348
17023SOL    HW153001   8.137   4.902   6.205  0.1271  0.3484  0.2661
17023SOL    HW253002   8.273   4.883   6.140 -0.4035  0.1262 -0.8135
17024SOL     OW53003   2.161   8.133   8.005  0.1811 -0.5659  0.1648
17024SOL    HW153004   2.086   8.076   8.024  0.7959 -1.7078 -0.6988
17024SOL    HW253005   2.203   8.092   7.929  1.2917  0.4376  0.2187
17025SOL     OW53006   2.046   3.411   8.371 -0.1149  0.0219 -0.0371
17025SOL    HW153007   2.004   3.396   8.456  1.3437 -2.1732  0.4042
17025SOL    HW253008   2.021   3.334   8.319  3.1294 -1.4057  0.2468
17026SOL     OW53009   7.150   6.226   3.824  0.2135 -0.0426  0.3590
17026SOL    HW153010   7.189   6.188   3.902  0.8683 -3.4057 -1.4334
17026SOL    HW253011   7.225   6.249   3.768 -0.2458 -0.5998 -0.5171
17027SOL     OW53012   2.430   3.825   7.190  0.1049 -0.2071  0.0875
17027SOL    HW153013   2.423   3.749   7.248 -1.0026 -0.3346 -0.1827
17027SOL    HW253014   2.515   3.814   7.146  0.4235 -0.7276  0.8097
17028SOL     OW53015   0.422   5.127   2.798  0.2007 -0.0334  0.0784
17028SOL    HW153016   0.432   5.182   2.876  0.3764  0.3597 -0.2141
17028SOL    HW253017   0.504   5.141   2.749  0.2454 -0.5536 -0.0044
17029SOL     OW53018   0.939   4.743   0.523  0.5610  0.3915 -0.0029
17029SOL    HW153019   0.906   4.701   0.444  1.2574  0.9636 -0.6047
17029SOL    HW253020   0.866   4.737   0.585  0.0551 -0.1688 -0.6393
17030SOL     OW53021   0.976   3.125   5.767 -0.0726  0.6451 -0.4852
17030SOL    HW153022   0.913   3.159   5.831  0.3010 -0.1950  0.3587
17030SOL    HW253023   0.962   3.030   5.768  0.6206  0.5350 -0.9290
17031SOL     OW53024   7.937   1.277   5.039 -0.2509 -0.2083  0.6323
17031SOL    HW153025   7.970   1.192   5.066 -0.7793 -0.9262 -0.8603
17031SOL    HW253026   7.996   1.340   5.080  1.5813 -1.3550 -0.1054
17032SOL     OW53027   0.966   0.728   8.014 -0.2633  0.5390  0.3060
17032SOL    HW153028   0.924   0.659   7.963  1.0020  0.2778 -0.4302
17032SOL    HW253029   0.903   0.751   8.082 -0.9574 -0.8844  0.1569
17033SOL     OW53030   4.142   6.187   2.909  0.0272  0.1775  0.3637
17033SOL    HW153031   4.236   6.168   2.912 -0.0946 -0.4404  2.5612
17033SOL    HW253032   4.104   6.111   2.864  0.6304  0.9046 -1.4508
17034SOL     OW53033   7.512   3.123   5.774 -0.6342  0.0228 -0.3332
17034SOL    HW153034   7.528   3.045   5.827  2.1263  1.4319  1.1473
17034SOL    HW253035   7.441   3.168   5.818 -0.9814 -0.7175 -0.1134
17035SOL     OW53036   1.110   1.128   1.033 -0.0164  0.2942 -0.4387
17035SOL    HW153037   1.070   1.196   0.980 -1.4101 -0.5822 -0.5584
17035SOL    HW253038   1.100   1.158   1.123  1.4042  1.2776 -0.5659
17036SOL     OW53039   0.077   1.360   3.060  0.4807 -0.1196  0.6964
17036SOL    HW153040   0.099   1.308   2.983  1.5613  1.8122 -0.3604
17036SOL    HW253041   0.161   1.381   3.100  0.1034  1.1169  0.8858
17037SOL     OW53042   5.275   4.814   8.299 -0.3911 -0.2978  0.9286
17037SOL    HW153043   5.284   4.733   8.348 -0.9838 -0.1378  1.3105
17037SOL    HW253044   5.183   4.817   8.274  0.1297 -1.0141 -1.3110
17038SOL     OW53045   3.234   6.308   8.414 -0.1978  0.8050  0.0898
17038SOL    HW153046   3.156   6.295   8.359 -0.0751  0.0956  0.0746
17038SOL    HW253047   3.259   6.219   8.440  0.5042  1.0475  0.2374
17039SOL     OW53048   7.308   1.602   5.363 -0.2798 -1.2236 -0.4704
17039SOL    HW153049   7.291   1.692   5.335  0.4836 -0.6978  0.6686
17039SOL    HW253050   7.260   1.547   5.301 -1.1790 -0.0095 -0.8683
17040SOL     OW53051   6.363   0.396   1.595  0.2115  0.4462 -0.2284
17040SOL    HW153052   6.327   0.311   1.620 -0.9898  1.1362  0.5042
17040SOL    HW253053   6.352   0.400   1.500 -0.6313  0.1660 -0.1536
17041SOL     OW53054   1.679   6.962   8.172 -0.0842 -0.0724 -0.1580
17041SOL    HW153055   1.638   6.880   8.199 -0.0763  0.9042  3.2474
17041SOL    HW253056   1.607   7.015   8.138 -0.4987 -0.6045 -0.1168
17042SOL     OW53057   2.305   2.567   2.462 -0.0495  0.1692 -0.0210
17042SOL    HW153058   2.261   2.490   2.425  1.3408  1.1003 -4.1629
17042SOL    HW253059   2.398   2.545   2.457  0.3121  1.6757 -0.1896
17043SOL     OW53060   1.299   5.762   4.253  0.3382 -0.2078  0.3840
17043SOL    HW153061   1.256   5.803   4.328 -1.0329 -1.5285  0.3579
17043SOL    HW253062   1.228   5.744   4.191  0.7543 -3.0549  0.6099
17044SOL     OW53063   4.047   1.281   0.198 -0.2554 -0.2504  0.0886
17044SOL    HW153064   3.961   1.242   0.216 -0.2776 -0.0275  0.4726
17044SOL    HW253065   4.038   1.318   0.110  0.1783 -2.2399 -0.8535
17045SOL     OW53066   3.972   3.379   4.448 -0.2390  0.1908 -0.5180
17045SOL    HW153067   4.056   3.374   4.403 -0.3942  0.2345 -0.8170
17045SOL    HW253068   3.920   3.441   4.396 -0.9010 -0.8029 -1.0847
17046SOL     OW53069   5.937   5.230   3.135  0.5259  0.0735 -0.8767
17046SOL    HW153070   5.863   5.199   3.081 -0.6377  1.1551  0.0415
17046SOL    HW253071   5.936   5.173   3.211 -0.9366  1.5652  0.2946
17047SOL     OW53072   5.778   4.018   1.474 -0.0450 -0.3471 -0.4985
17047SOL    HW153073   5.755   3.958   1.545  3.1081  0.0569  1.0231
17047SOL    HW253074   5.725   4.096   1.490 -0.9546 -1.0558  0.0796
17048SOL     OW53075   4.219   3.240   5.781 -0.3255 -0.4463 -0.1657
17048SOL    HW153076   4.231   3.213   5.689  0.9117 -0.4730 -0.0157
17048SOL    HW253077   4.300   3.212   5.824 -1.3552 -1.4422  1.1912
17049SOL     OW53078   6.026   3.463   7.059 -0.2161 -0.5834  0.6908
17049SOL    HW153079   5.976   3.400   7.008 -0.8885 -0.1580  0.8128
17049SOL    HW253080   6.072   3.410   7.125  0.9411 -1.1730 -0.5494
17050SOL     OW53081   0.786   1.493   2.637  0.4775 -0.0564 -0.1330
17050SOL    HW153082   0.762   1.582   2.613 -1.4754 -0.8280 -1.3186
17050SOL    HW253083   0.776   1.489   2.732  1.2829  1.1547  0.0173
17051SOL     OW53084   7.180   4.138   0.587  0.9660  0.1224  0.1811
17051SOL    HW153085   7.184   4.182   0.502  0.1409 -0.0945  0.0207
17051SOL    HW253086   7.198   4.046   0.568  1.4195  0.1697  0.3426
17052SOL     OW53087   3.630   2.038   8.604  0.0397  0.0674  0.0633
17052SOL    HW153088   3.632   1.991   8.688 -1.3174  2.9231  1.8576
17052SOL    HW253089   3.714   2.018   8.563 -0.0759 -3.0779  1.0711
17053SOL     OW53090   0.099   1.857   6.369 -0.0211 -0.0675  0.2084
17053SOL    HW153091   0.087   1.949   6.391  2.2608  0.1365  0.8663
17053SOL    HW253092   0.125   1.858   6.276  1.7233  0.1728  0.6582
17054SOL     OW53093   8.424   3.301   8.735 -0.3844  0.3829  0.0909
17054SOL    HW153094   8.368   3.330   8.807 -0.2543  1.1346 -0.1051
17054SOL    HW253095   8.370   3.239   8.687 -0.9995  0.9710  0.0029
17055SOL     OW53096   3.024   7.704   4.331  0.3418  0.1595 -0.0866
17055SOL    HW153097   3.119   7.694   4.327  0.3472  0.3321 -0.3890
17055SOL    HW253098   2.990   7.654   4.257  0.2026  0.1746 -0.0346
17056SOL     OW53099   6.762   8.350   2.298  0.2504  0.5359  0.0287
17056SOL    HW153100   6.799   8.334   2.385  2.9244  0.9100 -0.9274
17056SOL    HW253101   6.668   8.358   2.312  0.5035 -0.3825  2.7228
17057SOL     OW53102   3.922   1.232   4.571 -0.3189 -0.4799  0.0492
17057SOL    HW153103   3.901   1.144   4.540 -1.1706 -0.4997  0.6191
17057SOL    HW253104   4.009   1.251   4.536 -0.5048 -1.1921 -0.8228
17058SOL     OW53105   7.012   2.989   7.317  0.2820  0.4095 -0.2873
17058SOL    HW153106   6.934   3.036   7.288  0.1219  0.1473 -0.2770
17058SOL    HW253107   7.011   2.907   7.267 -0.1515 -0.1806  0.6551
17059SOL     OW53108   6.315   2.867   1.194  0.4028 -0.0996 -0.0258
17059SOL    HW153109   6.407   2.876   1.165 -0.3940  1.8509 -2.3523
17059SOL    HW253110   6.275   2.950   1.169 -2.2461 -1.2807  0.0148
17060SOL     OW53111   1.713   3.147   8.560 -0.5944 -0.3835  0.0838
17060SOL    HW153112   1.649   3.217   8.548 -1.2763 -1.2733 -1.7915
17060SOL    HW253113   1.774   3.156   8.488 -0.8861 -1.8875 -0.3983
17061SOL     OW53114   1.166   5.383   4.363  0.2791 -0.0023 -0.3126
17061SOL    HW153115   1.128   5.300   4.392  1.4665 -0.2891  0.4842
17061SOL    HW253116   1.126   5.449   4.420 -1.6885  0.2033 -1.8168
17062SOL     OW53117   5.502   8.636   7.025 -0.0434  0.5904 -0.8147
17062SOL    HW153118   5.571   8.570   7.022  0.5805  1.1890 -0.2625
17062SOL    HW253119   5.446   8.617   6.950  1.0306  0.4107 -1.5849
17063SOL     OW53120   0.882   6.547   8.523 -0.6988 -0.2393  0.1663
17063SOL    HW153121   0.884   6.550   8.427 -0.8414 -0.5159  0.1534
17063SOL    HW253122   0.937   6.620   8.550 -0.9759  0.0877 -0.1279
17064SOL     OW53123   4.350   1.122   4.136  0.3980 -0.1967 -0.0454
17064SOL    HW153124   4.265   1.088   4.163  0.0843  0.7796  0.2134
17064SOL    HW253125   4.361   1.203   4.184  0.3097  1.0422 -1.9851
17065SOL     OW53126   1.555   6.304   2.100  0.1006  0.2897  0.0257
17065SOL    HW153127   1.571   6.301   2.005 -0.5556 -0.5810 -0.0626
17065SOL    HW253128   1.609   6.378   2.130 -1.5245  2.1624 -1.3825
17066SOL     OW53129   0.700   2.503   6.243 -0.0198 -0.2077 -0.9556
17066SOL    HW153130   0.655   2.539   6.319  1.0823 -0.3998 -0.1914
17066SOL    HW253131   0.659   2.547   6.168 -1.0472  0.0593 -0.2630
17067SOL     OW53132   1.832   2.543   2.218  0.2391 -0.4252  0.5144
17067SOL    HW153133   1.892   2.602   2.171  1.9491 -2.0058  0.5995
17067SOL    HW253134   1.793   2.489   2.149 -0.7600  0.2671  0.5119
17068SOL     OW53135   3.825   3.009   5.608 -0.0628  0.1619  0.3897
17068SOL    HW153136   3.877   2.962   5.674  0.5521  0.1833 -0.0683
17068SOL    HW253137   3.807   3.094   5.648 -1.5285 -0.5845  1.3878
17069SOL     OW53138   1.788   4.746   6.119  0.2876  0.2300 -0.5558
17069SOL    HW153139   1.816   4.836   6.102  0.7092 -0.2372 -2.5603
17069SOL    HW253140   1.705   4.736   6.072  0.0989 -0.3518 -0.1237
17070SOL     OW53141   6.228   1.942   7.016 -0.0914 -0.2068  0.3361
17070SOL    HW153142   6.133   1.925   7.018  0.1295 -1.7910 -1.0308
17070SOL    HW253143   6.267   1.859   6.990  1.6703  0.5177  0.5324
17071SOL     OW53144   8.524   0.342   5.046  0.3630 -0.3690 -0.5992
17071SOL    HW153145   8.528   0.360   5.140  0.5777  0.2711 -0.7237
17071SOL    HW253146   8.612   0.359   5.014  0.1811 -0.1294 -0.9921
17072SOL     OW53147   0.815   7.501   3.021 -0.8469 -0.6681  0.8281
17072SOL    HW153148   0.735   7.484   2.972 -1.0730 -1.3188  1.3995
17072SOL    HW253149   0.864   7.419   3.016  0.1493 -0.0315 -0.1668
17073SOL     OW53150   8.516   0.935   1.805  0.1348  0.6767 -1.0539
17073SOL    HW153151   8.448   0.885   1.760  0.7230  0.7082 -2.0184
17073SOL    HW253152   8.562   0.981   1.734  1.5397  0.1778 -0.5034
17074SOL     OW53153   7.962   2.688   8.670 -0.0390  0.3322  0.3630
17074SOL    HW153154   8.039   2.718   8.718  1.0675 -0.7311 -0.6987
17074SOL    HW253155   7.991   2.680   8.579 -1.4039 -0.0940 -0.0613
17075SOL     OW53156   3.391   2.669   7.738 -0.1133  0.6975 -0.2960
17075SOL    HW153157   3.300   2.655   7.767 -0.5784 -0.3799 -2.0908
17075SOL    HW253158   3.437   2.590   7.765 -0.1990  0.3602 -1.0970
17076SOL     OW53159   4.310   2.850   3.104 -0.3072 -0.3804 -0.1180
17076SOL    HW153160   4.226   2.820   3.138  0.3145 -0.0826  1.7668
17076SOL    HW253161   4.358   2.882   3.181  0.3646  2.3582 -1.5492
17077SOL     OW53162   8.719   6.842   3.101  0.3748 -0.0637 -0.0781
17077SOL    HW153163   8.687   6.905   3.036 -0.7150 -0.0620  0.4343
17077SOL    HW253164   8.690   6.757   3.068  0.6146 -0.1507 -0.0621
17078SOL     OW53165   1.187   4.408   6.280 -0.3423 -0.2661 -0.0779
17078SOL    HW153166   1.141   4.436   6.201 -1.2573  1.6405  1.0758
17078SOL    HW253167   1.252   4.476   6.295 -0.1821 -0.6075  0.8238
17079SOL     OW53168   3.873   4.726   1.504 -0.1913  0.2819 -0.0485
17079SOL    HW153169   3.877   4.630   1.505  0.8079  0.2976  1.3326
17079SOL    HW253170   3.963   4.754   1.521 -0.7731  1.4096  1.4833
17080SOL     OW53171   7.102   8.027   8.077 -0.1168  0.4335  0.0726
17080SOL    HW153172   7.074   8.052   8.165 -2.3737 -0.4485 -0.3342
17080SOL    HW253173   7.065   8.095   8.021 -2.0294 -0.9948 -0.5227
17081SOL     OW53174   0.223   8.425   0.630 -0.2936 -0.3164 -0.0525
17081SOL    HW153175   0.239   8.414   0.536  1.4138 -0.5375  0.2268
17081SOL    HW253176   0.192   8.515   0.639  1.9756  0.6044 -0.6157
17082SOL     OW53177   0.114   0.731   0.364  0.0184 -0.2951 -0.4685
17082SOL    HW153178   0.179   0.754   0.297 -0.1276  1.1039 -0.1610
17082SOL    HW253179   0.163   0.682   0.430  0.2281 -1.4153 -1.4232
17083SOL     OW53180   1.078   3.064   1.726 -0.2885 -0.2703 -0.4696
17083SOL    HW153181   1.055   3.029   1.812 -1.4442  2.6881  0.5543
17083SOL    HW253182   1.173   3.053   1.720 -0.1665 -0.4530  1.2595
17084SOL     OW53183   4.138   5.887   1.219  0.5599  0.1505  0.3978
17084SOL    HW153184   4.155   5.967   1.169  0.5907  0.8058  1.4184
17084SOL    HW253185   4.057   5.852   1.181  0.7863  0.4177 -0.3522
17085SOL     OW53186   2.596   4.753   5.415 -0.1889 -0.0790  0.5631
17085SOL    HW153187   2.616   4.750   5.509  0.1210  0.8465  0.5423
17085SOL    HW253188   2.501   4.746   5.411 -0.0640 -2.8178  0.7709
17086SOL     OW53189   3.385   7.836   6.147  0.3182 -0.0321 -0.6186
17086SOL    HW153190   3.387   7.771   6.217 -0.7341 -1.4801 -1.8559
17086SOL    HW253191   3.452   7.806   6.086  0.2477  0.3917 -0.9050
17087SOL     OW53192   6.501   1.472   4.382 -0.5715  0.1400 -0.1733
17087SOL    HW153193   6.539   1.428   4.307  1.0471  1.8833 -0.4368
17087SOL    HW253194   6.530   1.421   4.458 -2.1823 -1.6007 -0.6553
17088SOL     OW53195   4.143   5.012   0.115 -0.4117 -0.1212  0.4556
17088SOL    HW153196   4.181   4.945   0.057 -1.7194 -1.1996  0.7905
17088SOL    HW253197   4.200   5.088   0.103  0.1646 -0.7458 -1.1948
17089SOL     OW53198   0.301   2.723   4.925 -0.3137 -0.2483 -0.5944
17089SOL    HW153199   0.289   2.683   4.838  0.1525  0.6309 -1.0760
17089SOL    HW253200   0.235   2.681   4.980 -0.5159 -0.9273 -1.3389
17090SOL     OW53201   7.844   6.188   4.095  0.2428 -0.3436  0.1876
17090SOL    HW153202   7.791   6.264   4.072  1.0370  0.0064 -0.5355
17090SOL    HW253203   7.933   6.223   4.106  0.7557 -1.2680 -0.8439
17091SOL     OW53204   8.266   3.558   3.845  0.0055 -0.1547  0.3985
17091SOL    HW153205   8.221   3.479   3.876  2.9671 -2.3468 -0.4825
17091SOL    HW253206   8.275   3.546   3.751  0.7757  1.1143  0.2862
17092SOL     OW53207   6.137   6.638   2.984 -0.1342  0.2247  0.1829
17092SOL    HW153208   6.139   6.733   2.976  0.8950  0.1141 -1.1633
17092SOL    HW253209   6.047   6.613   2.965 -0.2728  0.8812 -0.0103
17093SOL     OW53210   5.615   1.130   5.233  0.3585  0.9436 -0.0858
17093SOL    HW153211   5.587   1.200   5.291  1.0407  1.3531 -0.2466
17093SOL    HW253212   5.681   1.082   5.283 -1.8951 -1.2202  1.0720
17094SOL     OW53213   6.774   8.362   8.045 -0.1584 -0.0357  0.4066
17094SOL    HW153214   6.704   8.400   7.992  0.3121  1.0811  0.5546
17094SOL    HW253215   6.782   8.420   8.120  0.8387 -0.2109  0.4520
17095SOL     OW53216   8.365   0.167   8.164  0.0229 -0.1756 -0.1102
17095SOL    HW153217   8.359   0.247   8.217 -0.5986  0.3051 -0.8620
17095SOL    HW253218   8.343   0.096   8.224  2.8331 -0.0712  1.1605
17096SOL     OW53219   8.349   1.312   1.538  0.1259 -1.0679 -0.5214
17096SOL    HW153220   8.418   1.295   1.603 -1.1882  0.1228  1.2713
17096SOL    HW253221   8.305   1.227   1.527  2.9410 -2.3770 -3.1697
17097SOL     OW53222   3.690   6.773   1.740 -0.3008 -0.0080  0.4698
17097SOL    HW153223   3.719   6.839   1.803 -1.2874  0.2767  0.6460
17097SOL    HW253224   3.727   6.691   1.773  0.1592  0.3136  0.7680
17098SOL     OW53225   5.184   0.013   8.172 -0.3333 -0.3274  0.6932
17098SOL    HW153226   5.182   0.024   8.267 -0.0202 -0.6550  0.7416
17098SOL    HW253227   5.277   0.007   8.150 -0.2031  2.7240 -0.0113
17099SOL     OW53228   4.439   3.948   1.533 -0.2520 -0.6333  0.1425
17099SOL    HW153229   4.427   3.999   1.453  1.5460 -1.0175 -0.4215
17099SOL    HW253230   4.433   3.857   1.505 -0.7754 -0.7653  0.6667
17100SOL     OW53231   6.003   0.508   8.493 -0.6310 -0.1070 -0.6878
17100SOL    HW153232   6.077   0.451   8.473 -0.6057 -0.3371  0.0385
17100SOL    HW253233   6.025   0.549   8.577 -0.7373  0.8305 -1.0995
17101SOL     OW53234   5.669   2.746   3.339  0.3210  0.2437  0.5755
17101SOL    HW153235   5.702   2.825   3.295 -0.5766  0.2644 -0.0829
17101SOL    HW253236   5.576   2.762   3.351 -0.0554 -1.0832 -0.3956
17102SOL     OW53237   2.961   6.117   0.680  0.4991  0.0684 -0.0756
17102SOL    HW153238   2.981   6.165   0.760  0.8411 -1.4564  0.7879
17102SOL    HW253239   3.025   6.149   0.616 -0.0927  1.6666  0.0703
17103SOL     OW53240   1.012   8.134   7.278  0.2922  0.0822  0.2580
17103SOL    HW153241   0.951   8.061   7.269  0.8374 -0.2375 -1.0809
17103SOL    HW253242   1.098   8.092   7.284  0.6694  0.6024 -1.1326
17104SOL     OW53243   4.882   2.807   7.220  0.7437  0.1448  0.1429
17104SOL    HW153244   4.880   2.714   7.197  0.5323 -0.1638  1.3524
17104SOL    HW253245   4.975   2.828   7.230  0.7159 -0.4379  1.7753
17105SOL     OW53246   6.122   3.816   1.079 -0.5788  0.2164 -0.0262
17105SOL    HW153247   6.135   3.907   1.104  0.7056 -0.1187  0.5944
17105SOL    HW253248   6.187   3.800   1.011  0.1796 -0.6112  0.8665
17106SOL     OW53249   5.752   2.971   0.585  0.6228  0.8040  0.5737
17106SOL    HW153250   5.802   2.905   0.634  2.2905  1.4084 -0.2194
17106SOL    HW253251   5.673   2.925   0.557  1.0190 -0.4006  1.3363
17107SOL     OW53252   1.994   2.305   4.868 -0.3595  1.0910 -0.4064
17107SOL    HW153253   1.957   2.231   4.917  0.8962  0.9943  0.4439
17107SOL    HW253254   1.932   2.377   4.884 -0.7757  0.6463  0.0582
17108SOL     OW53255   2.419   6.337   1.855  0.0437  0.8787 -0.5213
17108SOL    HW153256   2.478   6.266   1.831  1.7291  2.9920 -3.1324
17108SOL    HW253257   2.333   6.295   1.866  1.4346 -1.8826  0.7528
17109SOL     OW53258   0.589   5.846   7.359  0.0739 -0.2948  0.5759
17109SOL    HW153259   0.611   5.938   7.377  0.1697 -0.3194  0.5844
17109SOL    HW253260   0.618   5.832   7.269  0.1987 -0.3603  0.6268
17110SOL     OW53261   4.983   5.896   1.195 -0.0181 -0.4566 -0.9559
17110SOL    HW153262   4.945   5.858   1.274 -0.3595  1.2053 -0.2848
17110SOL    HW253263   5.042   5.964   1.228  0.6282 -0.4426 -2.1092
17111SOL     OW53264   3.144   4.223   2.845 -0.0924  0.2006 -0.3146
17111SOL    HW153265   3.105   4.139   2.869 -0.5406  0.9094  1.6254
17111SOL    HW253266   3.069   4.277   2.820  0.2936 -0.2644 -2.6916
17112SOL     OW53267   3.199   2.035   4.957  0.7910  0.1055  0.3355
17112SOL    HW153268   3.167   2.068   4.874 -0.5071 -0.7573  0.4656
17112SOL    HW253269   3.210   1.941   4.943 -1.2883 -0.3937  1.6523
17113SOL     OW53270   7.519   8.098   7.037 -0.3552  0.0381 -0.5514
17113SOL    HW153271   7.601   8.080   6.990 -0.3294 -0.3107 -0.3764
17113SOL    HW253272   7.472   8.160   6.981 -0.5872 -0.8210 -1.3331
17114SOL     OW53273   4.271   2.958   2.853 -0.0608  0.1845  0.3402
17114SOL    HW153274   4.282   2.905   2.932  1.8579 -1.3200 -0.8447
17114SOL    HW253275   4.207   2.910   2.801  0.0868  0.1504  0.1869
17115SOL     OW53276   6.469   5.173   8.829 -0.0095 -0.7737  0.3315
17115SOL    HW153277   6.510   5.246   8.875 -1.0618  0.4601 -0.5913
17115SOL    HW253278   6.519   5.165   8.748 -0.9026  0.0683 -0.3323
17116SOL     OW53279   1.154   3.334   2.013 -0.1557  0.3668 -0.1907
17116SOL    HW153280   1.145   3.355   2.106  0.4436 -0.2208  0.0080
17116SOL    HW253281   1.236   3.285   2.008 -0.0468  0.6231 -1.0701
17117SOL     OW53282   2.761   3.955   4.816  0.1220 -0.1944 -0.3501
17117SOL    HW153283   2.851   3.926   4.799 -0.2157 -2.3978  1.1483
17117SOL    HW253284   2.710   3.874   4.820 -1.3580  0.7223  1.9138
17118SOL     OW53285   8.799   1.379   0.751 -0.3179 -0.0155  0.1037
17118SOL    HW153286   8.704   1.384   0.764 -0.3025 -0.9450  0.6289
17118SOL    HW253287   8.820   1.286   0.760  0.9210  0.3870  1.9618
17119SOL     OW53288   1.808   3.274   0.003  0.8970 -0.1175 -0.6759
17119SOL    HW153289   1.818   3.231  -0.081  3.2415  0.0636 -0.5453
17119SOL    HW253290   1.883   3.244   0.055 -1.3966 -1.6916  2.0581
17120SOL     OW53291   8.357   6.623   0.314  0.4697  0.5015  0.7840
17120SOL    HW153292   8.303   6.614   0.236  1.5952  0.0559  0.0363
17120SOL    HW253293   8.345   6.714   0.341  0.0679  0.6568  0.1011
17121SOL     OW53294   3.749   1.034   8.752  0.2327  0.9577  0.3625
17121SOL    HW153295   3.833   1.081   8.747  0.1926  0.9131 -2.3856
17121SOL    HW253296   3.771   0.949   8.790  1.4013  1.0466 -0.0665
17122SOL     OW53297   1.388   1.405   8.678 -0.7849 -0.1047 -0.2861
17122SOL    HW153298   1.454   1.460   8.635  0.1519 -0.0195  1.1726
17122SOL    HW253299   1.304   1.445   8.656 -0.1514  1.6747  0.3702
17123SOL     OW53300   2.873   7.606   8.810  0.0822 -0.5769 -0.6432
17123SOL    HW153301   2.924   7.570   8.737  0.9074  1.0989 -0.9256
17123SOL    HW253302   2.860   7.698   8.788 -1.8571 -0.6195  0.1283
17124SOL     OW53303   0.525   4.334   1.989  0.1490 -0.2944  0.2804
17124SOL    HW153304   0.509   4.265   1.925 -0.4041 -0.0546  0.1527
17124SOL    HW253305   0.550   4.410   1.936 -0.7517  0.0350  0.2989
17125SOL     OW53306   4.942   8.210   6.016 -0.2866  0.1863  0.3850
17125SOL    HW153307   4.858   8.204   6.060  0.2517 -1.1034  1.3088
17125SOL    HW253308   4.998   8.256   6.078 -0.2827  0.9666 -0.1897
17126SOL     OW53309   0.932   4.909   4.771  0.3590 -0.1965  0.0275
17126SOL    HW153310   0.922   4.985   4.713  1.4437 -0.4356 -0.4979
17126SOL    HW253311   0.930   4.946   4.859 -0.0099  0.3257 -0.1927
17127SOL     OW53312   3.747   1.058   4.082 -0.0587  0.3068 -0.3809
17127SOL    HW153313   3.797   0.976   4.089 -0.2912 -0.0838 -2.5840
17127SOL    HW253314   3.687   1.043   4.009 -0.5547  2.2254 -0.4166
17128SOL     OW53315   4.460   8.060   7.197 -0.3424  0.0042 -0.3355
17128SOL    HW153316   4.491   8.003   7.127 -0.6299 -0.9977  0.3354
17128SOL    HW253317   4.453   8.003   7.273 -1.5323  0.7244  0.1244
17129SOL     OW53318   2.734   1.512   2.013 -0.7180  0.3853  0.4094
17129SOL    HW153319   2.715   1.428   2.054  0.3213  0.8317  1.8659
17129SOL    HW253320   2.668   1.572   2.049 -1.5669  0.1948 -0.7570
17130SOL     OW53321   7.743   0.070   1.789 -0.1411 -0.1984 -0.5918
17130SOL    HW153322   7.655   0.035   1.771 -1.0347  1.9084 -0.5743
17130SOL    HW253323   7.752   0.064   1.884  0.0811 -1.1480 -0.6614
17131SOL     OW53324   1.243   8.127   1.582 -0.0954  0.1946  0.5077
17131SOL    HW153325   1.229   8.180   1.504  0.9513  1.2613  1.0104
17131SOL    HW253326   1.294   8.183   1.641  1.1201 -1.3827  1.0441
17132SOL     OW53327   7.132   0.926   5.673 -0.3610  0.4018 -0.3609
17132SOL    HW153328   7.138   0.988   5.600  1.0966  0.0282 -0.5896
17132SOL    HW253329   7.179   0.969   5.744 -0.2366  0.0128 -0.2066
17133SOL     OW53330   5.065   2.554   2.759 -0.1363  0.0769  0.2811
17133SOL    HW153331   5.043   2.461   2.770 -0.1050 -0.0497 -0.6227
17133SOL    HW253332   5.122   2.556   2.682 -1.3656  1.0154 -0.6293
17134SOL     OW53333   1.872   2.126   3.003  0.2680  0.0220  0.2082
17134SOL    HW153334   1.838   2.128   3.093  0.0505  1.1254  0.1220
17134SOL    HW253335   1.818   2.190   2.956 -2.3531 -3.3241 -1.7496
17135SOL     OW53336   4.955   1.614   0.324  0.5618 -0.4454  0.7254
17135SOL    HW153337   4.887   1.638   0.386 -1.3998 -2.9605 -0.2662
17135SOL    HW253338   4.961   1.688   0.264 -1.7251 -0.3511  0.5452
17136SOL     OW53339   7.866   5.545   6.151 -0.1781 -0.8170 -0.3522
17136SOL    HW153340   7.934   5.588   6.100  1.2034 -0.6555  1.5494
17136SOL    HW253341   7.830   5.479   6.091  1.8927 -1.1583 -1.3182
17137SOL     OW53342   8.177   5.610   2.736 -0.1179 -0.0816 -0.2563
17137SOL    HW153343   8.109   5.675   2.754  0.0902  0.7005 -2.0176
17137SOL    HW253344   8.131   5.537   2.695 -0.4257 -1.3564  2.1519
17138SOL     OW53345   5.838   3.605   0.164  0.2549 -0.6228  0.2707
17138SOL    HW153346   5.801   3.541   0.225  0.7174 -1.2387 -0.0838
17138SOL    HW253347   5.762   3.655   0.133 -0.2445 -1.6164 -0.1469
17139SOL     OW53348   6.460   8.539   8.813  0.4146 -0.2078  0.2008
17139SOL    HW153349   6.531   8.583   8.766  1.1601 -0.0066  1.4475
17139SOL    HW253350   6.411   8.492   8.746  1.0184  0.6240 -0.8449
17140SOL     OW53351   5.903   5.789   5.054  0.1515 -0.3339  0.0914
17140SOL    HW153352   5.858   5.717   5.009  2.1963 -0.9902 -1.0233
17140SOL    HW253353   5.991   5.756   5.070  0.9767  1.7193  0.0750
17141SOL     OW53354   1.758   4.304   3.528  0.6291  0.2202  0.1461
17141SOL    HW153355   1.714   4.389   3.521 -1.1235 -0.3360  2.8915
17141SOL    HW253356   1.724   4.254   3.454  0.4532  1.3932 -0.5970
17142SOL     OW53357   4.888   3.206   8.458  0.9892  0.3004  0.6863
17142SOL    HW153358   4.805   3.178   8.496  1.0145  0.6864  1.0346
17142SOL    HW253359   4.898   3.153   8.379 -0.1934  1.1348 -0.0551
17143SOL     OW53360   4.432   8.549   6.306 -0.2648  0.5215  0.1289
17143SOL    HW153361   4.511   8.555   6.253 -0.4774 -0.5559 -0.3335
17143SOL    HW253362   4.411   8.456   6.308 -0.9933  0.6870  1.0382
17144SOL     OW53363   7.109   6.188   6.673  0.2647 -0.3473  0.5113
17144SOL    HW153364   7.066   6.121   6.727 -0.9146  0.7411  0.9771
17144SOL    HW253365   7.059   6.268   6.690  3.1070  1.3079  1.9448
17145SOL     OW53366   1.988   0.470   1.862 -0.1298 -0.8025 -0.1829
17145SOL    HW153367   2.063   0.528   1.875 -0.0256 -0.6705 -1.2297
17145SOL    HW253368   1.923   0.500   1.925 -1.1612  2.3594 -2.4724
17146SOL     OW53369   2.794   8.832   1.119 -0.4769 -0.0757 -0.4566
17146SOL    HW153370   2.851   8.909   1.113 -0.1520 -0.3171 -0.4556
17146SOL    HW253371   2.852   8.760   1.141 -0.9808 -0.0507  1.1067
17147SOL     OW53372   6.718   1.256   6.867 -0.4517  0.2190 -0.5553
17147SOL    HW153373   6.705   1.218   6.954  0.1987 -0.9658 -0.9547
17147SOL    HW253374   6.662   1.334   6.866 -1.4749 -0.4781  0.4570
17148SOL     OW53375   3.642   7.619   0.429 -0.3436 -0.2051 -0.4298
17148SOL    HW153376   3.681   7.621   0.517  0.2177 -0.3710 -0.6673
17148SOL    HW253377   3.694   7.682   0.379 -0.1830 -0.6520 -0.8320
17149SOL     OW53378   3.268   7.623   8.226 -0.4243  0.0883 -0.4249
17149SOL    HW153379   3.320   7.650   8.150 -0.4012 -0.7137 -0.7068
17149SOL    HW253380   3.188   7.586   8.189  0.2509 -1.7671 -0.1782
17150SOL     OW53381   8.511   4.608   7.913 -0.3240 -0.3169  0.5856
17150SOL    HW153382   8.470   4.626   7.829 -1.2723  2.3264  1.5292
17150SOL    HW253383   8.441   4.573   7.968 -0.2332  0.0334  0.9265
17151SOL     OW53384   3.161   8.699   0.879 -0.8536 -0.2081 -0.4768
17151SOL    HW153385   3.224   8.709   0.808  2.8798 -0.2739  2.4719
17151SOL    HW253386   3.152   8.604   0.890  0.2997 -0.2514  0.3644
17152SOL     OW53387   2.326   7.236   4.686  0.1200  0.1100 -0.5414
17152SOL    HW153388   2.335   7.197   4.773 -3.9487 -2.8782 -1.2013
17152SOL    HW253389   2.290   7.323   4.703 -0.1818 -0.2378  0.7554
17153SOL     OW53390   8.333   6.583   2.071 -0.1702 -0.4103  0.1419
17153SOL    HW153391   8.267   6.569   2.138 -0.0168 -1.4194  0.1015
17153SOL    HW253392   8.417   6.566   2.115 -0.0685 -1.0765 -0.2841
17154SOL     OW53393   1.071   0.548   3.247  0.1208 -0.0491 -0.3534
17154SOL    HW153394   1.046   0.532   3.156 -2.1756 -0.2470  0.2505
17154SOL    HW253395   0.988   0.563   3.293  0.9627 -2.1789  2.1522
17155SOL     OW53396   0.027   4.973   8.048 -0.3172  0.2043 -0.3785
17155SOL    HW153397   0.094   5.040   8.063 -0.6832  0.5449 -0.2186
17155SOL    HW253398   0.072   4.890   8.060 -0.3140  0.4441  1.4212
17156SOL     OW53399   6.756   3.826   1.766 -0.3333 -0.0306 -0.7256
17156SOL    HW153400   6.667   3.860   1.758  0.0853  2.0922  1.9992
17156SOL    HW253401   6.801   3.891   1.820  2.2144 -2.2131 -0.0326
17157SOL     OW53402   5.078   3.408   6.561  0.0443 -0.2996  0.4423
17157SOL    HW153403   5.085   3.501   6.583  1.7998  0.1409 -1.6025
17157SOL    HW253404   4.993   3.381   6.596 -1.9446  2.8526 -1.4437
17158SOL     OW53405   0.507   7.741   6.438 -0.5109  0.1671 -0.1128
17158SOL    HW153406   0.420   7.706   6.422  0.0022 -1.2833  0.1517
17158SOL    HW253407   0.498   7.791   6.520 -0.6646 -1.7252  1.0854
17159SOL     OW53408   4.808   8.494   8.817  0.7061 -0.2130  0.3064
17159SOL    HW153409   4.818   8.469   8.909  1.5733 -0.3625  0.1778
17159SOL    HW253410   4.897   8.497   8.783  0.4203  0.2587 -0.4264
17160SOL     OW53411   0.063   2.749   3.096  0.3211 -0.1707  0.2528
17160SOL    HW153412  -0.015   2.752   3.152  0.3477  0.2322  0.2735
17160SOL    HW253413   0.061   2.662   3.056  0.4381 -0.5552  1.0719
17161SOL     OW53414   6.993   1.910   1.132  0.1553  0.2039 -0.2905
17161SOL    HW153415   7.045   1.839   1.095  0.3674  0.8460 -1.2793
17161SOL    HW253416   6.926   1.927   1.066 -0.3451  0.4249  0.2695
17162SOL     OW53417   2.976   1.578   5.915 -0.2942 -0.6639  0.4507
17162SOL    HW153418   3.035   1.512   5.881  0.0159  0.3980 -1.1857
17162SOL    HW253419   2.892   1.532   5.925  0.2276 -1.6095  0.6277
17163SOL     OW53420   8.508   7.759   5.813 -0.1128 -0.8866 -0.2685
17163SOL    HW153421   8.480   7.733   5.725  2.7418 -0.5854 -1.3845
17163SOL    HW253422   8.545   7.679   5.851 -2.4630 -1.3367  1.2435
17164SOL     OW53423   3.529   6.543   2.279 -0.5227 -0.1096  0.3914
17164SOL    HW153424   3.449   6.587   2.248 -0.5473 -0.8067 -0.5676
17164SOL    HW253425   3.497   6.479   2.343 -0.8410 -1.0170 -0.6587
17165SOL     OW53426   7.953   2.478   2.779  0.6573  0.6885 -0.1613
17165SOL    HW153427   7.976   2.476   2.686  1.6176 -0.5339  0.0744
17165SOL    HW253428   7.935   2.386   2.802 -1.2031  1.1666  0.4920
17166SOL     OW53429   6.963   4.557   4.618 -0.2925 -0.1706 -0.2489
17166SOL    HW153430   6.956   4.631   4.678  1.3477  1.2323 -1.6567
17166SOL    HW253431   6.879   4.556   4.571 -0.3362  0.8396 -0.2203
17167SOL     OW53432   6.159   3.461   0.203 -0.0797  0.1111  0.7430
17167SOL    HW153433   6.255   3.455   0.209  0.0247  1.6279  1.0590
17167SOL    HW253434   6.133   3.500   0.287 -1.1805 -1.9961  1.4258
17168SOL     OW53435   4.265   5.327   4.832 -0.2766  0.0935  0.3564
17168SOL    HW153436   4.183   5.332   4.881 -1.6482  2.5740 -1.9017
17168SOL    HW253437   4.253   5.254   4.771 -0.3631 -0.2134  0.7373
17169SOL     OW53438   3.850   3.031   2.614 -0.8406  0.0225  0.3782
17169SOL    HW153439   3.790   3.104   2.598  1.0266  1.6648  0.4807
17169SOL    HW253440   3.829   3.003   2.704 -2.2176 -0.2670  0.0010
17170SOL     OW53441   5.510   7.676   1.449  0.4146  0.3513 -0.4357
17170SOL    HW153442   5.574   7.746   1.434  1.1558 -0.3470 -0.5819
17170SOL    HW253443   5.500   7.633   1.364  0.6840 -0.3247 -0.1302
17171SOL     OW53444   8.262   2.000   1.018  0.6174 -0.5845 -0.5429
17171SOL    HW153445   8.310   2.057   0.958 -0.3371  0.4776 -0.3515
17171SOL    HW253446   8.185   1.973   0.969 -0.1661  0.2822  0.1542
17172SOL     OW53447   1.100   1.817   7.713 -0.0740 -0.3662  0.5377
17172SOL    HW153448   1.065   1.903   7.689  2.0861  1.0429  2.0751
17172SOL    HW253449   1.116   1.773   7.630  0.3482  1.4008 -0.3705
17173SOL     OW53450   4.737   7.100   5.216 -0.1152 -0.2973  0.3298
17173SOL    HW153451   4.677   7.048   5.270 -0.5897  0.1286  0.2118
17173SOL    HW253452   4.681   7.146   5.155  0.3257  0.1768  0.2780
17174SOL     OW53453   8.352   7.198   7.032 -0.0966  0.5058 -0.0547
17174SOL    HW153454   8.294   7.150   6.973 -0.1149 -0.1060  0.4486
17174SOL    HW253455   8.421   7.135   7.054 -0.3704  0.5516  0.9824
17175SOL     OW53456   3.200   0.533   8.122 -0.6649 -0.2913 -0.0038
17175SOL    HW153457   3.239   0.514   8.037  0.9507  0.7392  0.4772
17175SOL    HW253458   3.247   0.476   8.184  0.1098  0.9488  0.5824
17176SOL     OW53459   8.643   4.413   7.668 -0.5003  0.3510 -0.2989
17176SOL    HW153460   8.580   4.396   7.737 -0.0192 -1.7073 -0.3155
17176SOL    HW253461   8.631   4.341   7.606  0.7817  0.7896 -1.0942
17177SOL     OW53462   8.607   1.298   0.188 -0.5229 -0.1129 -0.4320
17177SOL    HW153463   8.623   1.339   0.103 -0.4622 -0.3028 -0.5137
17177SOL    HW253464   8.663   1.221   0.188  1.9516  1.5499  1.0490
17178SOL     OW53465   2.407   8.692   6.918 -0.1665 -0.2457 -0.0022
17178SOL    HW153466   2.437   8.621   6.862 -0.3024  1.3782 -2.2535
17178SOL    HW253467   2.468   8.764   6.900 -2.3836  1.5182 -0.9189
17179SOL     OW53468   6.353   8.322   3.576  0.2520  0.5572 -0.0013
17179SOL    HW153469   6.333   8.287   3.663 -1.3908  1.6784  0.1145
17179SOL    HW253470   6.287   8.389   3.562  0.1433  0.0246 -2.3703
17180SOL     OW53471   1.164   4.426   2.534  0.4805 -0.1786  0.0407
17180SOL    HW153472   1.245   4.439   2.485  0.1535  1.8156 -0.0484
17180SOL    HW253473   1.117   4.509   2.526 -0.6261 -0.5697  1.8267
17181SOL     OW53474   4.184   6.835   0.932  0.2608  0.1228 -0.0039
17181SOL    HW153475   4.128   6.888   0.990  1.2859 -2.1659  3.3667
17181SOL    HW253476   4.129   6.761   0.907  0.8421 -0.6376  0.9188
17182SOL     OW53477   5.797   1.902   1.259  0.2268  0.2007  0.1277
17182SOL    HW153478   5.779   1.996   1.265 -1.0684 -0.0633  0.4716
17182SOL    HW253479   5.798   1.872   1.349 -2.7864 -0.7184 -0.0434
17183SOL     OW53480   7.751   3.267   4.579 -0.8477  0.7329 -0.1127
17183SOL    HW153481   7.773   3.320   4.655 -0.6892 -0.7465  0.8965
17183SOL    HW253482   7.677   3.313   4.539 -2.0763  0.6364  1.9317
17184SOL     OW53483   8.002   4.257   0.373  0.2366  0.2244  0.2062
17184SOL    HW153484   7.941   4.213   0.431  0.4379  0.6578  0.7535
17184SOL    HW253485   8.035   4.332   0.424  0.9807  0.1793 -0.1892
17185SOL     OW53486   0.070   2.951   1.880 -0.9605  0.0499 -0.0578
17185SOL    HW153487   0.004   2.972   1.814 -0.7896 -1.0448 -0.6169
17185SOL    HW253488   0.147   2.927   1.829 -0.0261  1.5716  0.5915
17186SOL     OW53489   0.756   1.075   6.173 -0.6211 -0.0145 -0.3540
17186SOL    HW153490   0.728   0.989   6.142  2.5312 -0.9816 -0.9491
17186SOL    HW253491   0.843   1.087   6.133  0.9357  1.4863  3.0555
17187SOL     OW53492   0.004   6.035   1.493  0.4936 -0.0206 -0.2003
17187SOL    HW153493   0.043   6.028   1.406 -0.8220 -0.1773 -0.8071
17187SOL    HW253494  -0.041   5.951   1.505  0.6893 -0.0087  0.6412
17188SOL     OW53495   1.551   5.800   0.769  0.1673 -0.6625  0.2812
17188SOL    HW153496   1.566   5.720   0.820 -1.2288 -1.5235 -0.6124
17188SOL    HW253497   1.614   5.796   0.698 -0.3323 -1.3018 -0.1282
17189SOL     OW53498   6.763   8.398   8.387  0.5095 -0.6706  0.5509
17189SOL    HW153499   6.814   8.436   8.459 -0.9026 -0.3482  1.4138
17189SOL    HW253500   6.771   8.462   8.316 -0.5186  0.4997  1.4475
17190SOL     OW53501   0.198   8.810   2.938 -0.0326  0.2188  0.3978
17190SOL    HW153502   0.252   8.833   2.862  0.4038  0.6272  0.8271
17190SOL    HW253503   0.108   8.822   2.908  0.1711  1.9624  0.4369
17191SOL     OW53504   6.857   6.431   1.959 -0.1375 -0.4142  0.0865
17191SOL    HW153505   6.894   6.511   1.920 -2.2103  0.9696  0.7855
17191SOL    HW253506   6.821   6.383   1.884  1.1281 -0.7516 -0.3387
17192SOL     OW53507   6.853   2.433   7.574 -0.7252 -0.6035  0.1712
17192SOL    HW153508   6.805   2.401   7.651 -0.9914 -1.1904 -0.2299
17192SOL    HW253509   6.854   2.359   7.514  0.3519 -0.4657  0.0071
17193SOL     OW53510   1.976   2.889   1.182  0.3840  0.3373 -0.0407
17193SOL    HW153511   1.918   2.832   1.131  0.3425  1.4092 -1.2736
17193SOL    HW253512   1.918   2.934   1.243 -0.6417  3.0359 -2.7074
17194SOL     OW53513   4.877   5.304   4.320  0.2770  0.1322  0.0146
17194SOL    HW153514   4.906   5.394   4.302  2.0591  0.2071  2.7209
17194SOL    HW253515   4.782   5.311   4.330  0.4249  1.8102  0.5484
17195SOL     OW53516   6.616   7.768   4.530  0.5805  0.1262  0.0369
17195SOL    HW153517   6.598   7.852   4.487 -0.0200 -0.0628 -0.0810
17195SOL    HW253518   6.678   7.724   4.472  2.0500  1.0825  0.8023
17196SOL     OW53519   0.029   6.339   0.930 -0.1459 -0.1417  0.4388
17196SOL    HW153520  -0.033   6.406   0.900 -0.7738 -0.1002  1.7514
17196SOL    HW253521  -0.024   6.260   0.939  0.5136 -0.7418 -0.7126
17197SOL     OW53522   0.557   7.802   2.565  1.0183  0.4437 -0.6508
17197SOL    HW153523   0.512   7.775   2.485  0.2475 -0.7291  0.1499
17197SOL    HW253524   0.521   7.888   2.585 -0.2003 -0.0706 -0.5522
17198SOL     OW53525   0.916   4.328   1.030  0.2457 -0.7620 -0.7285
17198SOL    HW153526   0.838   4.351   0.980 -0.0168 -1.6373 -0.7404
17198SOL    HW253527   0.882   4.294   1.113  0.6720  0.6055  0.0421
17199SOL     OW53528   1.466   5.134   6.547  0.3010  0.0806 -0.2852
17199SOL    HW153529   1.472   5.202   6.479 -0.0621 -1.5321 -2.0206
17199SOL    HW253530   1.553   5.131   6.585  0.9081  0.1445 -1.6082
17200SOL     OW53531   8.000   3.581   2.015 -1.3005 -0.1623 -0.4814
17200SOL    HW153532   8.008   3.613   1.925 -1.9653  0.9896 -0.1454
17200SOL    HW253533   7.923   3.624   2.050 -0.5130  0.1585  0.9576
17201SOL     OW53534   7.052   1.206   3.104  0.1516 -0.1264 -0.1420
17201SOL    HW153535   7.132   1.154   3.104 -1.3594 -2.6256 -0.0721
17201SOL    HW253536   7.018   1.200   3.015 -0.5588 -0.1177  0.1181
17202SOL     OW53537   5.208   0.191   0.986 -0.2640  0.1060 -0.6408
17202SOL    HW153538   5.240   0.181   0.897 -0.4205  0.4550 -0.7368
17202SOL    HW253539   5.229   0.282   1.009 -0.4420  0.0894 -0.4095
17203SOL     OW53540   8.431   1.419   1.066  0.1898 -0.0220 -0.6872
17203SOL    HW153541   8.343   1.409   1.030 -1.0395  0.4275  1.9118
17203SOL    HW253542   8.455   1.510   1.045 -0.7602  0.4313  0.1018
17204SOL     OW53543   4.887   2.074   8.102 -0.2451 -0.1481 -0.2804
17204SOL    HW153544   4.863   2.037   8.018  0.4869 -0.6848 -0.2613
17204SOL    HW253545   4.971   2.033   8.124 -0.6231 -0.3356  0.9019
17205SOL     OW53546   4.808   5.916   0.363 -0.0486  0.3818 -0.2667
17205SOL    HW153547   4.883   5.963   0.399 -1.0381 -0.0432  2.5706
17205SOL    HW253548   4.843   5.869   0.288  1.8882  2.2923 -0.6591
17206SOL     OW53549   4.048   5.467   0.005  0.1868  0.2882 -0.0914
17206SOL    HW153550   4.011   5.542   0.051 -1.4253 -0.4945 -0.0619
17206SOL    HW253551   3.974   5.410  -0.013  1.4547 -1.6772  0.5604
17207SOL     OW53552   8.454   6.116   0.481 -0.0021  0.0175  0.3311
17207SOL    HW153553   8.547   6.138   0.491  0.0999  0.4579 -1.3064
17207SOL    HW253554   8.409   6.175   0.542  0.8040 -0.6123  1.5811
17208SOL     OW53555   5.437   6.022   4.907 -0.0917 -0.1507 -0.5193
17208SOL    HW153556   5.438   6.106   4.953 -0.0548  0.0970 -0.9681
17208SOL    HW253557   5.507   6.029   4.842 -0.4060 -0.3471 -0.8815
17209SOL     OW53558   5.404   1.343   6.394 -0.0075 -0.3236  0.2963
17209SOL    HW153559   5.449   1.261   6.374  0.7963 -0.3347  2.0022
17209SOL    HW253560   5.331   1.346   6.332 -0.7571 -2.9019  0.9654
17210SOL     OW53561   3.616   7.657   4.899 -0.3922 -0.0302  0.8389
17210SOL    HW153562   3.531   7.660   4.855 -0.1718 -0.8392  0.3388
17210SOL    HW253563   3.631   7.747   4.928 -2.0119 -0.1058  2.0851
17211SOL     OW53564   4.034   7.290   8.100 -0.4456  0.9126  0.0258
17211SOL    HW153565   4.059   7.198   8.089 -0.0509  0.9623  0.4429
17211SOL    HW253566   4.099   7.324   8.163 -0.4526  1.5295 -0.2994
17212SOL     OW53567   0.552   0.181   8.071 -0.2074  0.4544  0.0785
17212SOL    HW153568   0.609   0.108   8.096 -0.7553 -0.6396 -1.6883
17212SOL    HW253569   0.604   0.259   8.088  1.4998 -0.4828 -0.6176
17213SOL     OW53570   0.881   8.558   3.208 -0.3387 -0.5536  0.6326
17213SOL    HW153571   0.844   8.638   3.246  1.0533 -0.1225  1.1291
17213SOL    HW253572   0.949   8.531   3.270  1.7710 -0.0326 -1.3253
17214SOL     OW53573   3.934   6.427   6.322  0.1323 -0.2974 -0.6930
17214SOL    HW153574   3.904   6.491   6.387 -0.0681 -1.1780  0.1002
17214SOL    HW253575   4.023   6.455   6.299  0.2951 -0.1076  0.1440
17215SOL     OW53576   3.613   0.069   7.551  0.6479  0.0903  0.4586
17215SOL    HW153577   3.618  -0.024   7.529 -0.9639  0.0504  0.1581
17215SOL    HW253578   3.690   0.107   7.510  2.4699 -1.4003  2.2763
17216SOL     OW53579   0.773   0.422   5.842  0.3997  0.4912  0.2592
17216SOL    HW153580   0.791   0.441   5.750  1.3900  1.0073  0.5309
17216SOL    HW253581   0.795   0.504   5.887  2.2029 -0.4503  1.2002
17217SOL     OW53582   1.590   2.788   5.456 -0.8071 -0.1151 -0.6436
17217SOL    HW153583   1.639   2.751   5.529 -0.5172 -1.0357 -1.2927
17217SOL    HW253584   1.620   2.878   5.450 -1.3814  0.2161  0.8411
17218SOL     OW53585   4.697   6.795   1.043  0.5164 -0.2272  0.3875
17218SOL    HW153586   4.699   6.878   0.995  2.1636  0.0656  0.9190
17218SOL    HW253587   4.789   6.774   1.059  0.1223 -2.1070  0.3692
17219SOL     OW53588   3.760   2.157   4.299  0.3554 -0.1267  0.4881
17219SOL    HW153589   3.752   2.074   4.346 -0.5297  0.1186  0.7905
17219SOL    HW253590   3.674   2.171   4.261 -0.0393  1.4819  1.8563
17220SOL     OW53591   1.758   3.969   3.739  0.2784  0.1398 -0.1502
17220SOL    HW153592   1.711   3.932   3.814  1.5446 -1.2914  0.0087
17220SOL    HW253593   1.712   3.936   3.663 -0.0160  0.2017 -0.0004
17221SOL     OW53594   4.126   0.596   4.426  0.7692  0.5393 -0.6974
17221SOL    HW153595   4.060   0.535   4.392 -1.0546  2.1487 -0.2508
17221SOL    HW253596   4.137   0.661   4.356  1.2727  0.7298 -0.4484
17222SOL     OW53597   2.034   6.067   2.040  0.1383 -0.2454 -0.7144
17222SOL    HW153598   1.945   6.066   2.077  0.0524 -1.6007 -0.9113
17222SOL    HW253599   2.051   6.159   2.022 -0.3408  0.3401  1.4530
17223SOL     OW53600   4.632   5.652   7.388  0.6733 -0.2655 -0.1481
17223SOL    HW153601   4.603   5.735   7.425  0.8961 -0.1696 -0.1867
17223SOL    HW253602   4.564   5.590   7.414 -0.1690  0.1800 -1.2396
17224SOL     OW53603   1.290   7.067   8.233 -0.0840  0.6901  0.4683
17224SOL    HW153604   1.196   7.081   8.249 -0.1870 -1.8420  2.6741
17224SOL    HW253605   1.331   7.079   8.318  0.9298 -2.3403  0.5441
17225SOL     OW53606   3.522   5.556   7.801 -0.0728 -0.0160  0.0172
17225SOL    HW153607   3.564   5.568   7.716 -0.7626 -0.5831 -0.4192
17225SOL    HW253608   3.594   5.536   7.861  0.2830 -1.1237 -0.7412
17226SOL     OW53609   2.186   6.152   2.580  0.0407 -0.1631  0.6572
17226SOL    HW153610   2.204   6.239   2.544  1.9841  0.1391  2.1537
17226SOL    HW253611   2.094   6.135   2.558  0.2841  1.1922 -1.7664
17227SOL     OW53612   3.559   0.991   6.283 -0.5620  0.1905  0.3060
17227SOL    HW153613   3.464   0.984   6.292 -0.7806 -0.5304 -1.8457
17227SOL    HW253614   3.577   0.952   6.197  1.4629  2.0931 -0.2117
17228SOL     OW53615   8.423   2.924   2.576 -0.4992  0.4016  0.1293
17228SOL    HW153616   8.432   2.879   2.659 -1.1665  0.7957  0.4284
17228SOL    HW253617   8.345   2.884   2.535 -1.7872  1.9983  0.9028
17229SOL     OW53618   2.660   0.156   2.101  0.0923  0.6844  0.0505
17229SOL    HW153619   2.582   0.206   2.075 -0.7728 -0.4916  0.3002
17229SOL    HW253620   2.655   0.075   2.049  1.0572  0.5087  0.2136
17230SOL     OW53621   0.354   2.381   8.832 -0.1426  0.0028 -0.6955
17230SOL    HW153622   0.408   2.460   8.834  0.0366 -0.1277 -0.0902
17230SOL    HW253623   0.314   2.377   8.919  0.3969 -0.9474 -0.4784
17231SOL     OW53624   3.093   2.199   5.190 -0.1990  0.1382  0.0779
17231SOL    HW153625   3.074   2.146   5.112  0.4993 -0.2404  0.1614
17231SOL    HW253626   3.182   2.231   5.176 -1.0521  2.4100 -0.6069
17232SOL     OW53627   8.324   2.899   5.764 -0.3279  0.7249 -0.6253
17232SOL    HW153628   8.253   2.937   5.712 -1.0408  1.2176  0.6649
17232SOL    HW253629   8.338   2.962   5.834 -0.0478 -0.3777  0.3309
17233SOL     OW53630   6.125   0.959   3.430 -0.0697  0.4483  0.0710
17233SOL    HW153631   6.213   0.962   3.394  0.2838 -0.9634  0.7647
17233SOL    HW253632   6.133   0.997   3.518 -0.1850  0.4352  0.0880
17234SOL     OW53633   6.823   5.675   1.782  0.0387  0.0902 -0.0977
17234SOL    HW153634   6.791   5.743   1.722 -0.1540  1.1693  1.1808
17234SOL    HW253635   6.757   5.606   1.778 -1.1430  1.1432  0.5330
17235SOL     OW53636   3.535   5.018   6.918 -0.0355 -0.3511  0.0924
17235SOL    HW153637   3.449   5.054   6.895  0.0734 -0.2618 -0.1714
17235SOL    HW253638   3.586   5.024   6.838  0.9298  1.6550  0.8140
17236SOL     OW53639   8.820   0.405   6.865  0.0285 -0.0091  0.0478
17236SOL    HW153640   8.745   0.464   6.877  0.3275  0.2994  0.4073
17236SOL    HW253641   8.820   0.349   6.942 -0.1818 -0.4111 -0.2354
17237SOL     OW53642   7.308   8.730   2.976  0.2900  0.2186  0.1031
17237SOL    HW153643   7.344   8.669   2.912  0.9992 -0.2436  0.9234
17237SOL    HW253644   7.375   8.798   2.984  0.1861  0.2944  0.3211
17238SOL     OW53645   1.330   7.433   0.082  0.1717  0.3892 -0.6387
17238SOL    HW153646   1.258   7.410   0.141  1.8151 -2.6910  0.4283
17238SOL    HW253647   1.394   7.477   0.139  1.2333 -1.4872 -0.2922
17239SOL     OW53648   0.289   3.904   1.719 -0.9289 -0.2450 -0.1874
17239SOL    HW153649   0.363   3.898   1.658 -0.5877 -1.2730  0.2876
17239SOL    HW253650   0.238   3.825   1.702 -1.5055  0.0852  0.0042
17240SOL     OW53651   5.670   4.071   5.463  0.2358 -0.0943  0.1599
17240SOL    HW153652   5.724   3.999   5.497  1.4579  0.9537  0.5043
17240SOL    HW253653   5.722   4.150   5.478 -1.3191  0.9513  0.3333
17241SOL     OW53654   1.153   0.181   7.089 -0.3154 -0.3782 -0.2019
17241SOL    HW153655   1.170   0.213   7.000  0.6881 -0.5341 -0.0770
17241SOL    HW253656   1.174   0.088   7.086  2.6470  0.1346  0.8729
17242SOL     OW53657   0.591   0.728   1.247 -0.1146  0.3845 -0.2732
17242SOL    HW153658   0.593   0.637   1.274  1.0664  0.0442 -1.3875
17242SOL    HW253659   0.647   0.731   1.169  0.9471  2.2839  0.4854
17243SOL     OW53660   3.751   7.438   1.684 -0.2750 -0.5619 -0.8568
17243SOL    HW153661   3.679   7.424   1.622 -1.4199  0.3141  0.2249
17243SOL    HW253662   3.709   7.474   1.762  1.1293 -1.6157  0.4429
17244SOL     OW53663   7.374   6.702   8.364  0.0445  0.2538 -0.3382
17244SOL    HW153664   7.452   6.753   8.343 -0.0021  0.1767 -0.7090
17244SOL    HW253665   7.320   6.709   8.285  0.6443 -1.5471 -0.9486
17245SOL     OW53666   5.568   0.714   7.071  0.4260  0.4045  0.0198
17245SOL    HW153667   5.605   0.770   7.003  2.1218  0.6080  1.0433
17245SOL    HW253668   5.644   0.685   7.122 -0.8076  0.7928  2.2077
17246SOL     OW53669   8.104   7.003   0.686  0.2172 -0.2082  0.5760
17246SOL    HW153670   8.154   7.052   0.621 -0.4281 -1.2032 -0.7063
17246SOL    HW253671   8.154   7.014   0.767  0.0480  2.6533  0.4139
17247SOL     OW53672   4.553   1.012   0.614 -0.1239 -0.0266  0.0289
17247SOL    HW153673   4.610   1.075   0.568 -1.2363  0.2484 -1.0454
17247SOL    HW253674   4.597   0.928   0.602  0.6649  0.3430  0.2514
17248SOL     OW53675   5.117   3.452   7.108  0.2764 -0.0814  0.4371
17248SOL    HW153676   5.103   3.538   7.067 -0.1022 -0.1944  0.3246
17248SOL    HW253677   5.181   3.469   7.177 -0.5828  0.5106  1.1114
17249SOL     OW53678   4.619   4.718   3.944  0.5192 -0.5202 -0.3716
17249SOL    HW153679   4.657   4.754   4.024  2.0299 -1.5330 -0.5829
17249SOL    HW253680   4.528   4.699   3.966  0.0915  1.8603  0.2168
17250SOL     OW53681   6.041   1.752   6.348 -0.3664  0.1286 -0.2365
17250SOL    HW153682   6.011   1.688   6.412  0.1089 -1.8557 -1.8889
17250SOL    HW253683   5.965   1.766   6.291  0.3159 -1.2253 -1.5626
17251SOL     OW53684   2.700   2.781   1.189  0.0833  0.2273  0.2120
17251SOL    HW153685   2.709   2.714   1.122  1.8664  1.1642 -0.5533
17251SOL    HW253686   2.726   2.738   1.271  1.3268 -0.0272 -0.2902
17252SOL     OW53687   5.721   6.686   3.696 -0.3125  0.2395 -0.2686
17252SOL    HW153688   5.727   6.598   3.657  0.0946 -0.0806  0.4971
17252SOL    HW253689   5.672   6.737   3.632  1.7356  0.1730 -2.0322
17253SOL     OW53690   4.013   2.239   5.896  0.8438  0.1291  0.5824
17253SOL    HW153691   3.931   2.283   5.919 -1.0706 -3.0204  0.3182
17253SOL    HW253692   4.080   2.288   5.944 -1.0736  3.0592  0.5467
17254SOL     OW53693   2.655   7.332   1.184 -0.3985  0.0524  0.1012
17254SOL    HW153694   2.607   7.403   1.228  0.7375 -0.0448  1.5884
17254SOL    HW253695   2.746   7.344   1.213  0.1062 -1.0004 -0.9864
17255SOL     OW53696   4.948   5.398   2.855 -0.3302  0.0310 -0.2194
17255SOL    HW153697   4.971   5.322   2.908 -0.9490  0.2662  0.3947
17255SOL    HW253698   4.852   5.402   2.858 -0.2995  0.9164 -0.1223
17256SOL     OW53699   5.210   8.173   3.112  0.7059  0.3142 -0.1347
17256SOL    HW153700   5.227   8.103   3.049  1.1615 -0.8504  1.2425
17256SOL    HW253701   5.281   8.166   3.175 -0.2657  0.8271  1.0468
17257SOL     OW53702   1.384   8.414   4.826  0.8198  0.0692  0.0568
17257SOL    HW153703   1.450   8.361   4.780 -0.5736 -0.2994 -1.6409
17257SOL    HW253704   1.301   8.389   4.785 -0.3566  0.7096  1.9562
17258SOL     OW53705   4.422   5.163   6.162  0.1606 -0.5300 -0.1946
17258SOL    HW153706   4.455   5.148   6.250  0.8026 -2.0420 -0.6698
17258SOL    HW253707   4.500   5.165   6.106 -0.3635 -2.5093 -1.0979
17259SOL     OW53708   1.036   4.503   7.353 -0.3545 -0.4838 -0.1995
17259SOL    HW153709   1.045   4.456   7.270  1.3476 -0.8513  0.1570
17259SOL    HW253710   1.118   4.552   7.362 -0.4452 -0.5647  1.3277
17260SOL     OW53711   7.278   5.932   4.556 -0.0634  0.1540 -0.2650
17260SOL    HW153712   7.238   5.962   4.638 -0.2886 -1.5056  0.2760
17260SOL    HW253713   7.280   5.836   4.564 -0.9824 -0.1289 -2.6141
17261SOL     OW53714   5.389   5.585   8.857  0.1318 -0.0061 -0.5017
17261SOL    HW153715   5.320   5.648   8.876 -1.4397 -1.6011 -0.6267
17261SOL    HW253716   5.400   5.588   8.762  2.3968  2.3302 -0.2694
17262SOL     OW53717   2.139   2.311   2.060 -0.1838 -0.6343  0.0263
17262SOL    HW153718   2.145   2.220   2.088 -1.6365 -0.8395 -0.2893
17262SOL    HW253719   2.064   2.314   2.001 -1.4798  1.1665  1.6265
17263SOL     OW53720   4.565   8.320   5.033 -0.0082  0.6537 -0.1064
17263SOL    HW153721   4.517   8.367   5.101 -0.9918  1.3089 -1.2110
17263SOL    HW253722   4.613   8.252   5.080 -0.7826  0.9823  1.2134
17264SOL     OW53723   3.613   3.377   3.113 -0.4101  0.4465 -0.3298
17264SOL    HW153724   3.623   3.472   3.101  0.8973  0.3409 -0.1509
17264SOL    HW253725   3.541   3.369   3.175  0.3091  1.3828  0.6624
17265SOL     OW53726   3.511   3.213   0.500  0.6595 -0.3846  0.6829
17265SOL    HW153727   3.450   3.140   0.512 -0.5667 -0.2774 -3.3654
17265SOL    HW253728   3.455   3.291   0.494  1.0612 -0.2045 -2.4701
17266SOL     OW53729   7.472   0.707   0.301 -0.5850  0.0095 -0.3592
17266SOL    HW153730   7.551   0.761   0.302  0.2099 -1.1425  0.0038
17266SOL    HW253731   7.430   0.729   0.217  0.5971 -0.0427 -0.9895
17267SOL     OW53732   1.888   8.346   1.468  0.6092  0.5356  0.8382
17267SOL    HW153733   1.843   8.429   1.487  0.7216  0.3554  1.9221
17267SOL    HW253734   1.823   8.279   1.489  0.5482  0.3280  0.0408
17268SOL     OW53735   1.669   7.910   3.873  0.6887  0.5966  0.4182
17268SOL    HW153736   1.635   7.991   3.835  1.2982  1.3016  1.3246
17268SOL    HW253737   1.721   7.871   3.803 -1.6880 -0.3859 -0.9221
17269SOL     OW53738   0.150   8.174   2.799  0.0028 -0.0283 -0.4860
17269SOL    HW153739   0.162   8.180   2.704  1.7399 -2.8110 -0.5662
17269SOL    HW253740   0.235   8.200   2.835 -0.4877  0.5185  0.2966
17270SOL     OW53741   4.461   8.106   5.612  0.5568 -0.5624  0.3947
17270SOL    HW153742   4.432   8.189   5.576  0.3914 -1.0258 -0.5634
17270SOL    HW253743   4.426   8.040   5.553 -0.2737 -1.3933  1.7620
17271SOL     OW53744   1.625   0.152   6.254  0.0544 -0.1075 -0.2228
17271SOL    HW153745   1.625   0.075   6.198  1.6138  1.0442 -1.9085
17271SOL    HW253746   1.706   0.144   6.305  0.0697  0.2590 -0.1856
17272SOL     OW53747   1.787   5.448   7.816  0.5305 -0.2408 -0.2759
17272SOL    HW153748   1.770   5.354   7.830 -0.7697  0.0308  0.0385
17272SOL    HW253749   1.817   5.479   7.901 -2.5505  0.3504  0.7250
17273SOL     OW53750   8.838   4.965   2.840  0.2596 -0.0900  0.1456
17273SOL    HW153751   8.866   4.962   2.931 -0.4336 -1.2113  0.3488
17273SOL    HW253752   8.905   5.017   2.796  2.2724 -1.9955  0.7469
17274SOL     OW53753   2.211   8.634   8.551 -0.0227 -0.3881 -0.2453
17274SOL    HW153754   2.283   8.570   8.553  0.3627 -0.0181 -1.5584
17274SOL    HW253755   2.169   8.620   8.467  0.1770  1.1922 -0.6381
17275SOL     OW53756   2.614   0.156   4.201 -0.3722  0.0825 -0.0265
17275SOL    HW153757   2.685   0.203   4.158 -1.1736  0.2836 -1.1796
17275SOL    HW253758   2.658   0.085   4.248  0.4829 -1.3099 -2.6712
17276SOL     OW53759   2.252   3.379   6.985 -0.3557 -0.2696 -0.3161
17276SOL    HW153760   2.190   3.336   7.045 -0.6496  0.4528 -0.0934
17276SOL    HW253761   2.202   3.452   6.949  0.1285 -0.1461 -0.7312
17277SOL     OW53762   6.546   7.410   2.041  0.4592 -0.0226 -0.1631
17277SOL    HW153763   6.452   7.400   2.061  0.0971 -0.4531 -1.9529
17277SOL    HW253764   6.549   7.484   1.980  1.4024  0.5486  0.5581
17278SOL     OW53765   2.976   1.271   4.027 -0.2440  0.4489  0.2523
17278SOL    HW153766   3.041   1.246   4.092  0.2724 -2.5577 -1.2143
17278SOL    HW253767   3.027   1.307   3.954 -0.5293  0.9301  0.2830
17279SOL     OW53768   1.625   7.816   6.957  0.1510  0.2106  0.3362
17279SOL    HW153769   1.559   7.839   6.892 -0.9498  0.3107  1.4463
17279SOL    HW253770   1.707   7.813   6.908 -0.5879  0.6137 -0.9773
17280SOL     OW53771   0.284   6.385   2.991  0.1852  0.2038  0.2763
17280SOL    HW153772   0.306   6.478   2.983  1.4750 -0.2178 -2.1498
17280SOL    HW253773   0.314   6.361   3.079 -1.1693  2.2663  1.3812
17281SOL     OW53774   0.933   0.718   3.503 -0.2399 -0.1110 -0.2781
17281SOL    HW153775   0.911   0.625   3.509  2.4595 -0.8277 -0.2302
17281SOL    HW253776   0.920   0.752   3.591  0.1402 -0.8149  0.0580
17282SOL     OW53777   0.676   4.226   5.589 -0.0136  0.4657  0.1117
17282SOL    HW153778   0.592   4.218   5.635 -1.5581  1.4536 -2.2858
17282SOL    HW253779   0.693   4.138   5.555 -0.6778  0.4803 -0.2861
17283SOL     OW53780   3.197   2.199   3.273  0.0078 -0.6867 -0.1234
17283SOL    HW153781   3.282   2.239   3.251 -0.0981  0.4142  1.3375
17283SOL    HW253782   3.145   2.271   3.309 -1.3885 -1.4543 -0.5269
17284SOL     OW53783   6.314   1.665   0.722  0.8562 -0.3988  0.8844
17284SOL    HW153784   6.345   1.644   0.810  1.1277 -2.2257  0.3976
17284SOL    HW253785   6.318   1.582   0.675  1.1965  0.6481 -1.0161
17285SOL     OW53786   8.726   4.946   3.901  0.9291 -0.1248 -0.1034
17285SOL    HW153787   8.661   4.958   3.970  0.9108  0.7302 -0.2602
17285SOL    HW253788   8.692   4.996   3.827  1.4381 -0.2190 -0.4033
17286SOL     OW53789   6.342   0.692   7.154 -0.2849  0.0430  0.2331
17286SOL    HW153790   6.307   0.743   7.081  2.0712  1.8083  0.2287
17286SOL    HW253791   6.437   0.701   7.147  0.1785 -2.9142  1.3281
17287SOL     OW53792   5.481   1.859   8.004  0.0143  0.4042 -0.3692
17287SOL    HW153793   5.527   1.937   7.973  0.2373 -0.5669 -2.6310
17287SOL    HW253794   5.545   1.789   7.998 -0.5142 -0.1806  0.5738
17288SOL     OW53795   7.417   3.558   1.179  0.2812 -0.4836 -0.1149
17288SOL    HW153796   7.460   3.609   1.110 -0.3063 -1.0849 -0.9415
17288SOL    HW253797   7.423   3.614   1.256 -1.4882  1.4694 -1.2727
17289SOL     OW53798   0.900   7.288   2.140  0.4133 -0.0958  0.3614
17289SOL    HW153799   0.826   7.287   2.201 -0.6948  0.0644 -0.9250
17289SOL    HW253800   0.895   7.373   2.097 -0.3833 -1.1184 -1.7134
17290SOL     OW53801   0.674   7.045   5.049 -0.3138 -0.2813 -0.1003
17290SOL    HW153802   0.683   6.953   5.024 -1.4647 -0.2671 -0.6733
17290SOL    HW253803   0.608   7.045   5.118  0.9661 -0.0394  1.1712
17291SOL     OW53804   7.148   7.083   7.469  0.1728 -0.3622 -0.1743
17291SOL    HW153805   7.170   7.175   7.478  0.5186 -0.4696  0.0941
17291SOL    HW253806   7.066   7.083   7.419  1.1048  0.0180 -1.8040
17292SOL     OW53807   3.558   8.767   7.775 -0.4970 -0.4968  0.1179
17292SOL    HW153808   3.500   8.843   7.763  0.8160  0.5503  0.2058
17292SOL    HW253809   3.566   8.729   7.688  0.9400  1.0850 -0.4989
17293SOL     OW53810   7.395   4.079   0.285  0.2931  0.2332 -0.0702
17293SOL    HW153811   7.466   4.141   0.296  2.3798 -1.8644 -0.8506
17293SOL    HW253812   7.405   4.018   0.358 -1.2957  0.3923  0.3103
17294SOL     OW53813   7.255   0.564   0.769 -0.4303  0.2287 -0.3347
17294SOL    HW153814   7.329   0.620   0.746 -1.1705  0.6978 -1.6586
17294SOL    HW253815   7.277   0.478   0.732  0.4554 -0.2667  1.2307
17295SOL     OW53816   6.184   0.988   1.776  0.1066  0.2246  0.1951
17295SOL    HW153817   6.246   1.041   1.826 -0.9355 -0.0215  1.8322
17295SOL    HW253818   6.138   0.936   1.842 -2.0309  0.5741 -0.9085
17296SOL     OW53819   4.644   7.109   6.358  0.1135 -0.5714 -0.0405
17296SOL    HW153820   4.568   7.108   6.416 -0.0179 -0.7228 -0.2126
17296SOL    HW253821   4.646   7.022   6.320  0.0246 -0.3817 -0.4857
17297SOL     OW53822   4.752   7.161   5.753  0.4972 -0.2976 -0.4467
17297SOL    HW153823   4.842   7.127   5.754  0.6853  0.1446  1.0933
17297SOL    HW253824   4.762   7.256   5.746  0.2966 -0.0469  1.7880
17298SOL     OW53825   6.727   1.612   8.175  0.0296  0.0612 -1.0338
17298SOL    HW153826   6.657   1.660   8.219  0.1494 -0.4803 -0.2157
17298SOL    HW253827   6.700   1.608   8.084  0.0482  1.7216 -1.1407
17299SOL     OW53828   8.510   2.197   6.888 -0.6148 -0.2408  0.4669
17299SOL    HW153829   8.563   2.227   6.962 -0.7987 -1.3313  1.0695
17299SOL    HW253830   8.421   2.190   6.924 -0.8981  0.1875 -0.1412
17300SOL     OW53831   4.814   6.201   7.646  0.7825 -0.4381  0.4708
17300SOL    HW153832   4.902   6.229   7.671  0.9428 -2.1051  1.9968
17300SOL    HW253833   4.777   6.163   7.726 -0.4298 -1.9158 -0.7175
17301SOL     OW53834   5.554   6.768   0.428 -0.0340 -0.1962  0.0525
17301SOL    HW153835   5.585   6.856   0.409  0.5902 -0.4533 -0.1682
17301SOL    HW253836   5.597   6.713   0.362 -2.7908 -0.3149 -1.8161
17302SOL     OW53837   1.526   7.679   0.678  0.1814 -0.1380 -0.3706
17302SOL    HW153838   1.512   7.765   0.637  1.8123 -0.2632 -1.2829
17302SOL    HW253839   1.543   7.700   0.770 -2.2619  0.2489  0.0572
17303SOL     OW53840   2.449   0.748   6.330  0.0830  0.0136 -0.1720
17303SOL    HW153841   2.436   0.812   6.400 -0.3176 -1.8955  1.6055
17303SOL    HW253842   2.378   0.684   6.343 -0.6989  0.1567 -3.0444
17304SOL     OW53843   5.757   3.312   7.037 -0.0268  0.6065 -0.5804
17304SOL    HW153844   5.688   3.343   7.095  0.9622 -2.0640  2.2775
17304SOL    HW253845   5.711   3.258   6.972 -0.7596 -0.8385  1.0642
17305SOL     OW53846   2.012   2.181   4.601 -0.2735  0.2951  0.4816
17305SOL    HW153847   1.989   2.221   4.685 -1.9829  3.6968 -1.4207
17305SOL    HW253848   2.077   2.241   4.563 -0.1947 -0.6971 -1.0286
17306SOL     OW53849   7.567   6.582   4.605 -0.0734  0.6822  0.7721
17306SOL    HW153850   7.532   6.660   4.648  0.7183  1.8545 -0.6272
17306SOL    HW253851   7.554   6.598   4.512 -1.7562 -1.7903  0.4838
17307SOL     OW53852   2.627   3.875   3.005 -0.4313 -0.7337  0.1275
17307SOL    HW153853   2.702   3.923   3.042 -0.2120 -2.3553  1.9680
17307SOL    HW253854   2.591   3.826   3.079 -3.8346  0.5217 -0.5056
17308SOL     OW53855   2.253   4.206   8.850  0.6565 -0.0513  0.0452
17308SOL    HW153856   2.313   4.265   8.805  1.6508 -1.0672  0.0070
17308SOL    HW253857   2.310   4.151   8.904 -0.3545 -0.1701  1.0199
17309SOL     OW53858   1.151   2.144   1.555 -0.1766  0.2153 -0.7212
17309SOL    HW153859   1.187   2.066   1.597  2.4881  2.9247  2.6177
17309SOL    HW253860   1.079   2.171   1.611 -1.1714  0.1854 -1.9289
17310SOL     OW53861   5.687   0.403   5.563  0.2335 -0.2122  0.0589
17310SOL    HW153862   5.725   0.394   5.650  0.5142  0.3832  0.0096
17310SOL    HW253863   5.645   0.319   5.545  0.2820 -0.3799  0.7141
17311SOL     OW53864   5.759   6.578   4.522 -0.0754  0.2698  0.2971
17311SOL    HW153865   5.795   6.659   4.559  0.4341 -0.3195  1.1053
17311SOL    HW253866   5.716   6.607   4.441  0.7110  1.2511  0.1968
17312SOL     OW53867   3.866   4.716   0.577  0.2784 -0.9714  0.0159
17312SOL    HW153868   3.832   4.740   0.491  2.4188  1.3496 -0.2807
17312SOL    HW253869   3.961   4.723   0.569  0.5243  0.7677  2.9015
17313SOL     OW53870   5.729   6.114   7.059  0.2522 -0.1399  0.3956
17313SOL    HW153871   5.750   6.021   7.064 -0.9554 -0.3652  2.5350
17313SOL    HW253872   5.654   6.125   7.118  1.1267  2.3744  1.1937
17314SOL     OW53873   6.472   1.628   6.113  0.1744  0.5594 -0.0634
17314SOL    HW153874   6.406   1.665   6.053 -0.7938 -0.4173  0.3631
17314SOL    HW253875   6.551   1.623   6.060 -0.3302  0.9008 -0.8811
17315SOL     OW53876   4.305   0.976   6.567  0.1636 -0.3931 -0.3156
17315SOL    HW153877   4.366   0.925   6.620  0.0873  0.1581  0.3124
17315SOL    HW253878   4.238   1.006   6.629  0.7096  1.2448 -0.4706
17316SOL     OW53879   8.816   3.956   8.674  0.3757  0.3649 -0.0059
17316SOL    HW153880   8.721   3.964   8.665  0.1373 -0.9773  0.9983
17316SOL    HW253881   8.839   4.014   8.746  0.2808  0.5004 -0.0853
17317SOL     OW53882   5.803   3.793   6.607  0.3080  0.3418  0.1575
17317SOL    HW153883   5.739   3.730   6.639  1.8835 -1.0747  0.6419
17317SOL    HW253884   5.822   3.766   6.518  2.1491 -0.8866  0.8809
17318SOL     OW53885   2.922   6.045   5.560 -0.9266  0.2588  0.1696
17318SOL    HW153886   2.853   6.102   5.594 -0.1492  1.6223 -0.4542
17318SOL    HW253887   2.993   6.054   5.624 -0.6795  0.2382 -0.1027
17319SOL     OW53888   6.974   1.008   0.670  0.5178 -1.0799 -0.4856
17319SOL    HW153889   7.006   1.073   0.733  0.4244  0.1584 -1.6760
17319SOL    HW253890   7.038   1.010   0.599 -0.6426 -0.6831 -1.5555
17320SOL     OW53891   7.798   3.852   3.088 -0.3168  0.1238 -0.4420
17320SOL    HW153892   7.739   3.924   3.112 -0.6409  0.3100 -1.7052
17320SOL    HW253893   7.831   3.877   3.001  1.7776  0.1038  0.2918
17321SOL     OW53894   4.646   5.199   0.239  0.3888  0.4369  0.9773
17321SOL    HW153895   4.572   5.239   0.193 -1.1693 -1.3303  1.8266
17321SOL    HW253896   4.628   5.214   0.332  0.2499 -1.3126  1.2686
17322SOL     OW53897   7.427   1.528   4.797 -0.2195  0.1043 -0.1475
17322SOL    HW153898   7.396   1.618   4.811 -1.3499 -0.4652  1.3376
17322SOL    HW253899   7.512   1.538   4.754 -1.3718  1.8090 -2.1598
17323SOL     OW53900   5.869   6.978   8.330  0.3004 -1.2739  0.0686
17323SOL    HW153901   5.791   6.947   8.376  0.1182 -1.2780 -0.2383
17323SOL    HW253902   5.838   7.050   8.276  0.5745 -1.0601  0.1909
17324SOL     OW53903   0.374   1.175   7.228  0.2968  0.1337  0.4716
17324SOL    HW153904   0.374   1.259   7.274  0.0048 -0.1803  1.0523
17324SOL    HW253905   0.427   1.191   7.149 -0.1711  0.9937  0.3233
17325SOL     OW53906   6.365   1.824   3.314 -0.2199 -0.1854 -0.1501
17325SOL    HW153907   6.396   1.815   3.404  3.1138  0.3104 -1.1206
17325SOL    HW253908   6.380   1.738   3.275 -0.7546 -0.1267 -0.4907
17326SOL     OW53909   5.155   2.454   1.254 -0.3041  0.5512  0.1578
17326SOL    HW153910   5.249   2.448   1.266 -0.4300  0.2857  1.0689
17326SOL    HW253911   5.119   2.384   1.309 -0.9913  0.1357 -0.7935
17327SOL     OW53912   3.425   7.742   1.366 -0.0282  0.0893  0.0970
17327SOL    HW153913   3.478   7.802   1.419 -0.7998  0.0025  0.9825
17327SOL    HW253914   3.357   7.710   1.425 -0.5517 -0.4825 -0.7823
17328SOL     OW53915   3.425   0.797   2.366 -0.5421 -0.1307  0.6265
17328SOL    HW153916   3.383   0.734   2.307 -2.5669  2.5550 -1.0429
17328SOL    HW253917   3.421   0.755   2.452 -2.3742 -2.0292 -0.2709
17329SOL     OW53918   0.338   1.782   3.989  0.1425  0.0187 -0.0827
17329SOL    HW153919   0.254   1.753   4.026 -1.0164 -0.0133 -2.5641
17329SOL    HW253920   0.353   1.724   3.914  1.9821  0.5705 -0.1943
17330SOL     OW53921   2.987   2.333   8.066 -0.0971  0.0282 -0.2633
17330SOL    HW153922   2.926   2.407   8.067  1.3612  1.2726  0.0647
17330SOL    HW253923   3.074   2.373   8.067  0.7409 -1.6960 -0.1508
17331SOL     OW53924   3.480   4.441   4.952 -0.0031 -0.2463  0.4908
17331SOL    HW153925   3.391   4.466   4.978  0.1212  1.8469 -0.8067
17331SOL    HW253926   3.469   4.357   4.908 -1.3495 -0.0460  0.3949
17332SOL     OW53927   1.627   1.581   4.116 -0.4199  0.8540 -0.4533
17332SOL    HW153928   1.680   1.626   4.182  2.1966  1.3501 -2.6900
17332SOL    HW253929   1.627   1.490   4.144  1.4242  0.8970 -0.1684
17333SOL     OW53930   1.255   7.723   5.802  0.6539 -0.0661 -0.2275
17333SOL    HW153931   1.200   7.646   5.785  3.0146 -1.3881 -2.6531
17333SOL    HW253932   1.208   7.771   5.870 -0.9047 -3.7431  1.6362
17334SOL     OW53933   0.619   7.502   6.888 -0.3899  0.3010 -0.3776
17334SOL    HW153934   0.649   7.537   6.803 -1.5631  0.8914 -0.5774
17334SOL    HW253935   0.548   7.560   6.913 -0.3938 -0.1825  0.7851
17335SOL     OW53936   6.925   0.389   6.186 -0.2352 -0.2850 -0.0358
17335SOL    HW153937   6.924   0.320   6.253 -2.8462  0.0317  0.3536
17335SOL    HW253938   6.970   0.349   6.112  1.3313 -1.1924  1.3200
17336SOL     OW53939   5.591   8.210   0.098 -0.0183  0.0690  0.2146
17336SOL    HW153940   5.511   8.225   0.148 -0.1678 -1.2280  0.3988
17336SOL    HW253941   5.578   8.259   0.017 -0.2967  1.1752  0.9030
17337SOL     OW53942   2.505   8.723   6.233 -0.2786  0.1512 -0.1750
17337SOL    HW153943   2.476   8.796   6.178 -1.6863 -0.7517 -0.6889
17337SOL    HW253944   2.560   8.670   6.175 -0.5212  0.0057 -0.2772
17338SOL     OW53945   4.779   7.357   2.391 -0.6289 -0.1321  0.1719
17338SOL    HW153946   4.819   7.341   2.476 -1.0310  0.9613  0.5839
17338SOL    HW253947   4.685   7.349   2.407 -0.6620 -2.2088 -0.6844
17339SOL     OW53948   5.906   1.418   1.559 -0.1522  0.0204  0.1650
17339SOL    HW153949   5.941   1.361   1.627  0.1685 -1.1671 -0.9632
17339SOL    HW253950   5.938   1.505   1.583  0.0851 -0.3849  1.4286
17340SOL     OW53951   4.586   1.359   1.292  0.3117  0.7852  0.4828
17340SOL    HW153952   4.663   1.395   1.335 -0.1369  1.8130  0.4580
17340SOL    HW253953   4.568   1.421   1.221  2.3307 -1.9067 -2.7076
17341SOL     OW53954   1.791   8.283   8.607 -0.2192  0.3110 -0.3771
17341SOL    HW153955   1.782   8.371   8.643 -0.6066  0.4388 -0.7771
17341SOL    HW253956   1.815   8.228   8.682 -0.3777  0.6862 -0.0499
17342SOL     OW53957   0.489   8.509   0.844 -0.2373  0.0145  0.1406
17342SOL    HW153958   0.543   8.583   0.814 -0.5077  1.2692  2.4793
17342SOL    HW253959   0.490   8.448   0.771  1.3058  1.6329 -1.3102
17343SOL     OW53960   8.538   3.784   2.464 -0.3036 -0.6764  0.1632
17343SOL    HW153961   8.463   3.778   2.524 -0.0609 -1.6389  0.3784
17343SOL    HW253962   8.504   3.753   2.380 -0.0956 -1.2983  0.3082
17344SOL     OW53963   6.569   7.980   6.865  0.2639 -0.4390  0.5635
17344SOL    HW153964   6.482   8.014   6.842  0.1256 -1.1024  0.0608
17344SOL    HW253965   6.555   7.885   6.875  0.6570 -0.3847  1.8194
17345SOL     OW53966   6.852   1.579   2.163  0.4247  0.1509 -0.5407
17345SOL    HW153967   6.914   1.587   2.091 -0.6250 -0.7457 -1.5983
17345SOL    HW253968   6.861   1.488   2.192 -0.3451  0.0183 -0.6883
17346SOL     OW53969   6.698   7.735   7.728  0.4087 -0.4942  0.6292
17346SOL    HW153970   6.695   7.752   7.634  2.0896  0.1420  0.6575
17346SOL    HW253971   6.684   7.641   7.736 -0.6810 -0.4195 -0.1684
17347SOL     OW53972   0.265   8.293   6.415  0.4655  0.1873 -0.7394
17347SOL    HW153973   0.286   8.382   6.386 -0.9131  0.3103 -1.4137
17347SOL    HW253974   0.263   8.242   6.335 -0.8382 -0.0077 -0.5928
17348SOL     OW53975   6.050   8.522   7.129 -0.2523 -0.1127  0.4638
17348SOL    HW153976   6.038   8.509   7.034 -0.0706  0.8355  0.3021
17348SOL    HW253977   5.966   8.556   7.159 -0.3934 -0.6596  0.6941
17349SOL     OW53978   0.159   2.289   8.662  0.3335  0.1163 -0.1366
17349SOL    HW153979   0.154   2.196   8.684  0.2943 -0.3091 -1.7966
17349SOL    HW253980   0.227   2.323   8.720 -3.2084  0.3409  4.3690
17350SOL     OW53981   6.340   0.231   3.921  0.1595 -0.5617 -0.1679
17350SOL    HW153982   6.363   0.321   3.946  0.2156 -0.7345  0.4179
17350SOL    HW253983   6.418   0.198   3.877  0.8903 -0.9638  1.3420
17351SOL     OW53984   7.619   4.886   1.375 -0.2661  0.0058  0.3233
17351SOL    HW153985   7.653   4.958   1.322 -2.1186 -0.4258 -1.5867
17351SOL    HW253986   7.641   4.807   1.325 -0.1940 -0.5960  1.2836
17352SOL     OW53987   0.780   8.757   4.954 -0.5259 -0.9426 -0.4737
17352SOL    HW153988   0.816   8.839   4.988 -1.8486 -0.8927  0.9117
17352SOL    HW253989   0.751   8.778   4.866 -0.2811 -0.0892 -0.3585
17353SOL     OW53990   3.028   7.626   6.585  0.0600 -0.2532  0.1713
17353SOL    HW153991   3.018   7.659   6.674 -0.8807  0.3591 -0.1421
17353SOL    HW253992   3.101   7.565   6.590  0.2047 -0.0108  1.3000
17354SOL     OW53993   7.612   6.135   3.311 -0.2782  0.0037  0.1946
17354SOL    HW153994   7.683   6.085   3.272  0.5012  0.3969  1.0966
17354SOL    HW253995   7.539   6.125   3.249 -1.5859 -5.6032  2.0863
17355SOL     OW53996   3.970   7.781   6.056 -0.1202  0.5118  0.1316
17355SOL    HW153997   3.937   7.696   6.024  1.8266  0.2515 -1.3501
17355SOL    HW253998   3.930   7.845   5.996 -0.0085  0.4536 -0.0048
17356SOL     OW53999   5.011   7.611   5.742 -0.4082 -0.4445 -0.0141
17356SOL    HW154000   5.056   7.691   5.714 -0.9959 -0.3660 -0.7362
17356SOL    HW254001   5.010   7.555   5.665  1.6034 -1.9363  0.9343
17357SOL     OW54002   3.429   1.526   1.877 -0.0864 -0.0474  0.0103
17357SOL    HW154003   3.459   1.435   1.876  1.0115  0.2781  0.8002
17357SOL    HW254004   3.349   1.524   1.929 -1.1308 -0.8380 -1.5785
17358SOL     OW54005   1.345   7.875   1.567 -0.0889  0.0401  0.2104
17358SOL    HW154006   1.310   7.961   1.589  0.5086  0.5021 -0.6238
17358SOL    HW254007   1.300   7.851   1.486  1.5675  0.6973 -0.9508
17359SOL     OW54008   6.659   4.650   6.238  0.8865  0.1432  0.1001
17359SOL    HW154009   6.654   4.557   6.259  1.1180  0.7065  3.0505
17359SOL    HW254010   6.670   4.693   6.323  0.6975  2.8809 -1.1699
17360SOL     OW54011   1.632   0.142   7.948  0.3471 -0.1251 -0.3818
17360SOL    HW154012   1.546   0.120   7.912 -0.2758  2.2570 -0.5567
17360SOL    HW254013   1.633   0.103   8.035  0.3365 -2.7125 -1.4664
17361SOL     OW54014   3.187   3.055   8.402 -0.4840 -0.2338  0.0122
17361SOL    HW154015   3.210   2.987   8.339 -1.5580 -2.9587  2.3248
17361SOL    HW254016   3.271   3.087   8.434  0.0557  0.3664 -1.8791
17362SOL     OW54017   7.453   0.481   7.659  1.4086  0.1009 -0.1498
17362SOL    HW154018   7.430   0.388   7.655  2.7505 -0.2658  0.1657
17362SOL    HW254019   7.375   0.526   7.628  0.0304 -1.0275  1.5077
17363SOL     OW54020   6.133   2.636   3.095  0.3669 -0.4972  0.6364
17363SOL    HW154021   6.156   2.544   3.101  0.8042 -0.4024  0.3800
17363SOL    HW254022   6.096   2.656   3.181  0.1218 -0.9488  0.6395
17364SOL     OW54023   5.611   5.524   2.323 -0.1599 -0.3120  0.0719
17364SOL    HW154024   5.677   5.461   2.295 -1.2608 -2.6146  2.2954
17364SOL    HW254025   5.655   5.577   2.390 -0.2349 -1.2007  0.8468
17365SOL     OW54026   5.490   2.942   6.971 -0.2898  0.0990  0.2581
17365SOL    HW154027   5.398   2.964   6.956 -0.2779  0.0655  0.1366
17365SOL    HW254028   5.507   2.870   6.910 -0.4561 -0.5490  0.9466
17366SOL     OW54029   5.665   5.382   1.745  0.2104  0.1579 -0.3486
17366SOL    HW154030   5.603   5.372   1.817 -0.0355  0.6980 -0.4841
17366SOL    HW254031   5.652   5.305   1.690  0.7296 -0.5054  0.4318
17367SOL     OW54032   8.699   0.527   4.624  0.1863 -0.5720 -0.7176
17367SOL    HW154033   8.621   0.475   4.605 -0.2682 -0.0716 -0.2305
17367SOL    HW254034   8.710   0.520   4.718 -1.3954  2.2970 -0.2139
17368SOL     OW54035   2.542   1.270   1.479  0.2506 -0.8446  0.2507
17368SOL    HW154036   2.615   1.233   1.430  1.3016  1.2763  0.1079
17368SOL    HW254037   2.548   1.228   1.566  0.9488 -1.5023 -0.0991
17369SOL     OW54038   0.685   3.124   2.675 -0.0845 -0.2254  0.2681
17369SOL    HW154039   0.737   3.203   2.662 -0.7302  0.0631 -0.6618
17369SOL    HW254040   0.749   3.057   2.700  0.5196  0.4797  0.6513
17370SOL     OW54041   1.734   8.195   2.267  0.1635 -0.7010 -0.3919
17370SOL    HW154042   1.639   8.208   2.275  0.1022 -1.2952 -0.1353
17370SOL    HW254043   1.743   8.112   2.221  0.5659 -1.3871  0.9095
17371SOL     OW54044   4.894   0.849   5.565 -0.6061  0.3981 -0.0216
17371SOL    HW154045   4.840   0.828   5.489 -0.6544 -0.1394  0.1562
17371SOL    HW254046   4.831   0.878   5.631 -0.5518  0.9934 -0.2251
17372SOL     OW54047   2.930   0.435   2.913 -0.0338  0.3662  0.0203
17372SOL    HW154048   2.980   0.357   2.893 -1.3221 -0.6532  0.5773
17372SOL    HW254049   2.990   0.508   2.897  0.8059 -0.6610 -1.7060
17373SOL     OW54050   7.425   0.081   0.344  0.0382 -0.3376 -0.5802
17373SOL    HW154051   7.407  -0.013   0.356 -1.0441 -0.0525  0.1317
17373SOL    HW254052   7.444   0.113   0.431 -2.4285  0.6502 -0.3286
17374SOL     OW54053   0.749   8.059   7.684 -0.1739 -0.1980  0.3219
17374SOL    HW154054   0.734   8.100   7.599  0.7202 -1.3602 -0.4342
17374SOL    HW254055   0.731   8.128   7.748 -1.6934  0.4578 -0.7585
17375SOL     OW54056   0.392   4.466   7.925  0.2817 -0.5197  0.3755
17375SOL    HW154057   0.356   4.432   8.007 -0.0489  1.5749  1.1633
17375SOL    HW254058   0.315   4.489   7.873  0.4508 -2.7778 -1.0538
17376SOL     OW54059   3.700   6.468   6.205 -0.0450  0.0016  0.2672
17376SOL    HW154060   3.685   6.563   6.213  1.2654  0.2067  0.5499
17376SOL    HW254061   3.794   6.458   6.215 -0.0378 -1.2479 -0.7568
17377SOL     OW54062   6.057   1.862   1.129 -0.3360 -0.1920  0.4630
17377SOL    HW154063   5.973   1.895   1.162 -0.1690 -0.8708  1.6309
17377SOL    HW254064   6.103   1.940   1.099 -0.6778  0.4317  1.4850
17378SOL     OW54065   4.163   5.673   7.692 -0.4255  0.1388 -0.5052
17378SOL    HW154066   4.171   5.680   7.596 -1.8064  0.2552 -0.6393
17378SOL    HW254067   4.070   5.690   7.709  0.1259  1.8938  1.0270
17379SOL     OW54068   1.645   5.222   5.011  0.4837 -0.1010 -0.3508
17379SOL    HW154069   1.673   5.146   4.960  1.0681 -0.0246 -0.1571
17379SOL    HW254070   1.645   5.192   5.102 -4.7767 -1.5827 -0.5582
17380SOL     OW54071   5.139   3.328   5.762 -0.1540 -0.1448 -0.3244
17380SOL    HW154072   5.218   3.366   5.800 -0.2659  0.3722 -0.6023
17380SOL    HW254073   5.159   3.234   5.755  0.1049 -0.1484  0.4002
17381SOL     OW54074   2.651   7.796   4.825  0.1571  0.1432 -0.0493
17381SOL    HW154075   2.596   7.723   4.853  1.5683 -0.4261  1.4475
17381SOL    HW254076   2.736   7.778   4.865  0.6385  2.4363  0.1093
17382SOL     OW54077   2.607   7.845   4.239  0.0398  0.4950  0.0581
17382SOL    HW154078   2.586   7.836   4.332 -1.8217  3.0558 -0.0014
17382SOL    HW254079   2.545   7.788   4.194  0.8013 -0.5818  0.3413
17383SOL     OW54080   7.909   1.240   2.069  0.1038 -0.2526 -0.3606
17383SOL    HW154081   7.901   1.278   1.982  0.4830  0.1165 -0.2424
17383SOL    HW254082   7.876   1.151   2.061 -2.1675  0.5184 -0.3338
17384SOL     OW54083   4.241   7.667   8.337 -0.0871  0.1699 -0.7923
17384SOL    HW154084   4.209   7.755   8.319 -0.5086 -0.0057 -0.9110
17384SOL    HW254085   4.174   7.628   8.393  0.4688  0.1863 -0.1003
17385SOL     OW54086   7.670   7.976   8.292  0.3421 -0.1812  0.0803
17385SOL    HW154087   7.575   7.973   8.308  0.2976  0.0899 -0.1251
17385SOL    HW254088   7.706   8.006   8.375  0.4044 -1.8785  0.7000
17386SOL     OW54089   2.594   2.751   2.348 -0.0540  0.0524  0.1128
17386SOL    HW154090   2.551   2.814   2.406 -0.8475  0.9139 -1.3475
17386SOL    HW254091   2.687   2.757   2.370 -0.1197  1.7435  0.0355
17387SOL     OW54092   8.581   2.957   5.706  0.0607 -0.2840 -0.1852
17387SOL    HW154093   8.486   2.950   5.711 -0.0346 -0.9421 -2.0872
17387SOL    HW254094   8.612   2.918   5.787 -1.3029  2.6440  1.9489
17388SOL     OW54095   6.504   8.351   8.393  0.0792  0.1455  0.0148
17388SOL    HW154096   6.599   8.359   8.397 -0.0361  1.1610  3.1401
17388SOL    HW254097   6.477   8.416   8.329  1.3843  1.3126  0.6027
17389SOL     OW54098   3.572   8.408   6.106 -0.3618  0.2311  0.2671
17389SOL    HW154099   3.583   8.502   6.120  1.0221  0.1736 -0.2531
17389SOL    HW254100   3.640   8.385   6.043 -1.9976 -0.7476 -1.2566
17390SOL     OW54101   0.837   6.501   7.409  0.0643  0.9455 -0.7684
17390SOL    HW154102   0.788   6.455   7.478  0.4212  0.6596 -0.7058
17390SOL    HW254103   0.928   6.501   7.439  0.4486 -0.3383 -1.8480
17391SOL     OW54104   7.838   7.293   2.638 -0.2784 -0.0879  0.2850
17391SOL    HW154105   7.808   7.383   2.645  0.7559  0.1953  1.3547
17391SOL    HW254106   7.925   7.299   2.599  0.1274 -0.5424  1.0954
17392SOL     OW54107   8.305   3.593   6.128  0.1154 -0.6221 -0.0764
17392SOL    HW154108   8.387   3.545   6.117  0.3570 -0.5470  1.2471
17392SOL    HW254109   8.331   3.678   6.162 -0.5152 -0.6473  0.4807
17393SOL     OW54110   6.602   2.258   5.927  0.1719 -0.0488 -0.2550
17393SOL    HW154111   6.531   2.321   5.920 -0.3656 -0.6055  0.0938
17393SOL    HW254112   6.621   2.234   5.836 -0.3210 -0.1449 -0.3374
17394SOL     OW54113   2.287   7.105   5.873  0.2996  0.9124  0.0419
17394SOL    HW154114   2.366   7.157   5.859  0.1612  1.1979  0.3130
17394SOL    HW254115   2.310   7.044   5.943  0.8855 -0.2942 -1.1617
17395SOL     OW54116   1.943   1.853   2.341  0.3824 -0.3523 -0.7450
17395SOL    HW154117   1.919   1.761   2.333  1.2810 -0.4568 -3.4120
17395SOL    HW254118   2.035   1.852   2.365 -0.2328 -0.0350  1.9561
17396SOL     OW54119   6.749   4.506   7.750  0.2286 -0.6759  0.3454
17396SOL    HW154120   6.768   4.573   7.815 -0.3125 -1.5650  1.4388
17396SOL    HW254121   6.815   4.520   7.682 -0.2775  1.3851  0.1965
17397SOL     OW54122   2.577   8.319   0.943  0.5152 -0.2680  0.7578
17397SOL    HW154123   2.592   8.387   1.008  0.0503 -0.1523  0.7425
17397SOL    HW254124   2.482   8.317   0.931  0.5792 -0.4412  0.2489
17398SOL     OW54125   3.335   4.083   8.502 -0.1492  0.7177 -0.1034
17398SOL    HW154126   3.323   4.059   8.594  0.7814 -0.0197 -0.1603
17398SOL    HW254127   3.247   4.085   8.466 -0.4453 -0.0965  0.5434
17399SOL     OW54128   6.934   0.050   6.918  0.1652  0.0773 -0.3282
17399SOL    HW154129   6.854   0.016   6.960  0.8041 -2.1267 -0.7525
17399SOL    HW254130   6.924   0.145   6.921 -2.1284 -0.1161  0.3033
17400SOL     OW54131   0.966   7.629   0.003 -0.0371  0.0468  0.0672
17400SOL    HW154132   0.929   7.637   0.091 -1.0315 -2.0222 -0.1080
17400SOL    HW254133   1.024   7.553   0.008 -1.2263 -1.0227 -1.3710
17401SOL     OW54134   4.118   5.595   5.859 -0.1482  0.1135  0.6146
17401SOL    HW154135   4.154   5.546   5.933 -1.7322 -1.3417  0.4773
17401SOL    HW254136   4.144   5.544   5.782 -0.2732  0.4933  0.3171
17402SOL     OW54137   8.433   8.550   0.881 -0.3559  0.3872 -0.3934
17402SOL    HW154138   8.353   8.500   0.896 -0.2442  0.5688  0.8566
17402SOL    HW254139   8.415   8.637   0.915  0.2554  0.5342 -0.4232
17403SOL     OW54140   8.199   3.937   8.449 -0.0213  0.4237 -0.1448
17403SOL    HW154141   8.283   3.974   8.425 -0.5306  1.5106 -0.3202
17403SOL    HW254142   8.165   3.996   8.517  0.6206 -1.6011  2.0772
17404SOL     OW54143   3.809   7.426   8.129 -0.1201 -0.0650  0.0479
17404SOL    HW154144   3.855   7.491   8.182 -0.3170  0.5450 -0.5295
17404SOL    HW254145   3.876   7.360   8.110 -0.5400 -1.4351  2.8360
17405SOL     OW54146   1.058   3.070   7.712  0.2716  0.5077 -0.2382
17405SOL    HW154147   0.990   3.069   7.779  0.8579  0.1896  0.3581
17405SOL    HW254148   1.031   3.139   7.651 -2.1535 -1.4845 -1.6353
17406SOL     OW54149   3.770   1.979   2.049  0.2582 -0.0613 -0.0940
17406SOL    HW154150   3.728   2.032   1.981 -0.0029 -0.2438 -0.0733
17406SOL    HW254151   3.711   1.905   2.062  1.1458 -0.9177 -0.8644
17407SOL     OW54152   6.181   6.548   1.131 -0.0901 -0.0234 -0.6257
17407SOL    HW154153   6.214   6.638   1.139 -1.1488  0.4130 -1.0202
17407SOL    HW254154   6.127   6.535   1.210  0.6701 -0.5964 -0.1817
17408SOL     OW54155   7.257   1.095   5.898  0.1463  0.4197  0.0443
17408SOL    HW154156   7.352   1.087   5.892  0.4843  2.6131  1.4653
17408SOL    HW254157   7.237   1.177   5.853 -1.4970 -1.3514 -2.7772
17409SOL     OW54158   3.568   2.634   7.186  0.4205  0.0435  0.0711
17409SOL    HW154159   3.613   2.683   7.255  0.4885  2.0186 -1.2829
17409SOL    HW254160   3.478   2.668   7.187  0.2725 -0.3190 -0.4273
17410SOL     OW54161   8.497   2.773   0.588  0.2871 -0.7449 -0.1598
17410SOL    HW154162   8.435   2.758   0.660  1.7572  0.9309  1.5542
17410SOL    HW254163   8.557   2.699   0.595 -0.1522 -1.1257 -0.3261
17411SOL     OW54164   0.978   7.956   5.776 -0.1721  0.5238 -0.3015
17411SOL    HW154165   0.961   7.979   5.685  1.1247  1.2843 -0.3659
17411SOL    HW254166   0.901   7.905   5.802  0.3746 -1.6269 -2.4759
17412SOL     OW54167   7.391   3.236   6.985  0.8356  0.6609  0.6098
17412SOL    HW154168   7.452   3.170   6.953  0.2479 -0.8334  2.3684
17412SOL    HW254169   7.364   3.284   6.907  1.1530 -1.2991 -0.7739
17413SOL     OW54170   2.147   1.038   6.326 -0.4050 -0.6706 -0.8524
17413SOL    HW154171   2.199   1.034   6.246 -0.9269 -0.2894 -1.2113
17413SOL    HW254172   2.128   1.131   6.339  0.6152 -0.5941  0.3354
17414SOL     OW54173   3.589   0.956   6.607 -0.2476  0.2243  0.0466
17414SOL    HW154174   3.513   1.001   6.643 -1.2482 -0.7592 -0.7703
17414SOL    HW254175   3.655   0.961   6.677 -1.3011  0.4758  1.0525
17415SOL     OW54176   5.204   1.812   5.683 -0.8219  0.1939  0.6871
17415SOL    HW154177   5.236   1.890   5.639 -1.2036  0.0331  0.1044
17415SOL    HW254178   5.245   1.814   5.769 -0.6950  0.9429  0.6173
17416SOL     OW54179   7.907   8.712   6.182 -0.3360 -0.5064 -0.4123
17416SOL    HW154180   7.957   8.785   6.221 -3.1172  1.1827  0.2330
17416SOL    HW254181   7.917   8.725   6.088  1.3957 -0.9620 -0.3339
17417SOL     OW54182   7.450   0.348   5.059  0.8008 -0.1691 -0.4302
17417SOL    HW154183   7.425   0.258   5.038  0.6252 -0.0868 -0.5752
17417SOL    HW254184   7.374   0.401   5.034  0.7694 -0.0175 -0.0375
17418SOL     OW54185   2.501   4.643   1.885  0.3269 -0.3469  0.2814
17418SOL    HW154186   2.564   4.595   1.939  1.2265 -0.6381 -0.9702
17418SOL    HW254187   2.456   4.575   1.835  1.0765  0.0087 -0.9463
17419SOL     OW54188   8.495   8.688   1.647  0.2462 -0.2184  0.0328
17419SOL    HW154189   8.461   8.777   1.643  0.1345 -0.3230 -1.8115
17419SOL    HW254190   8.422   8.632   1.622  1.0872 -0.5949 -1.7219
17420SOL     OW54191   8.501   8.357   0.286  0.1217  0.0173  0.1507
17420SOL    HW154192   8.510   8.309   0.205 -0.0273 -1.5969  1.0506
17420SOL    HW254193   8.563   8.316   0.346 -0.4512  0.5316  1.1315
17421SOL     OW54194   1.980   7.033   0.791  0.1712  0.0543 -0.9900
17421SOL    HW154195   1.955   7.049   0.882  1.3565  0.0544 -0.6382
17421SOL    HW254196   2.054   7.092   0.776 -0.6444  0.8126 -2.2876
17422SOL     OW54197   1.803   4.893   1.964 -0.2307  0.5707  0.4996
17422SOL    HW154198   1.763   4.896   1.877  1.3596 -0.0623 -0.2839
17422SOL    HW254199   1.894   4.870   1.948 -0.0005  0.0068  2.3727
17423SOL     OW54200   4.084   1.255   3.928  0.0754 -0.2315  0.5294
17423SOL    HW154201   4.084   1.318   4.000 -1.8110  0.4993 -0.0288
17423SOL    HW254202   4.163   1.274   3.878 -0.3444  1.5917  0.4996
17424SOL     OW54203   2.594   0.372   0.685 -0.2369  0.9706 -0.4712
17424SOL    HW154204   2.574   0.298   0.742 -1.3989  0.5711 -1.3368
17424SOL    HW254205   2.676   0.349   0.642  0.0678  0.7797  0.2024
17425SOL     OW54206   3.897   5.844   5.260  0.0827 -0.2962 -0.4604
17425SOL    HW154207   3.952   5.864   5.336  0.0605 -1.0919 -0.2259
17425SOL    HW254208   3.886   5.748   5.262 -3.4276  0.0010  0.9845
17426SOL     OW54209   4.608   6.408   3.647 -0.0169 -0.6231 -0.1709
17426SOL    HW154210   4.514   6.427   3.654 -0.0729 -0.4729 -1.2065
17426SOL    HW254211   4.620   6.382   3.556  1.2220  0.8581 -0.4631
17427SOL     OW54212   6.694   5.152   0.999 -0.2064  0.2356 -0.4121
17427SOL    HW154213   6.738   5.222   0.951  2.8792 -0.6619  0.8493
17427SOL    HW254214   6.677   5.189   1.086  1.6052 -0.5458  0.3204
17428SOL     OW54215   3.915   6.613   1.154 -0.0947 -0.1742 -0.0057
17428SOL    HW154216   3.823   6.593   1.135 -0.5255  1.2298  0.4720
17428SOL    HW254217   3.912   6.670   1.230  1.1038  0.8469 -0.6849
17429SOL     OW54218   1.723   7.482   5.195 -0.1123  0.4723 -0.1998
17429SOL    HW154219   1.752   7.557   5.248  0.4632  0.5357 -0.5942
17429SOL    HW254220   1.725   7.514   5.105 -1.3435  0.4462 -0.2505
17430SOL     OW54221   1.730   3.777   4.860  0.1259  0.1592 -0.2352
17430SOL    HW154222   1.718   3.685   4.837 -0.2651 -0.2877  1.5920
17430SOL    HW254223   1.807   3.804   4.811  1.7947 -1.8697  1.0658
17431SOL     OW54224   4.560   7.673   2.897  0.0843 -0.3480  0.0485
17431SOL    HW154225   4.653   7.666   2.921 -0.0799 -0.8175  0.5658
17431SOL    HW254226   4.516   7.606   2.950 -0.8822  1.4185  1.6071
17432SOL     OW54227   5.915   3.798   7.176 -0.0847 -0.0521 -0.0033
17432SOL    HW154228   5.936   3.761   7.091  0.8473  0.0951  0.1522
17432SOL    HW254229   5.820   3.795   7.181 -0.1533  0.0651 -1.1013
17433SOL     OW54230   6.066   0.284   8.804  0.6558  0.4639 -0.3684
17433SOL    HW154231   5.972   0.299   8.792  0.4694 -0.1174  0.2827
17433SOL    HW254232   6.086   0.321   8.890  0.7697 -0.4175  0.0020
17434SOL     OW54233   4.480   0.091   8.222 -0.1085  0.9641  0.1069
17434SOL    HW154234   4.485   0.061   8.132 -2.0185  1.6983 -0.2913
17434SOL    HW254235   4.560   0.141   8.235  1.0969 -0.7067 -0.5383
17435SOL     OW54236   8.709   2.503   3.180 -0.1497 -0.2201  0.5065
17435SOL    HW154237   8.721   2.459   3.264  0.8590 -1.4103 -0.2270
17435SOL    HW254238   8.697   2.595   3.202 -3.0126 -0.8659  2.1642
17436SOL     OW54239   8.009   4.463   2.434 -0.0342 -0.0752  0.0037
17436SOL    HW154240   7.930   4.440   2.483 -1.1786  0.3103 -1.5836
17436SOL    HW254241   8.047   4.378   2.411 -1.6302 -0.3786 -1.7394
17437SOL     OW54242   2.190   3.201   2.885 -0.0097  0.3592  0.0664
17437SOL    HW154243   2.243   3.175   2.960  0.1833  0.1780 -0.1302
17437SOL    HW254244   2.135   3.124   2.867  0.8934 -0.1042 -0.8089
17438SOL     OW54245   3.450   5.084   7.196  0.0183  0.2043  0.0117
17438SOL    HW154246   3.401   5.024   7.252  1.6919 -0.1698  1.1761
17438SOL    HW254247   3.506   5.027   7.143  0.2426  0.6592 -0.2494
17439SOL     OW54248   2.837   0.717   3.485 -0.2701 -0.5163  0.0425
17439SOL    HW154249   2.883   0.721   3.569  0.8699 -0.2958 -0.5760
17439SOL    HW254250   2.893   0.664   3.429 -1.8526 -2.1516 -0.0991
17440SOL     OW54251   0.787   7.029   4.771 -0.3398 -0.7807  0.4540
17440SOL    HW154252   0.804   7.058   4.861 -1.4952 -0.9966  0.7595
17440SOL    HW254253   0.703   7.069   4.749 -0.4447 -1.3816 -0.2435
17441SOL     OW54254   7.304   6.736   3.274 -0.1597 -0.5136 -0.0169
17441SOL    HW154255   7.242   6.670   3.243 -1.8315 -0.6548  3.1526
17441SOL    HW254256   7.354   6.693   3.343  1.2298  0.5483 -0.3113
17442SOL     OW54257   7.581   1.033   1.234 -0.1304 -0.2586  0.4479
17442SOL    HW154258   7.576   0.937   1.225 -2.4540 -0.3746  2.1065
17442SOL    HW254259   7.516   1.065   1.171  1.7595  0.4016 -1.2719
17443SOL     OW54260   0.712   1.283   3.802 -0.3428 -0.1269  1.0545
17443SOL    HW154261   0.635   1.303   3.855 -0.4496  0.0744  0.8213
17443SOL    HW254262   0.678   1.241   3.724 -0.1400 -0.9947  1.4178
17444SOL     OW54263   6.613   8.227   3.077  0.2896 -0.4095  0.1578
17444SOL    HW154264   6.694   8.266   3.111 -0.4675  1.0695  0.3125
17444SOL    HW254265   6.543   8.272   3.123 -0.7570  0.9925 -2.5960
17445SOL     OW54266   8.356   1.402   5.056  0.3140  0.2592  0.1230
17445SOL    HW154267   8.412   1.456   5.112 -0.4419  0.1422  1.0278
17445SOL    HW254268   8.283   1.460   5.033 -0.4490 -0.3164  1.0116
17446SOL     OW54269   5.230   1.925   6.985 -0.0259  0.2106  0.3121
17446SOL    HW154270   5.299   1.931   7.051  1.4788 -1.6817 -0.9707
17446SOL    HW254271   5.183   1.844   7.005  0.4177 -0.3648 -0.8681
17447SOL     OW54272   6.282   3.602   1.421 -0.0557 -0.0856  0.0166
17447SOL    HW154273   6.245   3.661   1.487 -1.1193 -0.0937 -0.5478
17447SOL    HW254274   6.339   3.658   1.368 -1.8014  0.7042 -1.1164
17448SOL     OW54275   5.265   8.150   5.894  0.4299  0.2454 -0.4416
17448SOL    HW154276   5.306   8.088   5.954  0.3349 -0.4142 -1.0570
17448SOL    HW254277   5.173   8.150   5.919  0.6037  0.9422  0.2486
17449SOL     OW54278   1.426   3.351   5.258 -0.0476 -0.6832 -0.2530
17449SOL    HW154279   1.376   3.362   5.339  1.3682 -0.2333  0.6015
17449SOL    HW254280   1.445   3.257   5.255 -0.6382 -0.8044 -0.4122
17450SOL     OW54281   5.048   0.185   7.937  0.1569  0.7146  0.5690
17450SOL    HW154282   4.977   0.155   7.994 -2.6919  0.4018 -2.8196
17450SOL    HW254283   5.019   0.270   7.905 -0.5482 -0.8289 -3.4712
17451SOL     OW54284   4.459   6.757   4.253  0.3472  0.0221  0.0395
17451SOL    HW154285   4.501   6.719   4.330  0.9643  2.7729  1.1851
17451SOL    HW254286   4.521   6.823   4.222 -1.3199  1.3009 -0.7564
17452SOL     OW54287   8.399   1.403   1.914 -0.5276 -0.3872  0.3456
17452SOL    HW154288   8.456   1.383   1.840 -0.0393  0.9200  0.3442
17452SOL    HW254289   8.457   1.402   1.990 -0.6230  0.3030  0.4337
17453SOL     OW54290   8.263   2.055   0.702 -0.6461 -0.5127 -0.3125
17453SOL    HW154291   8.306   2.127   0.749 -1.9492 -0.1856  0.4095
17453SOL    HW254292   8.314   1.978   0.727 -0.9162 -0.2501  1.1597
17454SOL     OW54293   8.736   5.227   2.822 -0.1421 -0.0577  0.4092
17454SOL    HW154294   8.812   5.239   2.880 -0.4801  1.6388  0.5515
17454SOL    HW254295   8.730   5.132   2.810  0.1936 -0.4376  2.7997
17455SOL     OW54296   0.876   1.248   4.406 -0.7025  0.4875  0.1494
17455SOL    HW154297   0.856   1.156   4.426 -0.0104  0.5579  1.2820
17455SOL    HW254298   0.938   1.244   4.333 -3.2631  0.2155 -2.1874
17456SOL     OW54299   0.746   6.281   3.430 -0.5197  0.2790  0.2946
17456SOL    HW154300   0.691   6.291   3.507 -0.0473  1.5096  0.4884
17456SOL    HW254301   0.836   6.280   3.464 -0.3009  0.9750 -0.2395
17457SOL     OW54302   3.864   3.854   4.967  0.0745  0.1835  0.3059
17457SOL    HW154303   3.879   3.761   4.981  1.8002  0.3238 -0.3965
17457SOL    HW254304   3.882   3.869   4.874 -1.1869  1.0602  0.1655
17458SOL     OW54305   5.457   2.245   7.114 -0.3964  0.3671 -0.4058
17458SOL    HW154306   5.388   2.187   7.147 -1.4347  1.9660  0.3856
17458SOL    HW254307   5.450   2.323   7.168  1.5065  0.9119 -0.8978
17459SOL     OW54308   6.364   1.145   6.217  1.2603 -0.5703 -0.2636
17459SOL    HW154309   6.378   1.092   6.139  1.1936  1.2199 -1.5583
17459SOL    HW254310   6.359   1.235   6.184 -1.9540  0.0015  1.4263
17460SOL     OW54311   6.118   8.246   4.781  0.9277  0.0462 -0.1546
17460SOL    HW154312   6.030   8.208   4.777  0.8858  0.2210 -1.6712
17460SOL    HW254313   6.177   8.170   4.780  0.8074 -0.0619  0.4789
17461SOL     OW54314   8.495   4.493   5.839 -0.0147 -0.6773 -0.2608
17461SOL    HW154315   8.406   4.490   5.873  0.2100  0.0048  0.4158
17461SOL    HW254316   8.548   4.451   5.906  0.1607 -1.2051 -0.7247
17462SOL     OW54317   2.738   1.081   1.420 -0.0329  0.0696  0.3846
17462SOL    HW154318   2.704   1.033   1.344  0.1507  0.2515  0.1847
17462SOL    HW254319   2.821   1.119   1.389 -0.8574  1.7312  0.0517
17463SOL     OW54320   1.579   0.733   5.870  0.1575 -0.1962 -0.7599
17463SOL    HW154321   1.600   0.706   5.960  2.5198 -2.4471 -1.8529
17463SOL    HW254322   1.557   0.651   5.825 -0.5352  0.8317 -2.3711
17464SOL     OW54323   1.587   3.314   4.645  0.4315  0.7738  0.3907
17464SOL    HW154324   1.663   3.275   4.601 -0.1708  0.5245 -0.4516
17464SOL    HW254325   1.512   3.286   4.593  0.0085  3.6391 -0.7389
17465SOL     OW54326   4.258   2.113   2.965 -0.2501 -0.0600 -0.0516
17465SOL    HW154327   4.262   2.202   3.000  0.2593 -0.0493 -0.1229
17465SOL    HW254328   4.308   2.117   2.884  1.2546 -0.7792  0.7827
17466SOL     OW54329   5.762   6.844   0.770  0.4105 -0.5043 -0.4588
17466SOL    HW154330   5.687   6.850   0.711 -0.5103 -1.6364  0.5543
17466SOL    HW254331   5.836   6.878   0.718 -0.8487  1.0350 -1.3351
17467SOL     OW54332   7.666   4.051   6.941  0.0978 -0.2669 -0.2102
17467SOL    HW154333   7.715   3.969   6.945  1.9989  0.8176 -0.1148
17467SOL    HW254334   7.580   4.029   6.977  1.1839 -1.7822  1.6535
17468SOL     OW54335   3.611   1.178   8.544  0.6162 -0.0739  0.0137
17468SOL    HW154336   3.648   1.141   8.624  0.2652 -1.5286 -0.4570
17468SOL    HW254337   3.687   1.210   8.495  0.8073  1.0540  1.0162
17469SOL     OW54338   2.724   5.130   7.058 -0.4549  0.5038 -0.4467
17469SOL    HW154339   2.675   5.212   7.064 -2.0377 -0.3587 -0.9768
17469SOL    HW254340   2.657   5.063   7.046  0.7676 -0.9360  0.3974
17470SOL     OW54341   6.790   8.466   5.542 -0.5312  0.0070  0.5290
17470SOL    HW154342   6.740   8.537   5.501 -1.5476 -1.1898 -0.3917
17470SOL    HW254343   6.765   8.388   5.492  0.0270 -1.1124  1.9439
17471SOL     OW54344   6.618   1.790   4.243  0.2787  0.2045 -0.1900
17471SOL    HW154345   6.606   1.749   4.328  0.7074 -1.5808 -0.9442
17471SOL    HW254346   6.709   1.819   4.243  1.1812 -2.3538 -1.0160
17472SOL     OW54347   7.245   2.149   6.377 -0.2423 -0.2095 -0.5265
17472SOL    HW154348   7.254   2.141   6.471 -1.5140  0.5926 -0.3076
17472SOL    HW254349   7.332   2.128   6.342  0.5191  0.4507  0.8805
17473SOL     OW54350   8.512   1.257   1.299 -0.0949 -0.2065  0.4076
17473SOL    HW154351   8.469   1.301   1.372 -0.7157  0.4228 -0.3163
17473SOL    HW254352   8.495   1.313   1.223 -0.0210 -1.1730 -0.3491
17474SOL     OW54353   5.646   0.351   1.261  0.4552 -0.7051 -0.0977
17474SOL    HW154354   5.732   0.329   1.225  1.3613 -1.4401  2.3112
17474SOL    HW254355   5.591   0.276   1.238  0.5087 -0.3779 -1.3797
17475SOL     OW54356   0.698   5.836   2.331 -0.0018  0.0906  0.3271
17475SOL    HW154357   0.610   5.798   2.334  0.3559 -0.8153 -0.0396
17475SOL    HW254358   0.755   5.765   2.359  0.4583  1.3178  2.6866
17476SOL     OW54359   5.469   7.264   5.982 -0.5762 -0.3927 -0.3352
17476SOL    HW154360   5.542   7.284   6.041  1.1020 -1.4928 -1.8873
17476SOL    HW254361   5.433   7.182   6.016 -1.4051  0.3731  0.6841
17477SOL     OW54362   8.845   1.484   8.467  0.1318 -0.2089  0.1214
17477SOL    HW154363   8.792   1.561   8.446  1.1176 -0.1749 -2.5137
17477SOL    HW254364   8.792   1.410   8.438  1.2394 -0.1962 -2.1190
17478SOL     OW54365   7.362   7.960   8.264  0.8530 -0.4535  0.1318
17478SOL    HW154366   7.316   7.963   8.179  0.5392  0.6490  0.3267
17478SOL    HW254367   7.292   7.967   8.329  0.9093 -3.0035  0.5777
17479SOL     OW54368   8.223   0.282   0.233 -0.0509 -0.2097  0.4269
17479SOL    HW154369   8.303   0.245   0.272  1.3266 -1.5195 -3.2319
17479SOL    HW254370   8.253   0.358   0.183 -1.0009 -0.8157 -1.1401
17480SOL     OW54371   8.658   7.828   6.949 -0.3915 -0.0789  0.3270
17480SOL    HW154372   8.649   7.921   6.927 -0.7344 -0.0230  0.6946
17480SOL    HW254373   8.712   7.828   7.029 -1.1718 -0.1321  0.8696
17481SOL     OW54374   7.215   2.791   7.388  0.6329 -0.0190 -0.4059
17481SOL    HW154375   7.173   2.876   7.378  0.7422  0.1282  0.3900
17481SOL    HW254376   7.162   2.745   7.453  1.6755  0.1612  0.5967
17482SOL     OW54377   3.876   2.653   0.328  0.2743  0.2130 -0.1059
17482SOL    HW154378   3.932   2.728   0.307  0.1769 -0.3329 -2.5388
17482SOL    HW254379   3.798   2.692   0.368  0.8304  1.2840 -0.0368
17483SOL     OW54380   1.342   0.408   3.384  0.6149 -0.4295 -0.0740
17483SOL    HW154381   1.283   0.336   3.365  1.3157 -0.6293 -1.6280
17483SOL    HW254382   1.387   0.382   3.464 -0.6178 -0.7441  0.5432
17484SOL     OW54383   7.525   2.686   8.726  0.2900 -0.4347 -0.1941
17484SOL    HW154384   7.486   2.657   8.643  1.1608 -2.4218  0.0147
17484SOL    HW254385   7.602   2.736   8.700 -0.1807  0.0976 -0.5837
17485SOL     OW54386   8.191   3.956   6.699  0.0974  0.1291 -0.1583
17485SOL    HW154387   8.175   3.910   6.616  1.6940 -0.6703 -0.0787
17485SOL    HW254388   8.268   4.009   6.681  0.4769 -0.0776  0.8160
17486SOL     OW54389   4.310   3.920   6.238 -0.0076  0.4440 -0.4177
17486SOL    HW154390   4.258   3.995   6.210 -0.6903 -0.8864 -3.1136
17486SOL    HW254391   4.340   3.880   6.156 -0.0248 -2.4580  0.8758
17487SOL     OW54392   3.879   2.605   2.995  0.0456 -0.1111 -0.2259
17487SOL    HW154393   3.856   2.512   2.997 -0.2124 -0.0433  0.0502
17487SOL    HW254394   3.876   2.629   2.903  0.6657 -0.5124 -0.3586
17488SOL     OW54395   4.936   3.508   4.520 -0.2291  0.2305 -0.3039
17488SOL    HW154396   4.876   3.448   4.564  1.0430  2.1072  4.5432
17488SOL    HW254397   5.023   3.470   4.534  0.2541  0.7760 -1.6212
17489SOL     OW54398   0.016   2.394   7.382 -1.0000  0.2605 -0.6111
17489SOL    HW154399   0.013   2.425   7.472  2.0887 -1.7770  0.3592
17489SOL    HW254400   0.039   2.471   7.330  2.3086  0.6360  1.1260
17490SOL     OW54401   7.697   4.993   7.555 -0.1244  0.2609 -0.1169
17490SOL    HW154402   7.779   5.038   7.537 -0.3913  0.4843 -0.8013
17490SOL    HW254403   7.723   4.903   7.576  0.2909  0.3395 -0.2866
17491SOL     OW54404   2.967   3.687   8.408  0.0274 -0.2910  0.0077
17491SOL    HW154405   3.049   3.638   8.413 -0.3313 -1.1471 -1.9270
17491SOL    HW254406   2.898   3.620   8.409 -0.6101  0.3494  0.2982
17492SOL     OW54407   5.496   4.753   1.512  0.2351 -0.4253 -0.0950
17492SOL    HW154408   5.449   4.815   1.457  1.3327  1.8433  1.3806
17492SOL    HW254409   5.441   4.741   1.589 -0.1208 -1.5908 -0.5074
17493SOL     OW54410   6.350   2.479   4.364 -0.2203 -0.2402  0.6545
17493SOL    HW154411   6.388   2.422   4.431 -2.0177 -0.2322  1.7349
17493SOL    HW254412   6.348   2.565   4.405  0.1953  0.1171 -0.0543
17494SOL     OW54413   3.766   5.628   3.164  0.5640  0.2399  0.2487
17494SOL    HW154414   3.748   5.685   3.239 -1.1180  0.3355 -0.1853
17494SOL    HW254415   3.739   5.679   3.088  2.0506  0.0594 -0.4364
17495SOL     OW54416   1.263   4.083   6.123 -0.5686  0.2255 -0.5199
17495SOL    HW154417   1.326   4.037   6.069 -0.0515 -0.2254  0.4480
17495SOL    HW254418   1.306   4.165   6.146  0.1316 -0.5416  1.0256
17496SOL     OW54419   3.424   2.536   3.570  0.4115 -0.3707  0.1911
17496SOL    HW154420   3.352   2.583   3.612  0.4479 -0.6671  0.5842
17496SOL    HW254421   3.457   2.476   3.637  1.5199  0.2938  0.2586
17497SOL     OW54422   8.532   8.273   8.167 -0.4378 -0.2898 -0.0333
17497SOL    HW154423   8.451   8.282   8.116  0.1841  1.1810 -0.8220
17497SOL    HW254424   8.526   8.342   8.233  0.2610 -0.0266 -0.2365
17498SOL     OW54425   2.650   2.402   4.117  0.5548 -0.0652 -0.2936
17498SOL    HW154426   2.727   2.397   4.174 -0.9125  0.5120  1.8441
17498SOL    HW254427   2.654   2.491   4.080  0.2554  0.4612  0.8732
17499SOL     OW54428   0.792   2.062   2.052  0.4474  0.1504 -0.1233
17499SOL    HW154429   0.795   2.031   1.961  1.9548 -0.9836  0.2620
17499SOL    HW254430   0.699   2.067   2.073  0.1025 -1.0910 -1.2395
17500SOL     OW54431   5.153   2.819   7.305 -0.1521  0.2141 -0.8433
17500SOL    HW154432   5.204   2.794   7.227 -1.1348 -2.6568 -0.7125
17500SOL    HW254433   5.186   2.761   7.374 -2.5792 -0.7867 -0.4286
17501SOL     OW54434   7.452   0.002   8.418 -0.3961 -0.0176  0.3108
17501SOL    HW154435   7.484   0.073   8.362  0.6983 -1.2386 -0.7023
17501SOL    HW254436   7.451   0.039   8.506  0.2705  1.2156 -0.1774
17502SOL     OW54437   4.845   2.034   4.495 -0.2028 -0.2509  0.2673
17502SOL    HW154438   4.779   2.080   4.546  0.6213 -0.6217  1.7115
17502SOL    HW254439   4.821   1.942   4.502  0.4104 -0.3799  0.7246
17503SOL     OW54440   4.707   3.514   8.607 -0.1076  0.5570  0.3620
17503SOL    HW154441   4.693   3.522   8.702  0.8577 -0.8291  0.6576
17503SOL    HW254442   4.625   3.478   8.574 -0.7711  1.8451  0.5033
17504SOL     OW54443   3.266   0.400   8.341  0.3180  0.1149 -0.6491
17504SOL    HW154444   3.201   0.460   8.377 -0.8050 -1.0037 -0.7289
17504SOL    HW254445   3.347   0.420   8.389  0.2946  2.4051 -1.4567
17505SOL     OW54446   4.663   4.469   6.797  0.3319 -0.3185  0.3677
17505SOL    HW154447   4.718   4.491   6.722 -1.0995  0.8919 -0.3974
17505SOL    HW254448   4.605   4.545   6.808 -1.9088 -1.9071  0.3950
17506SOL     OW54449   1.969   1.231   3.955  0.1140 -0.0224 -0.1145
17506SOL    HW154450   1.954   1.324   3.973  1.1068  0.1081  0.0840
17506SOL    HW254451   1.943   1.221   3.863 -2.0014 -0.0267  0.4326
17507SOL     OW54452   7.841   0.609   3.251  0.3037 -0.4837  0.1683
17507SOL    HW154453   7.896   0.660   3.192 -0.3198  0.7738  0.6361
17507SOL    HW254454   7.785   0.556   3.193 -0.1799  0.6009 -0.3826
17508SOL     OW54455   5.178   7.291   6.401  0.8749  0.6138  0.0800
17508SOL    HW154456   5.161   7.235   6.325  2.3308  0.4324 -0.1445
17508SOL    HW254457   5.142   7.243   6.475  1.1178 -0.1116 -0.2607
17509SOL     OW54458   0.994   8.064   3.392 -0.5581 -0.4334  0.0791
17509SOL    HW154459   1.056   8.106   3.332  0.2580 -1.6500  0.0404
17509SOL    HW254460   1.049   8.030   3.462 -1.1528 -1.7453 -0.0710
17510SOL     OW54461   0.551   2.570   7.980  0.1507 -0.8143  0.2926
17510SOL    HW154462   0.555   2.651   8.031 -1.0541 -1.9135  2.2453
17510SOL    HW254463   0.643   2.549   7.962  0.5939 -0.0338  1.4823
17511SOL     OW54464   4.364   3.983   6.948  0.4882  0.0976 -0.4865
17511SOL    HW154465   4.318   4.035   7.014  2.0323 -0.3554  0.9866
17511SOL    HW254466   4.353   3.892   6.976 -0.0181 -0.2266 -1.6454
17512SOL     OW54467   4.641   5.852   7.664 -0.0076  0.5099 -0.2180
17512SOL    HW154468   4.578   5.884   7.728  0.8079  1.9855 -0.1203
17512SOL    HW254469   4.595   5.861   7.580 -0.5164  0.0191 -0.0001
17513SOL     OW54470   6.534   7.994   6.233  0.1775 -0.5749 -0.1777
17513SOL    HW154471   6.591   8.007   6.308  0.9216 -0.1150 -0.8009
17513SOL    HW254472   6.448   7.975   6.270  0.5910 -0.6025  0.7782
17514SOL     OW54473   4.040   0.183   3.095  0.2337  0.3393 -0.9253
17514SOL    HW154474   4.116   0.165   3.039 -0.3444  0.3631 -1.7454
17514SOL    HW254475   4.077   0.205   3.180  1.1313 -0.0241 -1.2102
17515SOL     OW54476   1.221   2.417   8.136 -0.4200 -0.0589 -0.7155
17515SOL    HW154477   1.278   2.361   8.189  0.2244  0.9762 -0.2911
17515SOL    HW254478   1.193   2.361   8.064  0.2671 -0.9075 -0.3401
17516SOL     OW54479   5.456   7.304   6.439 -0.1965  0.1240  0.1978
17516SOL    HW154480   5.364   7.318   6.418 -0.1407  0.7168  0.3384
17516SOL    HW254481   5.471   7.211   6.420 -1.1945 -0.3503  1.5763
17517SOL     OW54482   1.558   3.930   2.276 -0.3771 -0.3919 -0.4115
17517SOL    HW154483   1.509   3.905   2.198  0.0980  0.3186 -0.9502
17517SOL    HW254484   1.630   3.985   2.243  0.1694 -0.5586  0.4629
17518SOL     OW54485   2.817   7.734   3.223  0.3371  0.0054  0.0155
17518SOL    HW154486   2.852   7.755   3.136 -1.5578 -1.5767 -1.2111
17518SOL    HW254487   2.881   7.771   3.284  2.4620 -0.0504 -2.0379
17519SOL     OW54488   4.181   5.103   3.922 -0.2064  0.2259  0.1730
17519SOL    HW154489   4.135   5.025   3.894 -0.3241  0.7093 -1.0326
17519SOL    HW254490   4.226   5.077   4.002 -0.5212 -0.9687 -0.0251
17520SOL     OW54491   4.017   2.055   8.384 -0.5426  0.7285 -0.3024
17520SOL    HW154492   4.090   2.116   8.396  0.1121  0.3933 -2.2555
17520SOL    HW254493   3.940   2.112   8.379 -0.4836  1.0749  1.9104
17521SOL     OW54494   8.174   1.031   1.458  0.0935 -0.0734  0.0990
17521SOL    HW154495   8.163   1.083   1.379 -2.5451 -1.1905 -0.3617
17521SOL    HW254496   8.237   0.963   1.434 -0.1098  0.0528 -0.7945
17522SOL     OW54497   7.623   6.578   2.021  0.5123 -0.1612 -0.6570
17522SOL    HW154498   7.651   6.636   2.091 -0.9109  0.3472 -0.4671
17522SOL    HW254499   7.541   6.616   1.990  0.0876 -1.4919 -1.2487
17523SOL     OW54500   4.950   1.846   8.382 -0.1967 -0.0798  0.1863
17523SOL    HW154501   4.997   1.905   8.324  0.1977 -0.9911 -0.4452
17523SOL    HW254502   5.018   1.804   8.434 -0.3113 -1.1931 -0.5296
17524SOL     OW54503   5.216   0.518   1.617  0.0608  0.0308  0.1602
17524SOL    HW154504   5.129   0.496   1.650  0.6708 -0.3944  1.5543
17524SOL    HW254505   5.257   0.567   1.689  0.4250  1.6680 -1.0889
17525SOL     OW54506   1.090   3.744   5.616 -0.0891 -0.2254 -0.1398
17525SOL    HW154507   1.059   3.704   5.535 -0.0750  1.2160 -0.8913
17525SOL    HW254508   1.145   3.676   5.657  1.0444 -0.5154 -2.0257
17526SOL     OW54509   1.480   5.998   2.665  0.0682 -0.3546 -0.7621
17526SOL    HW154510   1.421   6.040   2.727 -0.6731  0.5007 -1.9917
17526SOL    HW254511   1.424   5.974   2.591  0.5006 -3.3484 -0.2501
17527SOL     OW54512   6.746   3.398   1.637  0.1828  0.5204  0.2047
17527SOL    HW154513   6.775   3.484   1.606  1.6531 -0.3787 -1.0439
17527SOL    HW254514   6.826   3.354   1.664 -0.4320 -0.8069 -0.0573
17528SOL     OW54515   2.301   2.564   0.602 -0.4427  0.1345 -0.0182
17528SOL    HW154516   2.291   2.652   0.565 -1.3438 -0.0291 -0.1660
17528SOL    HW254517   2.214   2.540   0.632 -0.0188 -0.3490  0.8554
17529SOL     OW54518   5.731   6.880   2.426  0.5535  0.3455 -0.1884
17529SOL    HW154519   5.681   6.940   2.369 -0.0997  1.3009  1.3222
17529SOL    HW254520   5.688   6.795   2.416 -0.9777  0.9921  0.5233
17530SOL     OW54521   0.585   0.495   3.084  0.3782  0.2446 -0.3368
17530SOL    HW154522   0.613   0.561   3.021  1.7634  0.4936  0.4839
17530SOL    HW254523   0.522   0.540   3.140  2.1929  1.3141  0.9661
17531SOL     OW54524   7.999   3.732   2.525 -0.0486 -0.4212  0.0194
17531SOL    HW154525   7.964   3.701   2.609 -1.2238 -1.4414 -0.7957
17531SOL    HW254526   7.947   3.684   2.460  0.1738  1.0756 -1.2942
17532SOL     OW54527   3.745   7.058   6.053  0.1008 -0.2137 -0.3984
17532SOL    HW154528   3.675   6.993   6.042  1.7394 -1.9933 -0.8819
17532SOL    HW254529   3.816   7.009   6.094  1.2717  1.4050 -0.4121
17533SOL     OW54530   3.228   4.582   1.529 -0.3471 -0.2717  0.0111
17533SOL    HW154531   3.187   4.585   1.442 -3.5571 -0.8189  1.3434
17533SOL    HW254532   3.244   4.489   1.545 -1.9130 -0.4522  0.8024
17534SOL     OW54533   1.523   7.819   5.777 -0.2312 -0.2310  0.7418
17534SOL    HW154534   1.434   7.793   5.801 -1.1805  0.9846 -1.2061
17534SOL    HW254535   1.516   7.912   5.753  1.1576 -0.5480 -1.1816
17535SOL     OW54536   6.099   0.276   6.396  0.1528 -0.1154  0.0049
17535SOL    HW154537   6.187   0.302   6.426  1.8790 -3.0460 -2.0849
17535SOL    HW254538   6.074   0.206   6.456 -1.2832  1.2996  1.1560
17536SOL     OW54539   2.048   1.133   0.094  1.2081 -0.8393  0.1235
17536SOL    HW154540   2.133   1.091   0.104  1.2178 -0.9196 -0.2783
17536SOL    HW254541   2.058   1.191   0.018  0.7745 -1.1926 -0.2098
17537SOL     OW54542   5.045   1.625   7.381  0.2282 -0.0462  0.2781
17537SOL    HW154543   5.120   1.625   7.441 -0.8468  0.4976  1.6890
17537SOL    HW254544   5.064   1.554   7.319  0.4524 -2.0376  2.4803
17538SOL     OW54545   7.889   3.727   8.731 -0.3482 -0.1879  0.6668
17538SOL    HW154546   7.799   3.695   8.722 -0.4369  0.5227 -1.6979
17538SOL    HW254547   7.943   3.657   8.696 -0.1974  0.3631 -0.2341
17539SOL     OW54548   6.559   6.778   0.387  0.0302  0.2107 -0.0944
17539SOL    HW154549   6.630   6.763   0.325  1.8214 -1.3251  2.1624
17539SOL    HW254550   6.562   6.873   0.405 -0.2597  0.6031 -1.9499
17540SOL     OW54551   0.713   4.876   1.635  0.2007 -0.0390 -0.0440
17540SOL    HW154552   0.639   4.832   1.594 -0.1417  1.1156 -0.7013
17540SOL    HW254553   0.702   4.861   1.728 -1.2122  0.6261 -0.0848
17541SOL     OW54554   2.097   7.867   0.025 -0.5661  0.3616  0.2692
17541SOL    HW154555   2.031   7.842   0.089 -2.6744  0.7672 -1.6110
17541SOL    HW254556   2.104   7.962   0.032 -0.2113  0.3267  0.4216
17542SOL     OW54557   0.034   6.848   0.893 -0.2093 -0.4308 -0.6927
17542SOL    HW154558  -0.035   6.908   0.922  1.7364  1.3917  0.4920
17542SOL    HW254559   0.080   6.897   0.825  1.0499 -0.8069 -0.1296
17543SOL     OW54560   1.364   0.214   2.374  0.3645  0.0464  0.5945
17543SOL    HW154561   1.304   0.206   2.300  0.1904  1.2894  0.5772
17543SOL    HW254562   1.372   0.309   2.388  1.6772 -0.1167  1.1155
17544SOL     OW54563   3.017   7.608   7.023 -0.1339 -0.1523  0.2359
17544SOL    HW154564   2.940   7.610   7.080  0.4687  0.8469  1.0554
17544SOL    HW254565   3.091   7.595   7.082  0.4547  0.2981 -0.3835
17545SOL     OW54566   1.059   0.840   6.188  0.1974 -0.1446 -0.4067
17545SOL    HW154567   1.018   0.899   6.125 -0.3362 -1.0313 -0.9112
17545SOL    HW254568   1.077   0.894   6.265 -1.2197  0.4313 -0.4666
17546SOL     OW54569   0.144   3.587   2.563  0.2481 -0.1091 -0.5979
17546SOL    HW154570   0.211   3.607   2.628  1.0135 -0.8121 -1.1505
17546SOL    HW254571   0.061   3.607   2.607  0.8122  0.8595  0.0615
17547SOL     OW54572   1.717   7.024   8.531  0.4227 -0.2897 -0.5127
17547SOL    HW154573   1.775   7.017   8.456  1.3303  0.2849  0.1215
17547SOL    HW254574   1.775   7.025   8.607 -0.4212  0.1872  0.1420
17548SOL     OW54575   8.208   6.192   7.292 -0.2653  0.4571  0.0843
17548SOL    HW154576   8.218   6.287   7.284 -1.3003  0.5724 -0.0591
17548SOL    HW254577   8.188   6.178   7.385  1.0338  0.2504  0.3442
17549SOL     OW54578   0.942   5.085   6.131 -0.2576 -0.9391 -0.1535
17549SOL    HW154579   0.935   5.064   6.224 -0.2893 -3.0182 -0.5698
17549SOL    HW254580   0.900   5.011   6.087 -0.5189  0.1486 -1.8226
17550SOL     OW54581   4.516   6.515   8.827  0.0326 -0.3857  0.3391
17550SOL    HW154582   4.530   6.440   8.885 -1.0241 -1.0839 -0.2660
17550SOL    HW254583   4.582   6.506   8.759  1.6036  0.7125  1.6449
17551SOL     OW54584   7.186   7.324   5.774 -0.0217 -0.0323 -0.2911
17551SOL    HW154585   7.148   7.411   5.763  0.5666  0.2800  0.0853
17551SOL    HW254586   7.264   7.339   5.828  1.6861 -0.3814 -2.5337
17552SOL     OW54587   5.310   4.097   5.943  0.0886 -0.3596 -0.0501
17552SOL    HW154588   5.333   4.061   5.857  1.2738  0.9825 -0.3325
17552SOL    HW254589   5.364   4.048   6.005  2.0208  1.1039 -0.4717
17553SOL     OW54590   7.867   3.874   4.388  0.4130 -0.5864  0.0743
17553SOL    HW154591   7.837   3.791   4.425  0.6345 -0.2322  1.0855
17553SOL    HW254592   7.856   3.937   4.459 -0.8718  0.5187 -1.0338
17554SOL     OW54593   8.363   2.694   8.647 -0.4046 -0.3681 -0.4028
17554SOL    HW154594   8.363   2.705   8.552 -1.7124 -0.5034 -0.4332
17554SOL    HW254595   8.451   2.663   8.667  0.3082  0.8924 -1.4168
17555SOL     OW54596   7.100   6.260   8.578 -0.1354 -0.1486 -0.0695
17555SOL    HW154597   7.047   6.337   8.558  0.1192  0.6522  2.0731
17555SOL    HW254598   7.143   6.281   8.660  2.0390 -1.5565 -0.7715
17556SOL     OW54599   1.512   3.221   7.530 -0.2954  0.0273  0.1362
17556SOL    HW154600   1.538   3.281   7.460 -0.4979  0.3821  0.3679
17556SOL    HW254601   1.434   3.260   7.569 -0.9641 -0.8308 -0.2883
17557SOL     OW54602   6.573   3.716   0.138  0.5382  0.3117  0.2932
17557SOL    HW154603   6.572   3.734   0.044 -0.6546  0.8245  0.3807
17557SOL    HW254604   6.647   3.765   0.172  0.0542  1.3868 -0.1611
17558SOL     OW54605   1.460   5.140   8.781 -0.3184 -0.7404  0.8252
17558SOL    HW154606   1.550   5.125   8.752 -0.1259 -1.7259  1.8729
17558SOL    HW254607   1.409   5.071   8.740 -0.9487  0.8202 -1.1736
17559SOL     OW54608   7.014   8.707   0.896  0.0035  0.1378 -0.4033
17559SOL    HW154609   6.925   8.672   0.898 -0.1169  0.4690  1.1147
17559SOL    HW254610   7.049   8.689   0.983  0.3209  2.7383  0.0960
17560SOL     OW54611   3.023   1.192   6.909  0.2421  0.0368 -0.6230
17560SOL    HW154612   2.976   1.191   6.825 -1.8445  1.2278  0.4741
17560SOL    HW254613   3.068   1.277   6.910  1.2804 -0.4831 -1.0161
17561SOL     OW54614   2.665   0.708   3.198  0.2035 -0.3529  0.0596
17561SOL    HW154615   2.626   0.637   3.248  0.8957 -0.3902  0.5691
17561SOL    HW254616   2.736   0.741   3.254 -0.2518  0.8905 -0.0558
17562SOL     OW54617   4.454   7.905   4.002 -0.0614  0.1830  0.5662
17562SOL    HW154618   4.429   7.862   4.084 -1.3838  1.7109  1.0245
17562SOL    HW254619   4.399   7.863   3.935  1.2096 -1.2489  0.3779
17563SOL     OW54620   4.356   0.843   2.651 -0.3634  0.4102  0.3229
17563SOL    HW154621   4.443   0.872   2.679 -0.3897  0.5874  0.2290
17563SOL    HW254622   4.373   0.767   2.595 -0.4155 -1.0563  2.2066
17564SOL     OW54623   8.502   2.988   0.777  0.1422  0.6309 -0.4994
17564SOL    HW154624   8.519   2.956   0.689  1.5874 -1.9580  0.6151
17564SOL    HW254625   8.555   3.068   0.784  1.1963  0.0465 -1.5005
17565SOL     OW54626   3.392   6.329   7.574 -0.5560  0.2500 -0.2125
17565SOL    HW154627   3.346   6.248   7.551 -2.4060  0.8223  1.2283
17565SOL    HW254628   3.410   6.321   7.667  1.7327  0.3720 -0.5920
17566SOL     OW54629   6.778   6.940   4.288 -0.0328  0.0647  0.2138
17566SOL    HW154630   6.799   6.948   4.195  1.4797  1.9011  0.6560
17566SOL    HW254631   6.734   7.022   4.310 -0.8235 -0.5583  1.0363
17567SOL     OW54632   0.514   0.891   6.386 -0.6152  0.4920 -0.7642
17567SOL    HW154633   0.482   0.948   6.456  2.0741 -0.4162  1.3996
17567SOL    HW254634   0.557   0.951   6.325  0.0180  1.0247  0.1821
17568SOL     OW54635   7.116   8.208   3.209 -0.1427 -0.1564  0.2106
17568SOL    HW154636   7.103   8.210   3.114  0.2968  0.0787  0.1531
17568SOL    HW254637   7.165   8.127   3.224  1.9930  1.0245 -0.0612
17569SOL     OW54638   1.308   4.651   5.881 -0.2317  0.2659 -0.3314
17569SOL    HW154639   1.310   4.597   5.802  1.9578 -0.3941  0.1228
17569SOL    HW254640   1.229   4.623   5.927 -0.4950 -0.7268 -1.3462
17570SOL     OW54641   8.465   2.974   8.534 -0.2553 -0.0379  0.4831
17570SOL    HW154642   8.512   2.997   8.615  0.6308  1.2002 -0.3369
17570SOL    HW254643   8.376   3.004   8.548 -0.1492  0.0009  1.0796
17571SOL     OW54644   0.066   8.738   3.922 -0.3346 -0.2310  0.2652
17571SOL    HW154645  -0.000   8.670   3.936  0.5926 -0.8565  1.9738
17571SOL    HW254646   0.145   8.689   3.898 -0.5886  0.5451 -2.4326
17572SOL     OW54647   0.704   6.148   6.658  0.6790 -0.1413  0.5427
17572SOL    HW154648   0.657   6.229   6.640  0.7660 -0.1390  0.3248
17572SOL    HW254649   0.645   6.098   6.714  0.9976  0.4574  1.4284
17573SOL     OW54650   6.039   1.827   2.091 -0.4679 -0.6413 -0.0652
17573SOL    HW154651   6.111   1.802   2.033 -0.6621 -0.4648 -0.3810
17573SOL    HW254652   5.976   1.870   2.034  0.3164  1.5238  0.6052
17574SOL     OW54653   3.240   8.380   7.529  0.1001 -0.6167 -0.6568
17574SOL    HW154654   3.261   8.357   7.438  0.9559  0.4906 -0.7686
17574SOL    HW254655   3.217   8.473   7.525  1.7405 -0.1081  0.4598
17575SOL     OW54656   5.867   8.312   6.552  0.5603  0.2360 -0.5288
17575SOL    HW154657   5.813   8.323   6.473  1.0783  0.1401 -0.9026
17575SOL    HW254658   5.946   8.268   6.521  1.1197  0.9177 -0.0884
17576SOL     OW54659   6.254   5.135   0.776 -0.0683  0.1488 -0.6904
17576SOL    HW154660   6.298   5.208   0.732 -1.3870  1.0039 -0.6743
17576SOL    HW254661   6.237   5.168   0.864 -1.4943  0.1953 -0.9592
17577SOL     OW54662   7.292   2.266   4.766  0.4696  0.0667 -0.0175
17577SOL    HW154663   7.362   2.315   4.723 -0.2916 -0.3223 -1.7632
17577SOL    HW254664   7.323   2.175   4.764  0.1192 -0.0451 -0.3862
17578SOL     OW54665   8.152   8.386   7.124 -0.4820 -0.1137 -0.0232
17578SOL    HW154666   8.085   8.353   7.063  0.2860 -0.2279 -0.8181
17578SOL    HW254667   8.234   8.381   7.075 -0.0386  1.0263  0.5631
17579SOL     OW54668   3.468   6.962   5.361  0.4942 -0.1627  0.4859
17579SOL    HW154669   3.501   7.047   5.333  0.5100 -0.5963 -0.8994
17579SOL    HW254670   3.520   6.899   5.313 -1.0323 -0.8990 -0.2868
17580SOL     OW54671   5.151   0.691   5.354 -0.4017  0.0741 -0.0236
17580SOL    HW154672   5.097   0.698   5.276 -0.7369  0.9360  0.2786
17580SOL    HW254673   5.188   0.778   5.366  0.7229 -0.3937  0.0197
17581SOL     OW54674   3.138   6.366   5.541 -0.5686  0.2376 -0.4539
17581SOL    HW154675   3.155   6.347   5.634 -0.5687  0.5549 -0.3853
17581SOL    HW254676   3.044   6.383   5.537 -0.9534 -1.7588 -0.8802
17582SOL     OW54677   4.245   1.441   2.324  0.1093  0.0119  0.3837
17582SOL    HW154678   4.299   1.368   2.294 -0.1009  0.3300 -0.8445
17582SOL    HW254679   4.170   1.399   2.367  0.7312 -0.4544  1.0201
17583SOL     OW54680   2.216   0.705   3.677 -0.8491 -0.0710  0.1003
17583SOL    HW154681   2.236   0.667   3.762  0.7797  1.5386  0.4920
17583SOL    HW254682   2.140   0.762   3.693 -0.2695  0.5783  0.6071
17584SOL     OW54683   5.708   2.779   5.574 -0.0579 -0.0003 -0.4646
17584SOL    HW154684   5.633   2.822   5.533 -0.9269 -0.6264  0.4255
17584SOL    HW254685   5.778   2.786   5.509 -0.2622  2.3896 -0.5404
17585SOL     OW54686   1.482   1.707   5.938 -0.2362  0.3534  1.1619
17585SOL    HW154687   1.513   1.658   6.014  0.7404 -2.0535 -0.6435
17585SOL    HW254688   1.533   1.788   5.940  0.9844 -0.3883  2.1857
17586SOL     OW54689   4.269   6.408   5.377  0.1075  0.0657 -0.3194
17586SOL    HW154690   4.356   6.442   5.399 -0.4658  2.3073 -1.2223
17586SOL    HW254691   4.287   6.336   5.316  1.3958 -2.0057  2.2550
17587SOL     OW54692   4.703   6.319   5.441 -0.2518 -0.6198 -0.0499
17587SOL    HW154693   4.637   6.254   5.468 -0.8425 -0.5419 -1.2213
17587SOL    HW254694   4.736   6.286   5.358 -0.3409  0.4130 -0.5143
17588SOL     OW54695   2.533   1.594   6.119 -0.1585  0.0116  0.3355
17588SOL    HW154696   2.535   1.556   6.206 -0.4890  1.2325  0.9085
17588SOL    HW254697   2.542   1.520   6.060  0.3714 -0.8074  1.4062
17589SOL     OW54698   3.196   4.533   0.918 -0.7173 -0.0182 -0.3683
17589SOL    HW154699   3.210   4.499   1.006 -0.8046  1.0123  0.0662
17589SOL    HW254700   3.248   4.476   0.861  0.6095  0.2416  0.5293
17590SOL     OW54701   2.684   8.388   2.855 -0.1503 -0.1637 -0.5977
17590SOL    HW154702   2.659   8.472   2.818  1.2589  0.5656  0.0200
17590SOL    HW254703   2.608   8.360   2.906  0.1805  1.9163  1.1786
17591SOL     OW54704   6.331   0.838   0.916  0.0844  0.4030  0.1787
17591SOL    HW154705   6.297   0.928   0.917 -0.3260  0.2517 -0.0513
17591SOL    HW254706   6.373   0.829   0.830 -0.4851  0.1527 -0.0792
17592SOL     OW54707   3.219   5.161   4.953  0.3499  0.8441  0.6825
17592SOL    HW154708   3.248   5.147   4.863 -0.4839 -2.8413  0.8594
17592SOL    HW254709   3.300   5.170   5.002  0.8346  1.9819 -0.2695
17593SOL     OW54710   0.093   6.214   6.310 -0.4779 -0.9517  0.5097
17593SOL    HW154711   0.054   6.270   6.376  0.5875  2.4974 -1.5384
17593SOL    HW254712   0.019   6.181   6.259 -1.0957 -0.9554  1.3860
17594SOL     OW54713   1.119   4.239   8.871 -0.1345 -0.0774 -0.0287
17594SOL    HW154714   1.157   4.268   8.788  1.7946 -0.5236  0.6240
17594SOL    HW254715   1.087   4.151   8.853  0.1876 -0.1369 -0.3342
17595SOL     OW54716   7.455   0.977   1.480  0.8228 -0.4071 -0.1794
17595SOL    HW154717   7.441   0.883   1.466 -2.4409 -0.0043 -0.2975
17595SOL    HW254718   7.472   1.012   1.392  0.1327 -0.6452 -0.4138
17596SOL     OW54719   8.227   4.323   0.521  0.3926  0.1295 -0.0953
17596SOL    HW154720   8.289   4.276   0.465 -1.7830 -1.2823 -1.4411
17596SOL    HW254721   8.255   4.302   0.610  1.9833 -0.2389 -0.6373
17597SOL     OW54722   6.399   0.736   5.563 -0.1444  0.3928 -0.2698
17597SOL    HW154723   6.401   0.770   5.473  0.7231  0.6015 -0.1866
17597SOL    HW254724   6.312   0.758   5.595 -0.9447 -0.8497 -1.4951
17598SOL     OW54725   5.465   5.149   7.020  0.1992  0.1010  0.8177
17598SOL    HW154726   5.406   5.114   6.953  0.4846  0.3414  0.4368
17598SOL    HW254727   5.407   5.198   7.079 -0.2577 -1.3014  1.5748
17599SOL     OW54728   0.601   5.569   0.455 -0.2589  0.6165  0.2206
17599SOL    HW154729   0.602   5.542   0.363  1.4277 -0.5367  0.5229
17599SOL    HW254730   0.567   5.493   0.502  0.1457  0.7053  0.6673
17600SOL     OW54731   1.681   1.033   7.871 -0.0476 -0.2164  0.0142
17600SOL    HW154732   1.699   1.127   7.879  0.4915  0.0649 -3.2552
17600SOL    HW254733   1.659   1.006   7.960  0.9591  2.7401  1.3076
17601SOL     OW54734   5.953   0.803   4.958 -0.1035  0.2403 -0.2638
17601SOL    HW154735   5.875   0.854   4.979 -0.1588  0.0634 -0.0400
17601SOL    HW254736   5.929   0.712   4.976  0.1129  0.1720 -0.3107
17602SOL     OW54737   0.329   7.485   8.297  0.0685 -0.2657 -0.8825
17602SOL    HW154738   0.393   7.475   8.227  1.3554  0.0672  0.2148
17602SOL    HW254739   0.381   7.485   8.377 -1.3572 -0.4899  0.0709
17603SOL     OW54740   6.175   5.082   5.713  0.4702 -0.3361 -0.5334
17603SOL    HW154741   6.256   5.031   5.706 -0.2593 -1.7230  0.5560
17603SOL    HW254742   6.108   5.024   5.676 -0.2451  0.2328 -0.1388
17604SOL     OW54743   3.742   5.400   6.283 -0.1340 -0.5320  0.5859
17604SOL    HW154744   3.773   5.472   6.227 -0.4860 -0.0808  0.9606
17604SOL    HW254745   3.800   5.327   6.262 -1.3111 -0.8988 -1.6215
17605SOL     OW54746   1.751   4.087   2.150 -0.7784 -0.5848  0.4139
17605SOL    HW154747   1.772   4.052   2.064  0.5927  0.0481  0.4609
17605SOL    HW254748   1.836   4.097   2.193 -1.0708  2.4238  0.5340
17606SOL     OW54749   2.434   0.612   8.444 -0.2419 -0.1655  0.3960
17606SOL    HW154750   2.375   0.606   8.519  2.2532  0.1194  2.4986
17606SOL    HW254751   2.473   0.699   8.450  0.0272 -0.1349 -1.2612
17607SOL     OW54752   7.420   3.305   3.180 -0.5730 -0.2160 -0.2972
17607SOL    HW154753   7.438   3.289   3.272  1.6915 -0.4694 -0.7225
17607SOL    HW254754   7.336   3.261   3.163 -0.3766 -1.2821  1.3169
17608SOL     OW54755   8.093   1.524   1.075  0.1091 -0.0379 -0.6491
17608SOL    HW154756   8.053   1.451   1.029  1.8052 -0.0877 -2.1830
17608SOL    HW254757   8.105   1.493   1.165 -1.2025 -0.7944 -0.7144
17609SOL     OW54758   8.784   2.981   3.293 -0.2447 -0.3226  0.3013
17609SOL    HW154759   8.756   3.033   3.369  0.2571 -0.6328  0.7102
17609SOL    HW254760   8.854   3.033   3.253  0.3937 -0.7666  0.8267
17610SOL     OW54761   1.182   2.150   3.730 -0.1342 -0.5125  0.2105
17610SOL    HW154762   1.089   2.160   3.710 -0.2660 -0.8089  0.6722
17610SOL    HW254763   1.219   2.107   3.652  0.0543  1.5794 -0.9357
17611SOL     OW54764   1.044   1.302   7.535  0.3995 -0.2671  0.0588
17611SOL    HW154765   1.025   1.209   7.518 -1.0750 -0.0404  0.3197
17611SOL    HW254766   1.103   1.301   7.610  0.4083 -1.0032  0.0525
17612SOL     OW54767   4.323   2.805   2.529  0.5153 -0.0270  0.2028
17612SOL    HW154768   4.249   2.749   2.553  0.1119  0.3883 -0.0379
17612SOL    HW254769   4.393   2.780   2.589 -0.3724  0.8092  1.6695
17613SOL     OW54770   4.991   3.434   1.061 -0.1813  0.2198  0.5273
17613SOL    HW154771   5.050   3.509   1.064  1.5679 -1.0722 -0.0407
17613SOL    HW254772   5.021   3.376   1.131 -2.2259  0.4879  1.7101
17614SOL     OW54773   2.414   4.148   2.141  0.3190 -0.2956 -0.6264
17614SOL    HW154774   2.346   4.087   2.113  0.0709 -1.7642  2.6764
17614SOL    HW254775   2.388   4.232   2.103 -1.7885 -1.3631 -1.7089
17615SOL     OW54776   3.557   8.136   6.239  0.3595 -0.3526 -0.5305
17615SOL    HW154777   3.568   8.216   6.187  0.4214  1.3758  1.9420
17615SOL    HW254778   3.575   8.065   6.177 -1.7408  1.3786 -3.3957
17616SOL     OW54779   4.249   7.764   7.537 -0.2711  0.1573 -0.0257
17616SOL    HW154780   4.286   7.757   7.625  1.0987  1.4527 -0.4516
17616SOL    HW254781   4.210   7.678   7.520  0.7245 -0.5889  1.2709
17617SOL     OW54782   0.591   7.357   8.785 -0.0443 -0.2269 -0.1450
17617SOL    HW154783   0.681   7.375   8.758  0.0659  0.1787  0.4648
17617SOL    HW254784   0.576   7.416   8.859 -0.3946 -1.1882  0.5707
17618SOL     OW54785   0.202   5.044   4.513  0.2237 -0.5975  0.2003
17618SOL    HW154786   0.166   4.955   4.508 -0.5935 -0.1945 -1.7004
17618SOL    HW254787   0.178   5.085   4.430  0.3493  1.5070  1.1395
17619SOL     OW54788   3.626   2.759   3.476  0.9414 -0.1712 -0.2275
17619SOL    HW154789   3.579   2.683   3.512 -2.6634  0.9756 -2.0704
17619SOL    HW254790   3.646   2.735   3.386 -1.8775  1.5323 -1.4380
17620SOL     OW54791   5.410   2.510   3.533 -0.0930 -0.0875  0.5063
17620SOL    HW154792   5.369   2.558   3.605 -3.0689  0.3187 -1.2491
17620SOL    HW254793   5.406   2.570   3.459 -1.8086 -2.1294 -1.2026
17621SOL     OW54794   4.955   4.847   2.358  0.1827 -0.4404  0.3975
17621SOL    HW154795   4.935   4.909   2.289  1.6770 -0.3690 -0.0205
17621SOL    HW254796   4.995   4.773   2.313 -0.4411 -1.1742  1.0161
17622SOL     OW54797   6.624   8.823   5.233  0.4433  0.2082  0.1030
17622SOL    HW154798   6.692   8.891   5.242  0.9104 -0.0330 -1.3133
17622SOL    HW254799   6.591   8.836   5.144 -0.6014 -0.3943  0.4022
17623SOL     OW54800   2.741   2.962   6.069  0.0529 -0.2510  0.2663
17623SOL    HW154801   2.733   2.941   5.976 -0.9408 -0.7708  0.4545
17623SOL    HW254802   2.758   2.877   6.111 -0.7468 -0.2104  0.6885
17624SOL     OW54803   2.703   1.072   5.445 -0.2698 -0.9935 -0.0888
17624SOL    HW154804   2.743   1.001   5.495  0.7278 -1.7506 -1.8347
17624SOL    HW254805   2.617   1.040   5.421 -1.5279  0.1086  2.5701
17625SOL     OW54806   4.620   1.685   3.931  0.2969  0.1761 -0.1329
17625SOL    HW154807   4.577   1.757   3.978  0.9597 -0.3934  1.4147
17625SOL    HW254808   4.711   1.690   3.959  0.4167 -1.0625 -0.2739
17626SOL     OW54809   7.950   4.332   3.046  0.0168 -0.0231 -0.6141
17626SOL    HW154810   7.872   4.338   2.991  0.5350 -0.0489 -1.3582
17626SOL    HW254811   7.924   4.274   3.117  0.5093 -3.3513 -2.9228
17627SOL     OW54812   4.450   4.566   0.556 -0.1241  0.2444  0.8663
17627SOL    HW154813   4.469   4.476   0.586  0.1759  0.1497  0.3920
17627SOL    HW254814   4.444   4.559   0.461  1.0117  0.9303  0.7266
17628SOL     OW54815   2.004   5.127   8.482  0.4558 -0.3790 -0.2095
17628SOL    HW154816   2.015   5.211   8.526  0.0650 -0.3648 -0.1293
17628SOL    HW254817   1.990   5.064   8.553 -1.0657 -0.2129 -0.3248
17629SOL     OW54818   2.906   7.499   4.498 -0.1179  0.1639 -0.0304
17629SOL    HW154819   2.943   7.576   4.456  0.8351 -0.2855 -0.0256
17629SOL    HW254820   2.811   7.507   4.483  0.1179  0.4316 -1.5419
17630SOL     OW54821   4.890   5.187   3.946 -0.3082  0.0899  0.6367
17630SOL    HW154822   4.845   5.162   4.027 -0.2176  0.4488  0.8026
17630SOL    HW254823   4.964   5.240   3.977 -0.7077  0.8740  0.2765
17631SOL     OW54824   1.078   4.254   8.426 -0.3566  0.2648  0.0099
17631SOL    HW154825   1.109   4.293   8.344  0.3838  3.0000  1.4533
17631SOL    HW254826   0.983   4.265   8.423 -0.4507 -0.6520 -0.9106
17632SOL     OW54827   5.647   5.160   1.610 -0.3317  0.7184  0.0180
17632SOL    HW154828   5.734   5.120   1.611  0.6202  2.6255 -1.1052
17632SOL    HW254829   5.603   5.119   1.535 -0.7615 -0.8665  1.0858
17633SOL     OW54830   0.163   1.087   1.442 -0.2970  1.1307  0.8459
17633SOL    HW154831   0.096   1.155   1.448  0.1940  1.7255 -0.0551
17633SOL    HW254832   0.147   1.030   1.517 -0.0719  2.8305  2.2460
17634SOL     OW54833   0.429   2.706   7.030 -0.5350  0.4137  0.2001
17634SOL    HW154834   0.464   2.764   6.964  1.9753 -0.5614  0.5618
17634SOL    HW254835   0.468   2.736   7.112 -1.1422 -0.2831  0.7638
17635SOL     OW54836   7.099   2.625   3.785 -0.3293  0.4535  0.0884
17635SOL    HW154837   7.052   2.546   3.813  0.0588  0.2104  0.0639
17635SOL    HW254838   7.065   2.643   3.697  0.4454 -0.3900 -0.4011
17636SOL     OW54839   4.360   6.367   4.713  0.4541 -0.2989  0.1056
17636SOL    HW154840   4.328   6.326   4.793  0.0487  0.2685  0.2428
17636SOL    HW254841   4.369   6.295   4.651 -0.0715 -0.6167  0.3902
17637SOL     OW54842   0.260   6.090   8.796  0.1260  0.0095 -0.1578
17637SOL    HW154843   0.252   6.114   8.889 -0.0658 -2.5722  0.5648
17637SOL    HW254844   0.345   6.127   8.770  0.3834  0.4235  1.1741
17638SOL     OW54845   5.899   2.596   8.593  0.2108 -0.4667  0.1754
17638SOL    HW154846   5.915   2.688   8.575 -2.6986  0.2558  0.7965
17638SOL    HW254847   5.821   2.575   8.542 -2.0997 -1.1856  3.6971
17639SOL     OW54848   5.309   5.091   8.846  0.0207 -0.1842  0.1553
17639SOL    HW154849   5.290   5.041   8.767  1.0546  2.3382 -1.8358
17639SOL    HW254850   5.268   5.176   8.831 -0.3947  0.1366  2.7086
17640SOL     OW54851   2.238   6.837   8.477  0.0697  0.0463 -0.4867
17640SOL    HW154852   2.305   6.803   8.537  0.9889  0.3495 -1.3071
17640SOL    HW254853   2.212   6.921   8.514  0.0857 -0.1122 -0.1170
17641SOL     OW54854   0.573   3.937   8.060  0.2273  0.0440  0.1355
17641SOL    HW154855   0.564   4.025   8.024  0.4638 -0.0630 -0.1942
17641SOL    HW254856   0.485   3.899   8.053  0.8522 -1.1207 -3.3712
17642SOL     OW54857   0.334   1.288   6.161  0.2247  0.3059 -0.2024
17642SOL    HW154858   0.295   1.283   6.073 -0.3810 -0.8034  0.1161
17642SOL    HW254859   0.425   1.262   6.148 -0.0779 -0.6798 -0.3746
17643SOL     OW54860   8.820   3.396   3.175  0.4722 -0.4919  0.2054
17643SOL    HW154861   8.856   3.317   3.134  0.7343  0.0476 -0.6353
17643SOL    HW254862   8.726   3.381   3.177  0.1700  0.3289 -2.6473
17644SOL     OW54863   1.923   6.059   2.514 -0.5794  0.7334 -0.1776
17644SOL    HW154864   1.908   5.966   2.495  0.0873  0.3822  0.8955
17644SOL    HW254865   1.930   6.063   2.610  2.7284  1.3421 -0.3354
17645SOL     OW54866   0.812   5.847   4.726  0.2744  0.0213 -0.3962
17645SOL    HW154867   0.786   5.825   4.636 -0.2743 -1.1286  0.0283
17645SOL    HW254868   0.808   5.764   4.773  0.4182  0.6398  0.7333
17646SOL     OW54869   6.941   5.440   6.023 -0.1727  0.2130 -0.1305
17646SOL    HW154870   6.961   5.446   6.116 -0.1049 -1.7138  0.0268
17646SOL    HW254871   6.855   5.481   6.014 -0.3940  0.0019  0.8795
17647SOL     OW54872   0.165   6.413   5.087 -0.3065  0.1073 -0.2671
17647SOL    HW154873   0.117   6.442   5.009  0.0213 -0.0302 -0.5205
17647SOL    HW254874   0.252   6.449   5.077 -0.1393 -0.2630 -0.1748
17648SOL     OW54875   6.291   7.931   8.003 -0.0602  0.0630  0.3478
17648SOL    HW154876   6.296   7.853   8.059 -0.9204  0.6398  1.2754
17648SOL    HW254877   6.303   8.005   8.064  1.7629  0.6609 -0.6500
17649SOL     OW54878   4.241   6.693   8.298  0.1816  0.1406  0.2292
17649SOL    HW154879   4.252   6.776   8.345  0.3647  0.8285 -0.9732
17649SOL    HW254880   4.164   6.653   8.337  0.3058  0.7060  1.0763
17650SOL     OW54881   3.101   6.018   6.164  0.1563 -0.1431 -0.2938
17650SOL    HW154882   3.060   5.942   6.123  1.8455 -1.9521  1.1883
17650SOL    HW254883   3.045   6.036   6.240 -0.0974 -0.0600 -0.4974
17651SOL     OW54884   6.961   6.491   3.524  0.5061 -0.1210  0.0025
17651SOL    HW154885   7.017   6.468   3.450  0.8020  0.6041 -0.0074
17651SOL    HW254886   6.956   6.587   3.521 -1.5678 -0.1969 -0.6101
17652SOL     OW54887   3.099   8.057   8.517  0.1744 -0.6309 -0.6071
17652SOL    HW154888   3.035   7.991   8.491  1.0983 -2.0564  0.5311
17652SOL    HW254889   3.057   8.104   8.589 -0.4118 -0.0853 -1.2904
17653SOL     OW54890   7.418   6.335   4.339 -0.3927  0.1342 -0.3846
17653SOL    HW154891   7.326   6.351   4.362 -1.0624 -2.4890 -0.9248
17653SOL    HW254892   7.467   6.363   4.417 -1.3749  3.4260 -0.8099
17654SOL     OW54893   7.345   1.959   3.252 -0.5438  0.4750 -0.4777
17654SOL    HW154894   7.250   1.953   3.267 -0.5374 -1.0759 -0.8917
17654SOL    HW254895   7.364   2.053   3.255 -1.9797  0.7687  0.2942
17655SOL     OW54896   6.135   8.259   6.952  0.3844  0.0818  0.3064
17655SOL    HW154897   6.207   8.315   6.924 -0.0906  0.0631 -0.9925
17655SOL    HW254898   6.060   8.289   6.903 -0.2146 -0.7441  0.6837
17656SOL     OW54899   1.592   6.903   3.130 -0.0205  0.0561  0.0376
17656SOL    HW154900   1.639   6.975   3.089  0.3308  1.0684  2.0680
17656SOL    HW254901   1.603   6.829   3.070  0.3147  1.4562 -1.6996
17657SOL     OW54902   4.056   3.312   2.702 -0.3419 -0.3383 -0.0226
17657SOL    HW154903   4.058   3.406   2.720 -1.4281 -0.4162  0.5875
17657SOL    HW254904   3.988   3.303   2.634 -2.8452 -1.0096  2.3776
17658SOL     OW54905   5.727   0.672   7.477  0.0608  0.8793 -0.3870
17658SOL    HW154906   5.796   0.635   7.532 -0.2420  0.7419 -0.0888
17658SOL    HW254907   5.660   0.699   7.540 -1.0489 -0.8191 -0.7496
17659SOL     OW54908   6.362   8.710   3.204  0.3036  0.1150 -0.0380
17659SOL    HW154909   6.306   8.761   3.262 -0.5565  0.4010 -1.1065
17659SOL    HW254910   6.438   8.687   3.259  0.5307  2.1830  0.5935
17660SOL     OW54911   6.385   2.808   8.560 -0.6056 -0.5663 -0.0065
17660SOL    HW154912   6.391   2.747   8.634  2.0841  0.4825  0.7520
17660SOL    HW254913   6.313   2.867   8.583 -0.6382 -1.0365  1.1608
17661SOL     OW54914   5.052   2.387   4.008 -0.5059  0.3837 -0.1543
17661SOL    HW154915   5.011   2.358   4.089  0.4610 -0.9023 -0.0914
17661SOL    HW254916   5.001   2.345   3.939  0.9922 -1.7525 -0.0589
17662SOL     OW54917   5.788   0.318   8.797  0.6074  0.0761  0.2002
17662SOL    HW154918   5.734   0.369   8.737  0.6629  0.0411  0.1209
17662SOL    HW254919   5.756   0.340   8.884  0.8080  0.4557  0.1813
17663SOL     OW54920   5.613   8.479   7.371  0.0899  0.5862  0.2768
17663SOL    HW154921   5.657   8.439   7.296  0.4456  0.5564  0.5050
17663SOL    HW254922   5.619   8.573   7.355  1.0829  0.6143  0.7945
17664SOL     OW54923   2.606   1.633   3.406 -0.2893 -0.0070  0.1920
17664SOL    HW154924   2.520   1.596   3.427 -0.6279 -0.0917 -1.2366
17664SOL    HW254925   2.665   1.557   3.406 -0.2601  0.0092  0.8875
17665SOL     OW54926   1.017   1.369   3.287  0.1150 -0.0533 -0.0579
17665SOL    HW154927   0.981   1.452   3.257 -1.1973 -1.4524 -2.7026
17665SOL    HW254928   0.952   1.337   3.350 -1.2325 -0.6211 -1.6625
17666SOL     OW54929   2.606   5.843   0.738 -0.7588  0.6473 -0.1000
17666SOL    HW154930   2.691   5.839   0.781 -0.4892 -0.5575 -0.7068
17666SOL    HW254931   2.544   5.859   0.810 -0.0179  1.8151  0.3124
17667SOL     OW54932   0.525   1.797   6.407 -0.2832 -0.3754 -0.2530
17667SOL    HW154933   0.465   1.792   6.482 -0.3507 -0.0681 -0.2865
17667SOL    HW254934   0.467   1.807   6.331 -0.1679  0.4729 -0.2328
17668SOL     OW54935   4.383   0.486   7.991 -0.1606 -0.5004 -0.4515
17668SOL    HW154936   4.372   0.392   7.977  0.4266 -0.7167  0.4261
17668SOL    HW254937   4.422   0.493   8.078  3.1152  0.3686 -1.8166
17669SOL     OW54938   1.894   6.725   2.762  0.3640 -0.5691  0.0784
17669SOL    HW154939   1.827   6.776   2.716 -0.2131 -1.5059 -0.1362
17669SOL    HW254940   1.908   6.648   2.708  1.5039 -0.4753  0.2127
17670SOL     OW54941   2.973   4.980   0.471 -0.4926  0.0577  0.3487
17670SOL    HW154942   3.002   4.994   0.561 -1.2396 -0.1795  0.6354
17670SOL    HW254943   2.938   5.065   0.444 -0.7721 -0.0130  0.4798
17671SOL     OW54944   3.728   6.133   2.454 -0.2051  0.8855 -0.2975
17671SOL    HW154945   3.806   6.168   2.412 -0.6086  1.3757 -0.6514
17671SOL    HW254946   3.697   6.065   2.395 -0.8917  1.7180 -0.9179
17672SOL     OW54947   3.624   3.889   4.644  0.5402 -0.6669 -0.5408
17672SOL    HW154948   3.585   3.867   4.560  0.7084  0.3259 -0.8913
17672SOL    HW254949   3.552   3.924   4.696  0.9256  1.2566 -1.2209
17673SOL     OW54950   5.543   1.619   6.157 -0.1145  0.0611 -0.2620
17673SOL    HW154951   5.527   1.690   6.095  0.0100  0.1582 -0.1829
17673SOL    HW254952   5.490   1.546   6.124 -0.6279  0.3400 -0.0720
17674SOL     OW54953   6.769   3.116   7.267  0.2401  0.0772 -0.0198
17674SOL    HW154954   6.708   3.142   7.336  1.2714  0.9114  0.6128
17674SOL    HW254955   6.764   3.187   7.203 -1.1680 -0.9839 -1.1469
17675SOL     OW54956   4.692   5.579   7.145 -0.1412  0.3797  0.5782
17675SOL    HW154957   4.679   5.606   7.236  2.8205 -0.7649  1.4833
17675SOL    HW254958   4.730   5.656   7.102 -2.4239  1.2397 -0.0394
17676SOL     OW54959   7.828   1.998   5.101  0.9569 -0.3449  0.0352
17676SOL    HW154960   7.839   2.050   5.021 -0.6830  0.2567  0.1479
17676SOL    HW254961   7.749   2.035   5.142  0.0211 -2.6045  0.3895
17677SOL     OW54962   7.423   0.133   3.037  0.2350  0.7566 -0.1710
17677SOL    HW154963   7.349   0.153   3.095  0.7168 -0.9603  1.0977
17677SOL    HW254964   7.421   0.204   2.972 -1.8961  1.3120  0.4031
17678SOL     OW54965   8.326   4.020   1.537  0.0923 -0.0631 -0.2792
17678SOL    HW154966   8.233   4.032   1.554  0.0386 -2.7027  2.1095
17678SOL    HW254967   8.346   3.934   1.575  2.9573 -0.8436 -3.1364
17679SOL     OW54968   2.369   3.808   0.191  1.0251  0.5684  0.0256
17679SOL    HW154969   2.353   3.829   0.283  0.3816  2.5574 -0.4914
17679SOL    HW254970   2.367   3.712   0.188 -0.4397  0.4849  1.8218
17680SOL     OW54971   0.186   6.368   7.645 -0.2041 -0.3773  0.6905
17680SOL    HW154972   0.230   6.283   7.646 -2.4076 -1.6137  0.8782
17680SOL    HW254973   0.098   6.349   7.613 -1.1746  1.6309  1.9156
17681SOL     OW54974   0.917   7.453   0.626  0.5338 -0.0054  0.4942
17681SOL    HW154975   0.981   7.522   0.611  0.3536  0.0523 -0.0356
17681SOL    HW254976   0.837   7.485   0.585  1.0859 -1.5659 -2.0531
17682SOL     OW54977   3.658   2.664   3.243 -0.2863 -0.7089 -0.0263
17682SOL    HW154978   3.623   2.688   3.157  0.5310 -0.4410 -0.2931
17682SOL    HW254979   3.746   2.629   3.224 -0.0785 -0.5941  0.7021
17683SOL     OW54980   6.877   4.430   2.398 -0.0526 -0.1296  0.0232
17683SOL    HW154981   6.929   4.356   2.426 -0.4549 -0.4005  0.0680
17683SOL    HW254982   6.881   4.491   2.472 -0.1907 -0.3577  0.2219
17684SOL     OW54983   4.181   3.772   3.767 -0.3288  0.7897  0.6072
17684SOL    HW154984   4.167   3.709   3.697 -0.1339  3.4708 -2.0493
17684SOL    HW254985   4.214   3.850   3.723 -0.0052  2.6020  3.7438
17685SOL     OW54986   3.233   3.676   4.610  0.0927  0.7914  0.7550
17685SOL    HW154987   3.289   3.752   4.595 -2.1931  2.6872  1.2895
17685SOL    HW254988   3.281   3.603   4.569  2.0690  2.5926 -0.3748
17686SOL     OW54989   3.160   0.487   3.779  0.6037 -0.5860  0.2699
17686SOL    HW154990   3.235   0.532   3.819  1.0404 -1.8959  0.9814
17686SOL    HW254991   3.191   0.398   3.765  0.3558 -0.3002 -2.7286
17687SOL     OW54992   0.860   7.820   5.471  0.6868  0.1549  0.5853
17687SOL    HW154993   0.954   7.810   5.463  0.4358 -1.4679 -0.7177
17687SOL    HW254994   0.839   7.780   5.556  1.3323  2.2083  1.7948
17688SOL     OW54995   3.923   3.183   6.936 -0.3891 -0.4920  0.0044
17688SOL    HW154996   3.906   3.094   6.969 -0.3593 -0.4375  0.1659
17688SOL    HW254997   3.975   3.224   7.004  1.9809 -1.2483 -1.2121
17689SOL     OW54998   0.636   2.738   2.255 -0.3247  0.0467 -0.3275
17689SOL    HW154999   0.562   2.762   2.200 -1.0781  1.0737  1.0599
17689SOL    HW255000   0.660   2.650   2.227 -1.2804  0.1676 -1.6159
17690SOL     OW55001   5.294   8.851   7.615  0.0318  0.3408 -0.5379
17690SOL    HW155002   5.370   8.807   7.653 -1.0202 -0.9435  0.1606
17690SOL    HW255003   5.295   8.938   7.656  0.5204 -0.0350  0.2759
17691SOL     OW55004   1.537   4.265   2.170  0.1583  0.1837 -0.2359
17691SOL    HW155005   1.546   4.291   2.261  0.0202 -0.5987  0.0126
17691SOL    HW255006   1.618   4.218   2.150  0.7274  1.4108 -0.8973
17692SOL     OW55007   3.462   1.423   2.826 -0.3319  0.7979  0.3482
17692SOL    HW155008   3.387   1.459   2.777 -0.6057  0.1106  0.2579
17692SOL    HW255009   3.538   1.463   2.785 -0.6173  1.0166  0.0255
17693SOL     OW55010   1.613   7.637   4.985  0.0757 -0.0981  0.2478
17693SOL    HW155011   1.565   7.701   5.038  0.6526 -0.3252  1.0633
17693SOL    HW255012   1.696   7.680   4.965 -0.7961  0.6803 -1.9807
17694SOL     OW55013   1.618   8.684   8.060  0.2876  0.2482 -0.6539
17694SOL    HW155014   1.711   8.706   8.060  0.3631 -0.0665 -0.4417
17694SOL    HW255015   1.599   8.657   7.971 -0.0959  2.3644 -1.2757
17695SOL     OW55016   6.432   7.892   7.787  0.3801 -0.1898 -0.2032
17695SOL    HW155017   6.380   7.872   7.865  0.4506 -1.5715 -0.4850
17695SOL    HW255018   6.508   7.835   7.793  2.2887  2.2716  0.5461
17696SOL     OW55019   6.436   0.970   8.846  0.0967  0.0904 -0.5002
17696SOL    HW155020   6.453   1.022   8.767 -1.3849 -0.9056 -1.5257
17696SOL    HW255021   6.472   1.022   8.917  0.4291  1.5747 -1.7012
17697SOL     OW55022   6.000   3.875   3.741  0.2039  0.6840 -0.0013
17697SOL    HW155023   5.960   3.885   3.655  0.0842  2.8927  0.2501
17697SOL    HW255024   5.949   3.932   3.798  0.2817 -0.7260  1.5580
17698SOL     OW55025   6.243   3.539   3.486  0.1378  0.4063 -0.2601
17698SOL    HW155026   6.279   3.495   3.409 -0.0907  0.2295 -0.2645
17698SOL    HW255027   6.176   3.598   3.451  0.6895  1.0276 -0.2923
17699SOL     OW55028   1.073   0.073   6.050  0.0792 -0.0804  0.0624
17699SOL    HW155029   1.079   0.085   6.144  1.1703 -0.6752  0.0894
17699SOL    HW255030   1.072  -0.022   6.038 -1.1555 -0.0153 -0.4792
17700SOL     OW55031   8.204   7.736   2.043  0.4762  0.0767 -0.2866
17700SOL    HW155032   8.162   7.732   1.958 -0.2323  0.5748  0.0318
17700SOL    HW255033   8.167   7.813   2.085  0.1867 -0.6224  0.7973
17701SOL     OW55034   6.023   8.506   3.332  0.2907  0.8666  0.5800
17701SOL    HW155035   6.076   8.431   3.359 -0.5478  0.7295  1.9223
17701SOL    HW255036   5.946   8.467   3.291 -0.4864  0.9460  1.9165
17702SOL     OW55037   7.774   5.365   5.946  0.3925  0.0200  0.6981
17702SOL    HW155038   7.803   5.283   5.905  0.4843  0.7078 -0.6334
17702SOL    HW255039   7.735   5.415   5.875 -0.7351  0.6663  1.7326
17703SOL     OW55040   6.707   3.355   5.588  0.3579  0.3930  0.0241
17703SOL    HW155041   6.694   3.381   5.679  0.6902  1.2429 -0.1568
17703SOL    HW255042   6.766   3.280   5.592 -0.7551 -0.4677  0.5816
17704SOL     OW55043   4.862   6.670   7.337 -0.8246 -0.2601 -0.5971
17704SOL    HW155044   4.771   6.701   7.338 -0.7934 -0.1573  0.4278
17704SOL    HW255045   4.879   6.649   7.245 -2.1988 -1.1722 -0.6829
17705SOL     OW55046   1.027   3.027   4.948  0.4937 -0.0031  0.4211
17705SOL    HW155047   1.016   2.933   4.931 -0.6064  0.2625 -0.4872
17705SOL    HW255048   1.016   3.067   4.862 -2.4461  1.2110  1.2341
17706SOL     OW55049   5.894   5.416   7.795 -0.4393  0.2292  0.4555
17706SOL    HW155050   5.983   5.396   7.824 -0.6231 -1.4710 -0.0618
17706SOL    HW255051   5.839   5.395   7.870 -0.6661 -1.7221 -0.1976
17707SOL     OW55052   7.598   0.657   3.376 -0.2599 -0.0893 -0.5299
17707SOL    HW155053   7.581   0.684   3.466 -0.5246  1.3845 -1.0007
17707SOL    HW255054   7.691   0.633   3.375 -0.1233  0.4126  0.0078
17708SOL     OW55055   5.999   8.226   5.567 -0.4184 -0.1878 -0.3999
17708SOL    HW155056   5.911   8.192   5.585 -0.7645  0.1933 -1.3310
17708SOL    HW255057   5.984   8.301   5.509  0.5703 -0.6312 -1.2546
17709SOL     OW55058   5.386   7.117   3.073 -0.4103  0.2510 -0.2118
17709SOL    HW155059   5.437   7.090   2.996 -1.5149  0.5423 -1.0595
17709SOL    HW255060   5.359   7.207   3.054 -0.6991  0.3282  0.5227
17710SOL     OW55061   4.790   1.176   7.646 -0.1925  0.5029 -0.7518
17710SOL    HW155062   4.768   1.210   7.733 -1.0569 -0.4902 -0.5592
17710SOL    HW255063   4.706   1.155   7.607  0.2655 -1.0115 -1.0055
17711SOL     OW55064   1.209   4.347   8.641  0.1879 -0.6202  0.0332
17711SOL    HW155065   1.226   4.441   8.633 -1.3277 -0.3690 -0.7440
17711SOL    HW255066   1.168   4.323   8.557 -5.0914 -0.6118  2.2197
17712SOL     OW55067   0.926   4.037   8.151  0.2466  0.2074  0.1252
17712SOL    HW155068   0.980   4.025   8.228 -1.5961  2.0389  1.8288
17712SOL    HW255069   0.924   3.951   8.109  1.2057 -0.8862  2.1969
17713SOL     OW55070   1.684   4.081   6.601 -0.9846 -0.6330  0.1948
17713SOL    HW155071   1.760   4.128   6.569 -1.0010  0.1149  1.2034
17713SOL    HW255072   1.609   4.128   6.564 -0.9818 -0.3500  0.5390
17714SOL     OW55073   4.744   6.042   2.833 -0.1013  0.3005 -0.1769
17714SOL    HW155074   4.824   6.078   2.794 -2.4361  4.4322 -1.7499
17714SOL    HW255075   4.694   6.009   2.759 -2.3448  3.4667 -0.2833
17715SOL     OW55076   0.465   6.418   2.454 -0.6413 -0.0470 -0.2455
17715SOL    HW155077   0.468   6.492   2.395  0.3811  0.2949  0.2039
17715SOL    HW255078   0.557   6.395   2.468 -0.8722 -0.3791  0.8670
17716SOL     OW55079   3.556   5.507   4.514 -0.0807  0.2563  0.2354
17716SOL    HW155080   3.539   5.413   4.503  0.2940  0.2636 -0.4087
17716SOL    HW255081   3.610   5.531   4.439 -0.6561  1.1182  0.0861
17717SOL     OW55082   0.823   4.337   3.071 -0.0024  0.1972  0.1646
17717SOL    HW155083   0.766   4.355   3.146 -0.8537 -0.7532 -0.2293
17717SOL    HW255084   0.799   4.404   3.007 -0.7835 -0.2661 -0.0430
17718SOL     OW55085   4.093   2.597   1.486  0.0411  0.1321 -0.4321
17718SOL    HW155086   4.119   2.631   1.572 -2.8477 -1.0710  1.0438
17718SOL    HW255087   4.142   2.515   1.476 -1.1885 -0.8546  1.1602
17719SOL     OW55088   6.916   2.992   5.350  0.0156 -0.5605  0.5466
17719SOL    HW155089   6.967   3.053   5.404  0.5243 -0.5279  0.0531
17719SOL    HW255090   6.826   3.001   5.381  0.2473 -0.3154  1.1692
17720SOL     OW55091   4.374   0.272   1.191  0.6304 -0.2791 -0.3513
17720SOL    HW155092   4.328   0.190   1.208  0.7035 -0.9151 -2.8148
17720SOL    HW255093   4.322   0.314   1.122  1.2589  1.1799  0.0311
17721SOL     OW55094   5.339   0.749   7.449 -0.1334  0.2000 -0.2426
17721SOL    HW155095   5.315   0.751   7.542 -2.2561  0.0043 -0.7415
17721SOL    HW255096   5.417   0.804   7.443  0.3271 -0.1669  1.7217
17722SOL     OW55097   1.462   1.267   2.088  0.5004  0.2172 -0.4993
17722SOL    HW155098   1.489   1.289   2.178 -1.6319 -1.0478  0.5392
17722SOL    HW255099   1.391   1.329   2.069  0.4901  0.0386 -1.0500
17723SOL     OW55100   3.238   2.111   0.122 -0.4069  0.3986  0.3897
17723SOL    HW155101   3.154   2.155   0.114  0.2848  1.7429  0.3797
17723SOL    HW255102   3.225   2.047   0.192 -1.3398  0.8272  0.6136
17724SOL     OW55103   4.244   8.018   1.688  0.4625 -1.0078  0.4933
17724SOL    HW155104   4.216   7.981   1.772  0.4661  0.5809  1.2244
17724SOL    HW255105   4.332   8.052   1.704 -1.0154  3.1087  1.1816
17725SOL     OW55106   1.646   7.338   6.575  0.2287 -0.7073  0.0600
17725SOL    HW155107   1.625   7.357   6.484 -0.4795 -0.3302  0.2867
17725SOL    HW255108   1.684   7.419   6.609 -0.4785 -0.4957  0.3681
17726SOL     OW55109   6.891   4.698   7.900 -0.5530 -0.3897  0.1076
17726SOL    HW155110   6.883   4.790   7.873  1.5309 -0.5314 -1.1634
17726SOL    HW255111   6.895   4.702   7.996 -1.2914  0.7493  0.1156
17727SOL     OW55112   4.610   1.441   4.915  0.9669 -0.2046  0.2082
17727SOL    HW155113   4.533   1.427   4.860  2.4312  0.6602 -2.2298
17727SOL    HW255114   4.648   1.354   4.926 -0.7097 -0.7613  2.1169
17728SOL     OW55115   6.688   3.138   3.940 -0.1815  0.3737 -0.2628
17728SOL    HW155116   6.661   3.075   4.007 -1.7987  0.5276 -0.7445
17728SOL    HW255117   6.764   3.097   3.899 -0.0919 -0.4175  0.6480
17729SOL     OW55118   3.167   6.201   1.842  0.6548  0.3397  0.3564
17729SOL    HW155119   3.102   6.178   1.775  2.9713 -0.0980 -1.9330
17729SOL    HW255120   3.176   6.122   1.895  2.3494 -1.2422 -2.0717
17730SOL     OW55121   5.069   1.303   6.598 -0.2310 -0.4703 -0.1313
17730SOL    HW155122   5.014   1.361   6.652 -0.4902 -0.8138 -0.0180
17730SOL    HW255123   5.050   1.330   6.508 -0.2586 -0.2990 -0.0758
17731SOL     OW55124   6.257   4.914   8.633 -0.2553 -0.0480 -0.0819
17731SOL    HW155125   6.338   4.864   8.639  0.0373  0.3440 -0.6953
17731SOL    HW255126   6.282   4.994   8.587 -0.9745  0.1029 -0.2154
17732SOL     OW55127   0.848   7.326   0.867 -0.0730 -1.1711 -0.0513
17732SOL    HW155128   0.930   7.290   0.902  1.7968  1.9291 -0.8455
17732SOL    HW255129   0.875   7.376   0.790 -2.3420  1.7869  0.9119
17733SOL     OW55130   8.640   2.269   2.963 -0.1077 -1.2185 -0.0857
17733SOL    HW155131   8.578   2.196   2.958 -2.4566  0.5166  1.8540
17733SOL    HW255132   8.587   2.347   2.951  1.4604  0.4225  2.6081
17734SOL     OW55133   8.297   0.831   4.395 -0.5392  0.2077 -0.2930
17734SOL    HW155134   8.212   0.868   4.372 -0.4171  0.9578  0.4096
17734SOL    HW255135   8.360   0.895   4.363 -0.2326 -0.3253 -0.7721
17735SOL     OW55136   3.993   1.531   2.143  0.1926  0.1755 -0.5807
17735SOL    HW155137   4.001   1.624   2.165 -0.1388 -0.0635  0.5933
17735SOL    HW255138   4.008   1.485   2.225 -0.3481 -0.7913 -1.0043
17736SOL     OW55139   3.468   4.307   1.057 -0.1172  0.4635  0.1103
17736SOL    HW155140   3.521   4.228   1.059 -1.4315 -0.5354 -1.7877
17736SOL    HW255141   3.388   4.284   1.105  0.2447  1.2663  1.1329
17737SOL     OW55142   1.258   6.904   8.629  0.0673 -0.2954  0.6630
17737SOL    HW155143   1.317   6.891   8.703 -0.2225  0.1902  0.9879
17737SOL    HW255144   1.313   6.945   8.562  0.0546  0.3813  1.0523
17738SOL     OW55145   6.775   3.665   4.616  0.1168  0.0744 -0.5256
17738SOL    HW155146   6.737   3.648   4.529  1.8426 -2.3670 -0.9176
17738SOL    HW255147   6.701   3.660   4.676 -0.7112 -1.0932 -1.5883
17739SOL     OW55148   5.342   7.736   3.428  0.4781 -0.0964  0.0791
17739SOL    HW155149   5.288   7.708   3.503  0.4411  0.0174  0.0960
17739SOL    HW255150   5.431   7.715   3.454  0.6317  1.3295  0.8075
17740SOL     OW55151   1.143   0.711   5.737  0.3671  0.1478  0.1863
17740SOL    HW155152   1.127   0.664   5.655 -1.7943  1.1379 -0.0305
17740SOL    HW255153   1.177   0.796   5.710 -1.2589  0.8395  0.2119
17741SOL     OW55154   5.872   6.370   4.154  0.2595 -0.3138 -0.6543
17741SOL    HW155155   5.778   6.368   4.172  0.4338  1.1165  0.5922
17741SOL    HW255156   5.896   6.278   4.143 -1.0960 -0.7782  0.0580
17742SOL     OW55157   0.174   6.010   7.300 -0.0524 -0.6973  0.4751
17742SOL    HW155158   0.088   6.049   7.318  0.4586  0.3776  0.6727
17742SOL    HW255159   0.157   5.945   7.232 -1.0904 -0.7810  0.8001
17743SOL     OW55160   5.876   8.058   6.191 -0.6951  0.2706  0.4305
17743SOL    HW155161   5.917   8.140   6.219 -1.0442  0.1761  1.2497
17743SOL    HW255162   5.916   7.991   6.246 -1.3048  0.0610  0.6221
17744SOL     OW55163   6.507   7.364   5.805 -0.0115 -0.3215  0.4445
17744SOL    HW155164   6.426   7.402   5.771  0.1276  1.3953  1.8932
17744SOL    HW255165   6.485   7.338   5.894  0.5511 -1.5861  0.2323
17745SOL     OW55166   5.889   5.037   7.734 -0.2026 -0.0316 -0.5212
17745SOL    HW155167   5.794   5.045   7.734 -0.1135  1.3815 -0.3103
17745SOL    HW255168   5.915   5.058   7.824  0.3907  1.2367 -0.9633
17746SOL     OW55169   0.522   0.559   4.995  0.0874 -0.0860  0.8145
17746SOL    HW155170   0.560   0.486   5.045  0.2914  0.6988  1.8618
17746SOL    HW255171   0.538   0.636   5.051  0.1715  0.8072 -0.4106
17747SOL     OW55172   8.026   2.223   7.853  0.0556 -0.2660  0.1954
17747SOL    HW155173   7.944   2.198   7.896 -0.4274  0.1693 -0.4564
17747SOL    HW255174   8.027   2.318   7.856  0.3766 -0.2585 -0.0939
17748SOL     OW55175   5.137   6.854   4.856  0.0970 -0.4445 -0.3020
17748SOL    HW155176   5.048   6.887   4.839  0.5740  1.0851  0.0498
17748SOL    HW255177   5.125   6.791   4.928 -0.6450  0.1476  0.1153
17749SOL     OW55178   5.412   7.399   7.518  0.0911  0.2979 -0.0783
17749SOL    HW155179   5.363   7.440   7.447  0.1734  1.0887  0.3112
17749SOL    HW255180   5.490   7.454   7.529 -0.3570  0.7067  1.2012
17750SOL     OW55181   3.655   4.087   8.481 -0.6699  1.0255  0.2882
17750SOL    HW155182   3.595   4.060   8.411  1.0745 -0.5823 -0.7086
17750SOL    HW255183   3.697   4.166   8.447  1.1428 -0.4745 -1.2214
17751SOL     OW55184   3.837   8.046   7.714 -0.2565  0.6542 -0.3590
17751SOL    HW155185   3.930   8.038   7.736 -0.1049 -1.5199 -1.5066
17751SOL    HW255186   3.801   8.106   7.781  1.5853  0.0999  1.2123
17752SOL     OW55187   3.118   5.348   7.411  0.2232  0.5838  0.0413
17752SOL    HW155188   3.123   5.254   7.428 -0.4193  0.6737  0.8415
17752SOL    HW255189   3.170   5.362   7.332  0.6849 -0.3773  0.1652
17753SOL     OW55190   1.969   5.255   2.572 -0.2856  0.5850  0.3937
17753SOL    HW155191   1.914   5.330   2.550 -0.4835  0.5439  0.7454
17753SOL    HW255192   2.058   5.282   2.548  0.2119  2.2619  3.6405
17754SOL     OW55193   2.881   8.370   5.543 -0.0932 -0.1108 -0.3813
17754SOL    HW155194   2.970   8.403   5.528 -0.6071  1.3950 -0.2683
17754SOL    HW255195   2.825   8.434   5.499 -1.1686 -0.5857  0.2844
17755SOL     OW55196   5.161   8.389   1.183  0.0811  0.1151  0.3195
17755SOL    HW155197   5.112   8.438   1.117 -0.6527 -0.0565  0.7331
17755SOL    HW255198   5.134   8.298   1.170  2.0144 -0.3552 -0.9677
17756SOL     OW55199   4.865   2.021   3.063 -0.0110  0.2330 -0.0067
17756SOL    HW155200   4.955   2.009   3.092 -0.0298  0.9516  0.3671
17756SOL    HW255201   4.814   1.961   3.118  0.2148 -0.0068 -0.0604
17757SOL     OW55202   0.644   0.156   2.428 -0.2494 -0.0842 -0.2684
17757SOL    HW155203   0.626   0.188   2.516  2.4382 -1.5313  0.9544
17757SOL    HW255204   0.628   0.231   2.371 -3.4828  0.4788  1.1964
17758SOL     OW55205   8.231   3.999   0.989 -0.4977 -0.0063 -0.2842
17758SOL    HW155206   8.275   4.029   1.069 -1.9509  1.6914 -0.0618
17758SOL    HW255207   8.226   3.904   0.998  1.4686 -0.0893  0.4982
17759SOL     OW55208   6.843   1.462   3.803 -0.3687 -0.3229  0.3548
17759SOL    HW155209   6.935   1.483   3.819 -0.7246  0.2628  1.8360
17759SOL    HW255210   6.841   1.367   3.795  0.2448 -0.4422  1.3911
17760SOL     OW55211   4.653   3.292   0.748 -0.1183 -0.3232 -0.5470
17760SOL    HW155212   4.669   3.201   0.722  0.3236 -0.4186  0.0478
17760SOL    HW255213   4.662   3.292   0.843 -2.3808 -0.1026 -0.2941
17761SOL     OW55214   6.609   3.241   8.863  0.1143  0.5054  0.2988
17761SOL    HW155215   6.676   3.255   8.796  0.3685  0.3057  0.5102
17761SOL    HW255216   6.579   3.151   8.850  0.0952  0.4975  0.3939
17762SOL     OW55217   5.053   5.889   6.309  0.0993 -0.2293 -0.8449
17762SOL    HW155218   5.116   5.944   6.356 -0.0860 -0.5140 -0.2449
17762SOL    HW255219   5.087   5.800   6.320 -0.5953 -0.4246 -0.1927
17763SOL     OW55220   5.562   4.357   7.036 -0.4226  0.1359 -0.1239
17763SOL    HW155221   5.475   4.393   7.056 -0.6648 -0.9305  0.9283
17763SOL    HW255222   5.543   4.277   6.986 -0.1064 -0.4278  0.6287
17764SOL     OW55223   3.257   1.223   3.172 -0.1850 -0.1114  0.1202
17764SOL    HW155224   3.224   1.259   3.254 -0.0226  0.5066 -0.0858
17764SOL    HW255225   3.250   1.128   3.184  0.2624 -0.0425  1.0244
17765SOL     OW55226   7.886   1.708   1.590  0.4302  0.0814  0.1024
17765SOL    HW155227   7.953   1.697   1.522 -2.6936  0.6896 -3.3754
17765SOL    HW255228   7.807   1.733   1.542 -2.1254  0.3238  4.0206
17766SOL     OW55229   6.454   6.346   2.374 -0.1709 -0.5263  0.0479
17766SOL    HW155230   6.407   6.265   2.397 -1.8919  0.3068 -0.3472
17766SOL    HW255231   6.526   6.350   2.436  0.0983 -2.4780 -0.0680
17767SOL     OW55232   0.900   4.866   0.989 -0.2839  0.4431 -0.7153
17767SOL    HW155233   0.938   4.815   0.918 -0.2909 -0.3019 -0.2061
17767SOL    HW255234   0.910   4.957   0.962 -0.4478  0.1681 -1.7409
17768SOL     OW55235   6.713   0.810   1.572 -0.3360 -0.2355 -0.6309
17768SOL    HW155236   6.691   0.895   1.534 -1.3472  0.6487  1.7462
17768SOL    HW255237   6.802   0.793   1.543  1.8683  4.0127  2.5518
17769SOL     OW55238   8.198   7.675   8.371 -0.1312  0.1890 -0.0744
17769SOL    HW155239   8.149   7.685   8.452 -0.8648  0.4485 -0.5452
17769SOL    HW255240   8.143   7.715   8.304  0.9303  0.8945 -0.5442
17770SOL     OW55241   6.693   3.306   2.735  0.3890 -0.0923  0.3349
17770SOL    HW155242   6.713   3.398   2.718 -0.9448 -0.0599 -1.2579
17770SOL    HW255243   6.739   3.258   2.667 -0.2956 -0.4681  0.1318
17771SOL     OW55244   1.802   0.969   7.175  0.3407 -0.1748 -0.5648
17771SOL    HW155245   1.744   0.893   7.169 -1.2725  0.8085  1.4652
17771SOL    HW255246   1.745   1.044   7.161  0.9941  0.8536  1.8151
17772SOL     OW55247   7.444   0.046   5.984  0.2858 -0.2695  0.5668
17772SOL    HW155248   7.407   0.030   6.071  0.0195 -0.3190  0.4452
17772SOL    HW255249   7.530   0.084   6.002 -0.1294  0.5640  0.8491
17773SOL     OW55250   2.127   2.355   2.390 -0.2825  0.1729  0.0479
17773SOL    HW155251   2.146   2.263   2.374  0.8874  0.5982 -1.2571
17773SOL    HW255252   2.033   2.358   2.407 -0.1141 -1.4078  1.5223
17774SOL     OW55253   4.918   0.687   6.808  0.1242  0.2929 -0.6982
17774SOL    HW155254   4.949   0.681   6.899  0.4923  0.8601 -0.7801
17774SOL    HW255255   4.896   0.779   6.796  0.9444  0.4076 -1.4542
17775SOL     OW55256   5.032   0.203   8.547  0.3986  0.3175 -0.1945
17775SOL    HW155257   4.966   0.143   8.582 -0.4676  1.2278 -0.2266
17775SOL    HW255258   5.049   0.264   8.619  0.5439  0.6262 -0.4885
17776SOL     OW55259   5.121   8.352   6.152  0.2753  0.6945 -0.0431
17776SOL    HW155260   5.211   8.344   6.186  0.9827  1.1989 -1.7078
17776SOL    HW255261   5.110   8.446   6.137 -0.8958  0.7473  1.0299
17777SOL     OW55262   6.006   6.184   7.944 -0.2310 -0.2868  0.0100
17777SOL    HW155263   6.099   6.203   7.957 -0.1532  0.6554 -1.6545
17777SOL    HW255264   6.001   6.143   7.857 -1.3981 -0.1280 -0.0220
17778SOL     OW55265   1.834   5.525   0.304 -0.5961  0.9695  0.1029
17778SOL    HW155266   1.743   5.520   0.272 -1.1455  0.2121  1.6635
17778SOL    HW255267   1.887   5.511   0.226 -1.8437  0.0399 -0.6298
17779SOL     OW55268   0.511   2.562   6.466 -0.4168  0.2734 -0.1725
17779SOL    HW155269   0.443   2.629   6.467  1.2840  2.1062 -0.2747
17779SOL    HW255270   0.551   2.568   6.553  0.9574  0.7410 -0.8030
17780SOL     OW55271   4.809   3.689   0.513  0.4251 -0.2762 -0.0030
17780SOL    HW155272   4.756   3.611   0.528  0.2330 -0.2863 -0.6750
17780SOL    HW255273   4.896   3.667   0.545 -0.2869  0.2432  2.4778
17781SOL     OW55274   8.392   0.471   7.992 -0.2078  0.7947 -0.0146
17781SOL    HW155275   8.462   0.433   7.938  0.7279  1.3456  0.7817
17781SOL    HW255276   8.321   0.407   7.987  0.4560  0.0819 -0.6162
17782SOL     OW55277   5.763   4.498   2.211 -0.4062 -0.0304 -0.0226
17782SOL    HW155278   5.688   4.524   2.265  1.3015  2.3585  1.3497
17782SOL    HW255279   5.747   4.540   2.127 -0.9927 -0.2060 -0.0040
17783SOL     OW55280   3.611   0.845   1.627  0.0933 -0.1202 -0.2084
17783SOL    HW155281   3.542   0.778   1.627 -1.4059  1.2634  1.9614
17783SOL    HW255282   3.620   0.869   1.719  2.3658  0.9254 -0.6420
17784SOL     OW55283   7.240   4.729   6.336 -0.4073  0.0255 -0.0454
17784SOL    HW155284   7.173   4.683   6.385 -0.6047  1.6026  1.2546
17784SOL    HW255285   7.319   4.724   6.390 -0.2949  0.7398 -0.1271
17785SOL     OW55286   5.074   1.890   2.851  0.1337 -0.1124 -0.3190
17785SOL    HW155287   5.031   1.938   2.780 -0.1058 -1.5306 -1.1777
17785SOL    HW255288   5.076   1.800   2.820 -0.2609 -0.8200  1.6469
17786SOL     OW55289   1.030   7.612   7.461  0.1408  0.4679 -0.1328
17786SOL    HW155290   0.966   7.540   7.468  0.4884  0.2026  0.3579
17786SOL    HW255291   1.055   7.631   7.551  0.0079  1.2518 -0.2586
17787SOL     OW55292   8.825   8.213   8.817 -0.4993 -0.5288  0.7150
17787SOL    HW155293   8.805   8.180   8.729 -1.5499 -1.7465  1.3681
17787SOL    HW255294   8.741   8.245   8.851  0.3290  2.1854  0.4341
17788SOL     OW55295   6.658   4.443   1.968  0.0553  0.3705  0.0269
17788SOL    HW155296   6.585   4.460   2.027 -1.0387 -1.5925 -0.6742
17788SOL    HW255297   6.733   4.428   2.026 -0.3222  1.3418  0.7873
17789SOL     OW55298   7.957   1.358   7.158 -0.1264  0.1425  0.0856
17789SOL    HW155299   8.020   1.413   7.113 -0.5055 -0.2819 -1.0183
17789SOL    HW255300   7.883   1.416   7.177  0.1059  0.3651  0.3041
17790SOL     OW55301   6.529   0.357   7.272 -0.2568 -0.2682 -0.3762
17790SOL    HW155302   6.559   0.424   7.333  2.6612 -0.4133 -1.4881
17790SOL    HW255303   6.435   0.375   7.261  0.1491  2.8632  0.2855
17791SOL     OW55304   3.880   4.884   7.585  0.2882  0.6570 -1.0520
17791SOL    HW155305   3.941   4.818   7.620  0.5345  1.3907 -0.0693
17791SOL    HW255306   3.794   4.844   7.594  0.5385 -0.0556 -1.6846
17792SOL     OW55307   2.041   5.905   5.643  0.1822 -0.8155  0.4134
17792SOL    HW155308   2.125   5.903   5.689  0.4995 -0.6975 -0.1496
17792SOL    HW255309   1.975   5.904   5.713  0.5525  4.4697  1.2468
17793SOL     OW55310   2.798   5.346   7.444 -0.6846 -0.0876 -0.4823
17793SOL    HW155311   2.859   5.277   7.416  0.6833  0.6973  0.4780
17793SOL    HW255312   2.739   5.301   7.505  0.3523 -0.3987  0.3382
17794SOL     OW55313   0.796   5.955   8.315  0.1010 -0.0549 -0.7166
17794SOL    HW155314   0.807   5.893   8.244 -0.1619  0.8664 -1.5806
17794SOL    HW255315   0.702   5.973   8.318 -0.0695 -0.9531  0.6472
17795SOL     OW55316   5.782   3.561   1.666  0.2887 -0.1066  0.5091
17795SOL    HW155317   5.799   3.513   1.747  0.3567  0.6288  0.9448
17795SOL    HW255318   5.834   3.516   1.600 -1.5304 -2.1337  0.3619
17796SOL     OW55319   3.457   5.483   8.503  0.0433 -0.3683  0.2728
17796SOL    HW155320   3.447   5.573   8.532 -1.6246 -1.1353  2.3292
17796SOL    HW255321   3.464   5.432   8.583  1.7021 -2.0352 -0.8442
17797SOL     OW55322   6.650   8.065   6.487  0.3258 -0.0470 -0.0490
17797SOL    HW155323   6.617   8.032   6.570 -0.1903 -2.3998 -1.1097
17797SOL    HW255324   6.600   8.146   6.471  0.1503  0.2216  1.6819
17798SOL     OW55325   5.748   8.643   6.275  0.0255  0.4105 -0.5965
17798SOL    HW155326   5.681   8.682   6.218 -0.8457 -2.9734 -2.1525
17798SOL    HW255327   5.804   8.716   6.299 -0.4743  2.3785 -4.5950
17799SOL     OW55328   4.148   8.745   6.753 -0.3010 -0.5368  0.0544
17799SOL    HW155329   4.183   8.720   6.668 -0.5005  0.3418 -0.2983
17799SOL    HW255330   4.089   8.674   6.777 -2.3836  0.4431 -1.8343
17800SOL     OW55331   3.780   1.852   7.662  0.1657 -0.0377 -0.3291
17800SOL    HW155332   3.823   1.885   7.584 -0.2727  2.4753  0.3899
17800SOL    HW255333   3.706   1.801   7.630  0.9236 -0.3989 -1.5355
17801SOL     OW55334   6.516   4.931   1.721  0.6679 -0.5709 -0.1736
17801SOL    HW155335   6.600   4.885   1.715  1.4482  0.8613 -0.5879
17801SOL    HW255336   6.529   4.997   1.789 -0.2371 -0.5547 -0.0020
17802SOL     OW55337   1.938   4.530   0.799 -0.0974  0.6085  0.5887
17802SOL    HW155338   1.996   4.530   0.875 -1.9135  1.7420  2.0678
17802SOL    HW255339   1.910   4.439   0.789  1.9597  0.0162 -0.2433
17803SOL     OW55340   4.691   3.856   1.078 -0.1461  0.1229 -0.1050
17803SOL    HW155341   4.715   3.804   1.155 -1.6739 -1.8861 -0.8866
17803SOL    HW255342   4.773   3.896   1.050  0.5554  0.4523  2.2001
17804SOL     OW55343   4.997   2.040   0.826 -0.3846  0.0200 -0.0606
17804SOL    HW155344   5.044   2.067   0.747 -0.6184 -1.0598 -0.5932
17804SOL    HW255345   4.906   2.059   0.807 -0.5629 -1.1629 -0.4790
17805SOL     OW55346   2.785   4.756   6.472 -0.0962  0.2346 -0.0806
17805SOL    HW155347   2.691   4.755   6.453 -0.0161 -0.6689 -0.4707
17805SOL    HW255348   2.822   4.689   6.415  0.4978 -0.8733  1.5194
17806SOL     OW55349   8.093   6.450   8.497  0.3183  0.0697 -0.0300
17806SOL    HW155350   8.069   6.362   8.470 -1.7404  0.1817  1.2699
17806SOL    HW255351   8.034   6.508   8.449 -0.1541  0.5471  1.0773
17807SOL     OW55352   8.856   7.800   4.928 -0.3268 -0.5391  0.1242
17807SOL    HW155353   8.806   7.722   4.953 -2.4663 -0.6365 -3.6623
17807SOL    HW255354   8.830   7.816   4.837  2.1258  3.0303 -0.1225
17808SOL     OW55355   5.204   5.824   8.580  0.0127  0.2966  0.1497
17808SOL    HW155356   5.135   5.760   8.599  2.5337 -2.3907  0.9791
17808SOL    HW255357   5.164   5.908   8.598 -3.1118 -1.0862  0.3069
17809SOL     OW55358   0.604   2.640   0.744 -0.0298 -0.0170  0.1454
17809SOL    HW155359   0.621   2.627   0.650  0.6990  0.6622  0.1683
17809SOL    HW255360   0.512   2.666   0.748 -0.5016 -1.5273 -0.2215
17810SOL     OW55361   5.844   7.559   0.199 -0.7287  0.3831  0.0250
17810SOL    HW155362   5.898   7.546   0.277 -0.1021  0.5731 -0.3676
17810SOL    HW255363   5.760   7.520   0.221  0.2876 -2.0811 -0.1957
17811SOL     OW55364   5.134   4.775   2.839 -0.1657  0.1452  0.2464
17811SOL    HW155365   5.078   4.794   2.764  0.4932 -0.1487 -0.3310
17811SOL    HW255366   5.115   4.845   2.901  0.0688  1.0247 -0.6382
17812SOL     OW55367   0.057   5.166   0.389 -0.2043  0.1638  0.2343
17812SOL    HW155368   0.030   5.104   0.321 -0.3584  0.0814  0.3699
17812SOL    HW255369  -0.024   5.205   0.420 -0.1539  0.0425  0.5223
17813SOL     OW55370   0.410   8.193   4.818  0.0979 -0.1328 -0.2938
17813SOL    HW155371   0.344   8.134   4.853 -1.3025  1.9033  0.7189
17813SOL    HW255372   0.364   8.241   4.748 -0.1146  2.4145  1.4407
17814SOL     OW55373   3.606   0.793   0.593 -0.0798  0.4500  0.1182
17814SOL    HW155374   3.516   0.782   0.563  0.8335  0.8050 -3.2026
17814SOL    HW255375   3.602   0.863   0.658 -2.0114  1.9444 -1.4715
17815SOL     OW55376   8.785   7.723   7.879  0.4130  0.0286  0.1996
17815SOL    HW155377   8.832   7.803   7.902 -0.3227  0.4452  0.2866
17815SOL    HW255378   8.823   7.698   7.794  1.8278 -0.4867  0.9561
17816SOL     OW55379   4.786   5.857   7.074  0.3146  0.1938 -0.0458
17816SOL    HW155380   4.842   5.849   7.151  2.3003 -0.7646 -1.5019
17816SOL    HW255381   4.717   5.917   7.101  0.7326 -0.3532  2.5673
17817SOL     OW55382   3.909   1.730   5.472 -0.6549  0.3761  0.0023
17817SOL    HW155383   3.851   1.805   5.459 -2.0064 -0.7064 -0.4911
17817SOL    HW255384   3.947   1.743   5.559 -0.4113  1.9074 -0.3152
17818SOL     OW55385   2.268   0.910   4.927 -0.0015 -0.3414 -0.5888
17818SOL    HW155386   2.206   0.946   4.990 -0.8155 -1.7702 -0.5159
17818SOL    HW255387   2.259   0.815   4.937  1.1974 -0.5835 -1.5669
17819SOL     OW55388   4.307   6.785   5.397 -0.6326 -0.3499 -0.3849
17819SOL    HW155389   4.235   6.744   5.351 -0.2173 -1.6370  0.0758
17819SOL    HW255390   4.266   6.828   5.472 -0.9712 -0.6261 -0.4101
17820SOL     OW55391   6.297   1.927   5.079 -0.0586 -0.2372 -0.1398
17820SOL    HW155392   6.295   1.884   5.165  0.3272  0.8183  0.4142
17820SOL    HW255393   6.356   2.001   5.091 -1.9461  1.4318 -0.6070
17821SOL     OW55394   4.554   6.547   4.414 -0.2228  0.4938  0.1762
17821SOL    HW155395   4.646   6.550   4.440 -0.2837  1.9086  0.2994
17821SOL    HW255396   4.505   6.573   4.492 -0.8680 -1.7097  0.5724
17822SOL     OW55397   2.373   4.737   0.854 -0.0524 -0.7126  0.0324
17822SOL    HW155398   2.425   4.793   0.797  0.4520  0.1424  1.3003
17822SOL    HW255399   2.315   4.689   0.794  1.0330 -0.4663 -1.2531
17823SOL     OW55400   7.985   0.853   2.282 -0.2273  1.0702  0.2236
17823SOL    HW155401   8.043   0.781   2.309 -0.4698  1.2676  1.3100
17823SOL    HW255402   7.924   0.862   2.354 -0.5854  1.9679 -0.1873
17824SOL     OW55403   7.624   5.396   5.132 -0.1031  0.0217 -0.1391
17824SOL    HW155404   7.678   5.332   5.085 -0.2849 -0.0207 -0.2912
17824SOL    HW255405   7.541   5.398   5.083  0.2407  1.0703 -0.6998
17825SOL     OW55406   4.791   7.273   6.730  0.0936 -0.1304  0.3350
17825SOL    HW155407   4.707   7.266   6.776 -0.8477 -0.3540 -1.3470
17825SOL    HW255408   4.816   7.183   6.711  0.7302 -0.0639  0.8139
17826SOL     OW55409   6.198   2.027   2.682  0.2443 -0.1889  0.6376
17826SOL    HW155410   6.131   1.958   2.682  0.7789 -0.7199  0.6824
17826SOL    HW255411   6.161   2.096   2.628  0.0585 -0.8781 -0.1440
17827SOL     OW55412   3.385   4.635   6.626 -0.2550  0.9092  0.2352
17827SOL    HW155413   3.417   4.710   6.576  0.9095  0.7106  0.6670
17827SOL    HW255414   3.292   4.654   6.640  0.1715  2.6014  0.9438
17828SOL     OW55415   5.796   4.070   3.820  0.5441  0.1434  0.2325
17828SOL    HW155416   5.770   3.994   3.872 -0.4633  1.2759  1.4941
17828SOL    HW255417   5.736   4.070   3.745  0.6817 -0.4089  0.1223
17829SOL     OW55418   4.290   2.930   4.843 -0.4969 -0.4731 -0.1418
17829SOL    HW155419   4.354   2.874   4.888 -0.5880 -0.8913 -0.5257
17829SOL    HW255420   4.340   2.971   4.773 -0.1585  0.8061  0.8188
17830SOL     OW55421   6.955   1.702   2.786  0.0621 -0.0893  0.5621
17830SOL    HW155422   7.045   1.733   2.800  0.9691 -1.9449 -0.7372
17830SOL    HW255423   6.919   1.761   2.720  0.6703  0.0677  0.3678
17831SOL     OW55424   6.246   0.385   8.597  0.1382  0.1015  0.4448
17831SOL    HW155425   6.284   0.453   8.652 -1.5150  2.7542 -1.4555
17831SOL    HW255426   6.166   0.359   8.644  0.3529  0.0459  0.7841
17832SOL     OW55427   1.161   1.580   5.565  0.3614 -0.0545 -0.0841
17832SOL    HW155428   1.109   1.628   5.500 -3.4184 -1.7803  1.3677
17832SOL    HW255429   1.167   1.639   5.639  2.6427  1.0257 -1.0549
17833SOL     OW55430   0.839   7.159   8.089  0.5022 -0.1486 -0.2985
17833SOL    HW155431   0.796   7.109   8.020  2.1904 -1.5979 -0.3478
17833SOL    HW255432   0.772   7.167   8.157  0.0502 -2.1810 -0.4372
17834SOL     OW55433   1.943   3.849   6.105 -0.2026 -0.5297 -0.2114
17834SOL    HW155434   1.897   3.872   6.025  0.4871  0.6272 -0.2889
17834SOL    HW255435   2.000   3.777   6.080 -0.4937 -0.6335 -0.5848
17835SOL     OW55436   6.806   8.758   7.257  0.1995  0.2366 -0.6434
17835SOL    HW155437   6.727   8.720   7.295  0.5876 -1.1093 -1.1204
17835SOL    HW255438   6.774   8.813   7.186 -0.3474  0.2623 -0.3820
17836SOL     OW55439   6.424   4.949   7.149 -0.2895  0.1361  0.1304
17836SOL    HW155440   6.381   4.968   7.232 -0.3916 -1.3783  0.4438
17836SOL    HW255441   6.383   5.010   7.087 -2.5138 -0.8585  0.5253
17837SOL     OW55442   7.350   3.200   8.160  0.0798  0.0542 -0.1892
17837SOL    HW155443   7.331   3.106   8.168 -0.3098  0.2338  1.1644
17837SOL    HW255444   7.327   3.221   8.069  0.1398 -1.1481 -0.5013
17838SOL     OW55445   5.576   3.489   7.410  0.1958  0.3250 -0.3594
17838SOL    HW155446   5.665   3.516   7.388  0.0800 -0.4180 -1.9034
17838SOL    HW255447   5.520   3.546   7.357 -0.2909  1.1126  0.9616
17839SOL     OW55448   6.176   3.617   5.908  0.0036 -0.2111  0.1661
17839SOL    HW155449   6.112   3.658   5.850  0.3343 -0.6599 -0.5308
17839SOL    HW255450   6.259   3.659   5.886  1.1050 -3.5917 -3.1790
17840SOL     OW55451   6.504   6.333   3.473  0.1296 -0.2148  0.1618
17840SOL    HW155452   6.487   6.347   3.380  2.9566 -0.6743 -0.5027
17840SOL    HW255453   6.553   6.251   3.477  2.7743  1.2813  1.6549
17841SOL     OW55454   2.096   7.776   4.534  0.0231  0.3471  0.3387
17841SOL    HW155455   2.059   7.819   4.458 -1.2233 -1.1372  0.0631
17841SOL    HW255456   2.187   7.757   4.509 -0.9227 -1.9975 -1.6557
17842SOL     OW55457   6.952   7.861   8.470  0.8515 -1.0738 -0.7861
17842SOL    HW155458   6.984   7.823   8.389  1.9557 -0.9604 -0.4168
17842SOL    HW255459   7.018   7.926   8.495  0.8992 -1.5945  0.5546
17843SOL     OW55460   7.561   6.202   2.662  0.1937  0.7307 -0.3066
17843SOL    HW155461   7.514   6.145   2.601  1.1631  1.1935 -1.5453
17843SOL    HW255462   7.589   6.277   2.608 -0.1876  1.8893  1.0508
17844SOL     OW55463   2.462   1.264   6.787  0.5273 -0.2902 -0.1199
17844SOL    HW155464   2.380   1.311   6.772  0.6901  0.2461  0.5885
17844SOL    HW255465   2.530   1.321   6.750  0.6029 -0.6292 -0.5107
17845SOL     OW55466   7.848   1.897   0.196 -0.6709  0.3106  0.3499
17845SOL    HW155467   7.878   1.935   0.114 -0.8543  1.3357  0.7498
17845SOL    HW255468   7.835   1.972   0.255 -0.1313 -0.4304  1.4519
17846SOL     OW55469   0.109   7.347   4.407  0.1450  0.3886  0.6041
17846SOL    HW155470   0.145   7.431   4.377  0.0701 -0.2169 -1.2846
17846SOL    HW255471   0.177   7.283   4.388 -0.3630 -0.1862  0.7093
17847SOL     OW55472   4.660   4.877   7.585 -0.3909  0.0575 -0.0855
17847SOL    HW155473   4.687   4.811   7.649 -1.0218 -0.8812 -0.7675
17847SOL    HW255474   4.702   4.958   7.615 -0.4601 -0.4159  1.3612
17848SOL     OW55475   1.676   8.071   8.444  0.3263  0.2997  0.1464
17848SOL    HW155476   1.598   8.026   8.477 -1.4272  1.6594 -1.9339
17848SOL    HW255477   1.715   8.111   8.522  0.2416 -2.1715  1.5774
17849SOL     OW55478   1.506   1.899   3.988 -0.4687 -0.0369 -0.0311
17849SOL    HW155479   1.492   1.868   4.078 -0.6891  0.3310  0.0646
17849SOL    HW255480   1.418   1.921   3.957 -0.2163  1.6548  0.3387
17850SOL     OW55481   0.141   5.778   2.208  0.4664  0.0162  0.2012
17850SOL    HW155482   0.168   5.869   2.200 -2.9712  1.0424 -1.5672
17850SOL    HW255483   0.165   5.738   2.125 -1.5266  0.4701 -0.6573
17851SOL     OW55484   1.659   3.208   3.261  0.9387  0.4435 -0.5104
17851SOL    HW155485   1.623   3.291   3.230  0.9150  0.2654 -0.9710
17851SOL    HW255486   1.745   3.230   3.295  0.5764  0.8053  0.2143
17852SOL     OW55487   0.338   0.473   0.888 -0.3154  0.4542 -0.1895
17852SOL    HW155488   0.246   0.469   0.863 -0.2178 -1.5220 -0.3999
17852SOL    HW255489   0.346   0.555   0.936 -2.0492  0.9473 -0.6600
17853SOL     OW55490   5.784   5.845   7.026 -0.2711 -0.1973  0.0210
17853SOL    HW155491   5.729   5.777   6.987  1.4975 -0.9316 -1.3577
17853SOL    HW255492   5.835   5.799   7.093  0.1624 -0.0199 -0.1801
17854SOL     OW55493   2.650   8.499   3.162  0.4629  0.1576  0.3607
17854SOL    HW155494   2.689   8.473   3.079 -0.2625 -0.7514  0.2886
17854SOL    HW255495   2.590   8.570   3.139  1.1575  0.7307  0.2956
17855SOL     OW55496   7.172   5.220   2.144  0.2952  0.2178  0.0024
17855SOL    HW155497   7.158   5.297   2.199 -0.1426 -0.8169  1.4257
17855SOL    HW255498   7.098   5.162   2.166  0.6329 -0.6250 -0.9980
17856SOL     OW55499   7.913   2.183   2.879 -0.1486  0.0999  0.4064
17856SOL    HW155500   7.844   2.183   2.813  1.5612 -1.1904 -1.4895
17856SOL    HW255501   7.893   2.106   2.934  0.4607 -1.0605 -0.9468
17857SOL     OW55502   4.455   0.889   7.424 -0.1591  0.4282  0.0935
17857SOL    HW155503   4.396   0.963   7.414 -0.1481  0.4810  0.4044
17857SOL    HW255504   4.401   0.821   7.465 -0.1054  0.3452  0.0276
17858SOL     OW55505   6.938   1.169   4.892  0.2602 -0.9976  0.0545
17858SOL    HW155506   6.982   1.091   4.857  2.5924  0.3131 -0.0978
17858SOL    HW255507   6.978   1.242   4.845 -1.9731  0.3333  0.1024
17859SOL     OW55508   0.340   3.323   2.889  0.8190  0.1836 -0.3750
17859SOL    HW155509   0.371   3.279   2.810 -2.0101  0.0831 -1.5595
17859SOL    HW255510   0.314   3.410   2.860  0.4102  0.4035  0.5981
17860SOL     OW55511   7.687   7.196   1.773  0.1440 -0.1404  0.4257
17860SOL    HW155512   7.730   7.114   1.799  0.6214  0.1778  0.6261
17860SOL    HW255513   7.694   7.198   1.678 -0.6729 -0.7786  0.3315
17861SOL     OW55514   4.705   7.995   3.032  0.5201  0.1771  0.2611
17861SOL    HW155515   4.728   7.925   2.971 -2.5084 -0.8748  0.1440
17861SOL    HW255516   4.716   7.956   3.119 -0.3750 -0.2034  0.2141
17862SOL     OW55517   2.631   2.136   3.613  0.2412  0.4130  0.5867
17862SOL    HW155518   2.620   2.044   3.639  3.1071 -0.1663  0.0465
17862SOL    HW255519   2.669   2.179   3.689 -0.9981  1.1733  0.8035
17863SOL     OW55520   6.163   0.629   1.600 -0.1328 -0.2600  0.3837
17863SOL    HW155521   6.239   0.590   1.557  1.2494  0.6564  1.8916
17863SOL    HW255522   6.137   0.564   1.666 -1.1409 -0.8747 -0.5717
17864SOL     OW55523   5.691   7.948   0.100  0.2144 -0.5163  0.2439
17864SOL    HW155524   5.697   7.933   0.195 -1.7882 -0.4976  0.4038
17864SOL    HW255525   5.695   8.043   0.091  1.1277 -0.5488  0.2333
17865SOL     OW55526   7.257   8.689   8.692 -0.2122 -0.3892  0.2152
17865SOL    HW155527   7.288   8.765   8.741  1.0059 -1.5241  1.3079
17865SOL    HW255528   7.165   8.681   8.716  0.4758 -1.2469  2.9053
17866SOL     OW55529   3.805   2.798   4.698  0.3625  0.3404 -0.7520
17866SOL    HW155530   3.737   2.797   4.765 -0.2281 -0.3638 -1.3459
17866SOL    HW255531   3.886   2.785   4.745 -0.2643 -2.9704 -0.4020
17867SOL     OW55532   7.617   8.669   3.656  0.7131  0.1897 -0.0417
17867SOL    HW155533   7.638   8.742   3.597 -0.9946 -0.0204 -0.9611
17867SOL    HW255534   7.534   8.694   3.697 -0.6805 -1.8135 -1.4656
17868SOL     OW55535   3.714   0.676   5.529 -0.1117  0.5708  0.6859
17868SOL    HW155536   3.771   0.662   5.605  3.2534  0.8281 -1.5988
17868SOL    HW255537   3.709   0.590   5.487  0.6139  1.0519 -0.4138
17869SOL     OW55538   0.755   0.248   0.903  0.2732 -0.2741  1.0080
17869SOL    HW155539   0.841   0.287   0.885  0.8676 -2.2605 -0.8841
17869SOL    HW255540   0.767   0.201   0.985  2.3324 -3.7950 -1.0837
17870SOL     OW55541   3.553   4.633   2.810 -0.2761 -0.1396 -0.0868
17870SOL    HW155542   3.557   4.644   2.715  2.1482 -1.9797 -0.2988
17870SOL    HW255543   3.535   4.539   2.823 -2.5833  0.4341  1.3272
17871SOL     OW55544   0.060   7.815   4.577 -0.5663  0.0663  0.2161
17871SOL    HW155545   0.056   7.911   4.567  0.9486  0.0215 -1.3625
17871SOL    HW255546  -0.031   7.787   4.574 -0.9999  1.4059 -0.0127
17872SOL     OW55547   7.064   6.818   0.762 -0.0895  0.1504  0.1424
17872SOL    HW155548   7.028   6.738   0.723  0.1830  0.6947 -1.3075
17872SOL    HW255549   7.158   6.801   0.770 -0.1685 -0.0137  0.6786
17873SOL     OW55550   5.520   0.071   6.092  0.3531  0.1534 -0.5631
17873SOL    HW155551   5.526   0.092   6.185  0.3269  1.0634 -0.7590
17873SOL    HW255552   5.609   0.086   6.058 -0.1763  2.3211 -1.1656
17874SOL     OW55553   5.721   0.273   4.816  0.9048 -0.5572 -0.2744
17874SOL    HW155554   5.726   0.232   4.902 -1.7021 -0.7547 -0.1454
17874SOL    HW255555   5.627   0.277   4.797  1.3807  0.1864 -2.7743
17875SOL     OW55556   5.857   2.294   3.790 -0.5339 -0.5034 -0.1914
17875SOL    HW155557   5.837   2.374   3.838 -0.9035 -0.3958 -0.5213
17875SOL    HW255558   5.942   2.311   3.749  0.4851 -1.1217  1.5653
17876SOL     OW55559   8.191   3.927   3.717  0.2207 -0.0905  0.4831
17876SOL    HW155560   8.149   3.867   3.778 -1.1941  0.1603 -0.2157
17876SOL    HW255561   8.192   3.881   3.634  2.2192 -0.4665  0.6542
17877SOL     OW55562   0.893   0.516   8.741  0.1648 -0.0497 -0.0787
17877SOL    HW155563   0.822   0.578   8.756 -0.4365 -0.5203 -0.9218
17877SOL    HW255564   0.970   0.558   8.779 -0.2633  1.1318 -0.4753
17878SOL     OW55565   7.103   7.133   3.834 -0.0086  0.2261 -0.6437
17878SOL    HW155566   7.029   7.085   3.798 -0.6544  0.2817  0.5702
17878SOL    HW255567   7.073   7.224   3.839 -0.9654 -0.1329  2.4145
17879SOL     OW55568   1.731   1.821   5.568  0.1082  0.2441 -0.3366
17879SOL    HW155569   1.698   1.758   5.503  0.5256 -0.2343 -0.0932
17879SOL    HW255570   1.820   1.792   5.586 -0.3281 -0.2429  1.2046
17880SOL     OW55571   3.867   3.391   2.199 -1.2200  0.0675 -0.2529
17880SOL    HW155572   3.827   3.478   2.196 -2.7549 -0.5450  0.8570
17880SOL    HW255573   3.796   3.331   2.175 -0.1008 -0.8810 -1.3449
17881SOL     OW55574   4.623   7.829   3.777 -0.5136  0.0986 -0.4021
17881SOL    HW155575   4.635   7.742   3.814  0.0635 -0.3842 -1.6654
17881SOL    HW255576   4.552   7.867   3.828 -0.1049 -0.7230  0.8240
17882SOL     OW55577   4.157   2.909   3.901  0.5259  0.9254 -0.0875
17882SOL    HW155578   4.078   2.929   3.851  0.7354  1.3041 -0.2675
17882SOL    HW255579   4.141   2.945   3.988  0.5566  1.1263 -0.1649
17883SOL     OW55580   7.692   5.717   0.527 -0.4591  0.4391  0.5044
17883SOL    HW155581   7.740   5.800   0.536 -2.2766  1.5795  0.3331
17883SOL    HW255582   7.740   5.655   0.582  1.7445  1.2099 -0.4451
17884SOL     OW55583   8.361   0.498   0.118  0.0165 -0.0183  0.4380
17884SOL    HW155584   8.395   0.580   0.154 -1.5176  0.6877  0.3666
17884SOL    HW255585   8.432   0.464   0.064  0.3106  1.8445 -0.4273
17885SOL     OW55586   5.491   0.128   5.059 -0.4007 -0.6123 -0.1019
17885SOL    HW155587   5.449   0.175   5.131 -0.7809 -1.7890  0.4790
17885SOL    HW255588   5.585   0.146   5.069 -0.5700  0.3184 -0.1344
17886SOL     OW55589   6.727   1.463   1.879 -0.1795  0.4555 -0.1037
17886SOL    HW155590   6.748   1.403   1.951  0.3570  2.2139  1.2872
17886SOL    HW255591   6.803   1.522   1.874 -0.3030  0.5086 -1.9885
17887SOL     OW55592   5.007   1.154   4.424 -0.7656 -0.5229  0.2562
17887SOL    HW155593   5.040   1.074   4.384 -2.4070 -0.8900 -0.4653
17887SOL    HW255594   5.013   1.138   4.519  0.0480 -0.9973  0.1274
17888SOL     OW55595   1.053   1.055   1.487  0.2684 -0.1971  0.2281
17888SOL    HW155596   1.101   1.098   1.558 -0.5451  0.2423  0.5265
17888SOL    HW255597   1.120   1.011   1.436  1.2570  2.0070 -0.5007
17889SOL     OW55598   4.176   4.120   6.147 -0.3849  0.2213 -0.5273
17889SOL    HW155599   4.253   4.173   6.166  1.6305 -0.9651 -4.2188
17889SOL    HW255600   4.124   4.174   6.088 -1.7637  0.4688  0.8497
17890SOL     OW55601   2.145   7.471   4.735 -0.2799  0.1526  1.2213
17890SOL    HW155602   2.050   7.475   4.734 -0.3863 -1.3297 -0.2492
17890SOL    HW255603   2.171   7.506   4.820 -1.9830  2.7734  0.7903
17891SOL     OW55604   2.189   8.027   7.547 -0.0962 -0.2310 -0.5700
17891SOL    HW155605   2.120   8.076   7.503  0.5609  0.2950 -1.0409
17891SOL    HW255606   2.169   7.935   7.528 -0.3572 -0.0572 -1.1653
17892SOL     OW55607   2.367   4.507   7.382 -0.7879 -0.4726  0.3451
17892SOL    HW155608   2.440   4.460   7.422 -0.7376 -0.3584  0.3882
17892SOL    HW255609   2.308   4.438   7.351 -0.5421 -0.5644  0.0883
17893SOL     OW55610   2.801   1.438   7.176 -0.4789  0.1418  0.0694
17893SOL    HW155611   2.708   1.450   7.196 -0.8816  0.7081 -1.9419
17893SOL    HW255612   2.803   1.421   7.082  1.6110  2.3737 -0.3694
17894SOL     OW55613   0.511   6.381   2.092 -0.6982  1.0002 -0.1867
17894SOL    HW155614   0.593   6.411   2.132  0.1122 -1.6932  0.3804
17894SOL    HW255615   0.478   6.457   2.044  1.9579  2.2657 -0.1739
17895SOL     OW55616   7.513   3.951   5.779 -0.0530 -0.1628 -0.3978
17895SOL    HW155617   7.447   3.882   5.787 -0.0797 -0.0023  1.0663
17895SOL    HW255618   7.538   3.950   5.686 -2.1867 -0.1413 -1.0345
17896SOL     OW55619   3.776   0.015   0.910  0.5713 -0.0603  0.2439
17896SOL    HW155620   3.761  -0.045   0.984  0.4048 -0.5877 -0.2098
17896SOL    HW255621   3.726  -0.023   0.838  0.2406  0.7761  0.0169
17897SOL     OW55622   6.303   0.673   8.185 -0.0021  0.0163 -0.4230
17897SOL    HW155623   6.361   0.681   8.260  0.1118 -0.7338 -0.4303
17897SOL    HW255624   6.325   0.749   8.130  0.1826  0.3510  0.1025
17898SOL     OW55625   0.106   0.133   5.967  0.3438 -0.0903  0.2644
17898SOL    HW155626   0.135   0.190   6.039  1.1365 -0.7910  0.5213
17898SOL    HW255627   0.182   0.127   5.909 -0.1041  0.0099 -0.3381
17899SOL     OW55628   4.501   3.561   5.903 -0.2934  0.2257  0.0657
17899SOL    HW155629   4.541   3.532   5.820 -0.6634  0.9743 -0.3838
17899SOL    HW255630   4.408   3.540   5.893 -0.6727  2.0010 -0.4948
17900SOL     OW55631   8.665   4.449   4.986  0.0213 -0.3423 -0.3722
17900SOL    HW155632   8.711   4.370   5.013  0.7588  0.6573  1.4985
17900SOL    HW255633   8.589   4.454   5.045  0.1121  0.4294 -0.3038
17901SOL     OW55634   4.876   1.687   4.032  0.0153 -0.4310  0.0647
17901SOL    HW155635   4.893   1.594   4.047  0.6338 -0.5665 -1.3277
17901SOL    HW255636   4.962   1.723   4.010  0.0428  0.7790  1.9356
17902SOL     OW55637   6.835   0.570   2.824 -0.3408  0.4997  0.0440
17902SOL    HW155638   6.866   0.659   2.841 -1.8360  0.4977  3.8909
17902SOL    HW255639   6.911   0.515   2.837 -0.1436  1.0284  1.2913
17903SOL     OW55640   7.974   4.700   2.035  0.4868 -0.3296  0.1212
17903SOL    HW155641   8.044   4.747   1.989 -0.1462  0.9904  0.4503
17903SOL    HW255642   7.911   4.768   2.058  0.7277 -0.9213  2.8555
17904SOL     OW55643   5.520   5.812   3.971 -0.0970 -0.3137  0.1305
17904SOL    HW155644   5.584   5.800   4.042 -2.1393 -0.5307  2.0370
17904SOL    HW255645   5.532   5.903   3.944  1.7049 -0.6464 -0.3006
17905SOL     OW55646   8.369   0.948   2.889  0.4525  0.5157  0.3530
17905SOL    HW155647   8.275   0.939   2.873  0.6328 -1.7218  0.3059
17905SOL    HW255648   8.405   0.863   2.867  2.6966  1.6897 -0.8312
17906SOL     OW55649   4.494   1.149   1.416 -0.1300 -0.0559  0.2168
17906SOL    HW155650   4.512   1.090   1.343 -1.5602  0.8986 -0.9715
17906SOL    HW255651   4.515   1.236   1.381 -0.7582  0.4095  0.9766
17907SOL     OW55652   6.854   3.971   2.445 -0.2221  0.6859  0.4053
17907SOL    HW155653   6.820   3.981   2.356 -1.6489 -0.0794  0.8248
17907SOL    HW255654   6.939   4.014   2.444 -0.8100  1.8825 -0.9736
17908SOL     OW55655   4.192   4.971   0.681  0.7310  0.0647 -0.1534
17908SOL    HW155656   4.121   4.992   0.742  0.5578 -0.1722 -0.2714
17908SOL    HW255657   4.233   4.893   0.717 -1.6643 -2.3406 -2.1752
17909SOL     OW55658   4.630   0.266   1.859  0.1677 -0.0742  0.5325
17909SOL    HW155659   4.579   0.294   1.783 -1.3639 -0.5233  1.3472
17909SOL    HW255660   4.684   0.194   1.827  1.3736  1.3190 -0.6845
17910SOL     OW55661   8.424   1.327   5.778 -0.5843  0.1835 -0.0050
17910SOL    HW155662   8.381   1.299   5.698 -1.2491 -0.8783  0.6916
17910SOL    HW255663   8.386   1.271   5.846 -0.1817  1.1868  1.0774
17911SOL     OW55664   5.354   5.540   5.122 -0.2717  0.2856 -0.1224
17911SOL    HW155665   5.425   5.482   5.152 -0.9030 -0.5523 -0.1996
17911SOL    HW255666   5.373   5.624   5.162  0.6648  0.0222  0.0138
17912SOL     OW55667   0.060   4.023   2.725  0.0413 -0.2132  0.1422
17912SOL    HW155668   0.143   3.997   2.684  0.6783  0.8340  0.7171
17912SOL    HW255669   0.039   3.952   2.785 -0.4235 -1.3289 -1.2771
17913SOL     OW55670   0.100   7.743   6.600 -0.5235 -0.0510 -0.6538
17913SOL    HW155671   0.139   7.827   6.624  1.1141 -1.0042  0.1652
17913SOL    HW255672   0.049   7.717   6.678  0.5377 -0.6924 -0.1533
17914SOL     OW55673   1.304   3.380   5.502  0.1375  0.1390  0.2782
17914SOL    HW155674   1.212   3.354   5.492 -0.9395  2.6404  2.5170
17914SOL    HW255675   1.342   3.312   5.556 -1.0568  0.2354  1.2847
17915SOL     OW55676   1.574   4.255   4.232  0.7126 -0.8079  0.1098
17915SOL    HW155677   1.591   4.207   4.151  2.0158  1.2563 -0.9232
17915SOL    HW255678   1.478   4.262   4.235  0.6175 -1.3040 -1.0144
17916SOL     OW55679   0.547   1.570   3.067  0.1312 -0.0329  0.1440
17916SOL    HW155680   0.625   1.592   3.117 -0.1305  1.7307 -0.1404
17916SOL    HW255681   0.501   1.654   3.057 -1.7554 -1.0056  0.2441
17917SOL     OW55682   3.080   2.323   6.680  0.3775 -0.2977 -0.2004
17917SOL    HW155683   3.136   2.362   6.748  0.3054 -1.1704  0.3794
17917SOL    HW255684   3.058   2.236   6.714 -0.9294 -0.1626 -0.6390
17918SOL     OW55685   7.300   3.794   6.735  0.3815  0.3650  0.1164
17918SOL    HW155686   7.217   3.841   6.739 -0.0307 -0.2552 -0.7840
17918SOL    HW255687   7.295   3.731   6.807 -0.2489 -0.1503 -0.3635
17919SOL     OW55688   8.422   3.116   7.898  0.3469  0.3202  0.2313
17919SOL    HW155689   8.487   3.105   7.828  0.7207  1.8364  0.2976
17919SOL    HW255690   8.473   3.143   7.974 -0.0713 -1.2183  1.0900
17920SOL     OW55691   7.869   3.247   5.354 -0.3244 -0.2807 -0.2394
17920SOL    HW155692   7.791   3.297   5.381  0.7409 -0.2758  3.4832
17920SOL    HW255693   7.836   3.159   5.336 -1.2736 -0.2472  1.1704
17921SOL     OW55694   5.378   0.545   4.284  0.3649 -0.0564 -0.3085
17921SOL    HW155695   5.345   0.515   4.200 -2.0039  0.6939  0.2901
17921SOL    HW255696   5.449   0.606   4.262  0.9816 -1.2100 -1.6545
17922SOL     OW55697   6.834   4.225   4.453 -0.6872 -0.2199 -0.1732
17922SOL    HW155698   6.778   4.232   4.375 -0.0899 -1.7648 -0.7869
17922SOL    HW255699   6.887   4.147   4.437  1.8487  1.3123  0.2383
17923SOL     OW55700   6.597   3.907   7.969  0.1190 -0.0584  0.2341
17923SOL    HW155701   6.692   3.910   7.979  0.1171 -0.5305  0.3898
17923SOL    HW255702   6.567   3.990   8.006  0.3841 -0.3598  1.1413
17924SOL     OW55703   4.245   4.526   2.265  0.4495 -0.4869  0.3038
17924SOL    HW155704   4.321   4.529   2.322  2.1484 -1.0182 -1.8224
17924SOL    HW255705   4.232   4.617   2.236  1.2533 -0.6310 -0.5324
17925SOL     OW55706   3.960   6.326   0.296 -0.2845 -0.5234 -0.2916
17925SOL    HW155707   3.925   6.406   0.337  1.8084 -0.1987  1.0319
17925SOL    HW255708   3.885   6.267   0.290 -1.5146  0.9137  0.3183
17926SOL     OW55709   0.126   7.791   1.655  1.1676 -0.4510 -0.5315
17926SOL    HW155710   0.093   7.868   1.701 -0.2363 -2.0397  1.2213
17926SOL    HW255711   0.202   7.762   1.706 -0.7188 -2.5404  1.2874
17927SOL     OW55712   6.282   0.088   0.709  0.5756 -0.1877 -0.0418
17927SOL    HW155713   6.210   0.151   0.716  0.1243 -0.7575  0.5260
17927SOL    HW255714   6.263   0.039   0.629 -0.5420 -1.3901  0.9234
17928SOL     OW55715   2.661   5.860   1.762  0.6604 -0.2321 -0.1382
17928SOL    HW155716   2.756   5.855   1.762  0.8141  1.2316 -2.4362
17928SOL    HW255717   2.634   5.801   1.691 -0.1296 -0.3908  0.2806
17929SOL     OW55718   8.132   1.378   0.750 -0.2109  0.2085  0.2496
17929SOL    HW155719   8.212   1.409   0.708  0.0849  0.7151  1.1639
17929SOL    HW255720   8.066   1.444   0.729 -0.7071 -0.7754 -1.4580
17930SOL     OW55721   6.423   0.688   0.036  0.5656 -0.6742  0.3944
17930SOL    HW155722   6.422   0.783   0.036 -0.4247 -0.6469 -1.3708
17930SOL    HW255723   6.367   0.663   0.110 -1.1508  0.1446 -0.5817
17931SOL     OW55724   8.397   2.341   4.591 -0.5383 -0.8803 -0.1666
17931SOL    HW155725   8.452   2.329   4.669 -0.9363 -0.3967  0.1990
17931SOL    HW255726   8.314   2.372   4.626 -0.0799  1.3352 -0.9034
17932SOL     OW55727   3.247   6.381   0.663 -0.7196 -0.1660 -0.0761
17932SOL    HW155728   3.188   6.308   0.644  0.6282 -1.3869  0.2339
17932SOL    HW255729   3.243   6.436   0.585 -0.6759 -1.3299 -0.9219
17933SOL     OW55730   2.585   1.067   3.650 -0.0189  0.0914 -0.1244
17933SOL    HW155731   2.641   1.034   3.580 -1.1508  1.4106 -1.7419
17933SOL    HW255732   2.639   1.063   3.728  1.8829  0.1071 -1.3719
17934SOL     OW55733   4.471   2.274   0.234 -0.2442 -0.0353  0.9505
17934SOL    HW155734   4.449   2.345   0.174 -2.3732 -0.9008  0.6170
17934SOL    HW255735   4.523   2.214   0.182 -0.2945  0.2208  0.5983
17935SOL     OW55736   8.081   0.883   2.010  0.4813  0.0769 -0.2052
17935SOL    HW155737   8.104   0.966   1.968 -1.1988  0.1693 -1.0251
17935SOL    HW255738   8.083   0.902   2.104 -0.7646  1.3190 -0.4007
17936SOL     OW55739   3.750   1.169   5.619 -0.0924 -0.2287  0.2443
17936SOL    HW155740   3.708   1.146   5.536  1.5793  1.7309 -1.2492
17936SOL    HW255741   3.708   1.113   5.684 -2.7582 -0.5421 -1.6125
17937SOL     OW55742   4.148   6.750   7.825  0.3978  0.4554 -0.4931
17937SOL    HW155743   4.111   6.684   7.766  0.1900  1.0493 -1.0396
17937SOL    HW255744   4.072   6.787   7.869  0.4656  0.7070 -0.5885
17938SOL     OW55745   2.073   0.863   5.911 -0.4864  0.1933  0.1965
17938SOL    HW155746   2.013   0.807   5.962  0.4178 -0.2369  0.8143
17938SOL    HW255747   2.128   0.905   5.977  0.2935  0.1214 -0.3972
17939SOL     OW55748   2.705   7.823   1.141 -0.0052 -0.5336 -0.0300
17939SOL    HW155749   2.635   7.789   1.198 -1.1374  0.2156 -0.9315
17939SOL    HW255750   2.702   7.918   1.153  0.2477 -0.4270 -0.7732
17940SOL     OW55751   4.189   8.164   5.815 -0.4794 -0.0220 -0.1276
17940SOL    HW155752   4.183   8.239   5.875 -0.5148  0.5910 -0.8894
17940SOL    HW255753   4.183   8.203   5.728  2.4466 -0.5543 -0.6597
17941SOL     OW55754   3.602   5.454   6.952 -0.0159 -0.1423 -0.7144
17941SOL    HW155755   3.527   5.409   6.915  0.8854 -1.4495 -1.0307
17941SOL    HW255756   3.581   5.463   7.045  0.0925 -1.9788 -0.4725
17942SOL     OW55757   7.744   7.310   7.589 -0.0808  0.3215 -0.3245
17942SOL    HW155758   7.825   7.359   7.580  0.0316  0.4928  1.3696
17942SOL    HW255759   7.740   7.257   7.510  0.1072  2.5503 -1.9299
17943SOL     OW55760   5.044   1.733   8.661 -0.4397 -0.7798 -0.0104
17943SOL    HW155761   4.957   1.772   8.652 -0.1465 -0.4638 -1.9844
17943SOL    HW255762   5.029   1.651   8.707 -1.6603 -0.3263  0.4412
17944SOL     OW55763   6.427   4.805   5.510  0.2370  0.4538  0.2628
17944SOL    HW155764   6.411   4.721   5.555 -2.3709  1.3448  1.2234
17944SOL    HW255765   6.419   4.870   5.579  1.1791  1.5738 -0.6622
17945SOL     OW55766   7.362   3.786   7.589 -0.4200 -0.4162 -0.7302
17945SOL    HW155767   7.392   3.702   7.622  0.5682 -0.5841 -1.9602
17945SOL    HW255768   7.308   3.764   7.513 -1.3388  0.0210 -0.2233
17946SOL     OW55769   8.617   3.753   0.867  0.1722 -0.1120  0.3079
17946SOL    HW155770   8.563   3.821   0.828  0.0019  0.0831  0.8717
17946SOL    HW255771   8.643   3.788   0.952  1.1409 -0.2295  0.0723
17947SOL     OW55772   8.830   3.832   3.230  0.2288  0.1103  0.2137
17947SOL    HW155773   8.892   3.796   3.167 -0.0668 -1.0905  0.5732
17947SOL    HW255774   8.883   3.854   3.307 -0.0268 -3.6119  1.6709
17948SOL     OW55775   5.384   0.057   5.640 -0.1148 -0.2292  0.5552
17948SOL    HW155776   5.390  -0.031   5.677  0.0247  0.2274  1.6688
17948SOL    HW255777   5.291   0.079   5.644 -0.4622 -1.0504 -1.5598
17949SOL     OW55778   8.088   0.226   2.285  0.1893 -0.6653  0.1842
17949SOL    HW155779   8.031   0.150   2.289  0.7437 -1.0629  0.8553
17949SOL    HW255780   8.106   0.247   2.377 -0.2699  0.5201  0.0246
17950SOL     OW55781   2.585   7.916   6.955 -0.4387  0.0274  0.7470
17950SOL    HW155782   2.547   7.854   6.892  1.3193 -2.1260  1.7019
17950SOL    HW255783   2.554   8.002   6.924 -1.2468 -1.0842 -1.8755
17951SOL     OW55784   7.153   7.069   4.086  0.6621 -0.2444  0.4054
17951SOL    HW155785   7.135   7.094   3.995 -1.6633  0.4945  0.9919
17951SOL    HW255786   7.152   7.152   4.134 -2.1150 -0.8789  1.6347
17952SOL     OW55787   7.929   1.092   4.126 -0.2821  0.4557  0.0891
17952SOL    HW155788   7.902   1.181   4.107  0.3678  0.1586 -2.5220
17952SOL    HW255789   8.024   1.093   4.115 -0.1737 -0.3937  0.8196
17953SOL     OW55790   8.231   0.522   6.110 -0.0543 -0.8168 -0.1437
17953SOL    HW155791   8.189   0.459   6.051 -0.5317 -1.6203  1.0310
17953SOL    HW255792   8.230   0.604   6.061 -3.2669 -0.7279 -0.0972
17954SOL     OW55793   6.051   4.886   3.838  0.4545 -0.1020 -0.5455
17954SOL    HW155794   5.956   4.895   3.830  0.3067 -1.3553 -0.4230
17954SOL    HW255795   6.084   4.976   3.840 -0.9593  0.4803  2.5145
17955SOL     OW55796   0.494   8.505   3.112 -0.2065  0.0106 -0.7085
17955SOL    HW155797   0.546   8.582   3.090 -0.6514  0.4184 -0.3165
17955SOL    HW255798   0.546   8.459   3.178 -0.5003  0.6007 -0.0566
17956SOL     OW55799   2.291   4.466   7.017  0.1021  0.4136  0.5695
17956SOL    HW155800   2.332   4.418   7.089  1.1976 -1.4898 -1.2103
17956SOL    HW255801   2.212   4.416   6.998  1.4220 -1.0511 -1.5211
17957SOL     OW55802   3.824   8.741   8.141  0.1823  0.8257 -0.1601
17957SOL    HW155803   3.747   8.713   8.090  1.4608  0.1376 -1.7807
17957SOL    HW255804   3.825   8.837   8.132  1.6052  0.6279 -3.4181
17958SOL     OW55805   0.716   5.075   6.734 -0.1702  0.0047  0.4317
17958SOL    HW155806   0.759   5.093   6.650 -1.0000 -2.3519 -0.5787
17958SOL    HW255807   0.787   5.041   6.789 -0.0139 -0.4049 -0.0126
17959SOL     OW55808   0.662   2.407   7.168  0.1478 -0.6404  0.3289
17959SOL    HW155809   0.747   2.385   7.130 -0.5675  0.9310 -2.4664
17959SOL    HW255810   0.624   2.322   7.191  2.0035 -1.4468  0.5996
17960SOL     OW55811   6.212   0.923   8.559  0.0883 -0.5865  0.8790
17960SOL    HW155812   6.176   0.984   8.495  0.6953 -1.5050 -0.3881
17960SOL    HW255813   6.150   0.925   8.632 -1.8040 -1.0968 -0.6332
17961SOL     OW55814   8.118   7.570   3.852 -0.2301  0.1869  0.0568
17961SOL    HW155815   8.063   7.501   3.815  0.4121  0.1352 -0.8501
17961SOL    HW255816   8.208   7.537   3.842  0.0013  0.5125  0.9774
17962SOL     OW55817   0.202   0.898   6.967  0.4912  0.4806  0.0678
17962SOL    HW155818   0.201   0.981   7.014  0.5639  1.1063 -1.0048
17962SOL    HW255819   0.159   0.836   7.026  1.8458  0.8920  1.5603
17963SOL     OW55820   5.313   5.047   6.805  0.1660  0.3754 -0.0411
17963SOL    HW155821   5.315   4.954   6.782  3.0864  0.1663  0.6373
17963SOL    HW255822   5.357   5.091   6.732 -1.7613  1.3537 -0.6606
17964SOL     OW55823   2.998   4.880   1.900 -0.7450  0.2095  0.2409
17964SOL    HW155824   3.015   4.841   1.986  0.2341 -0.6393 -0.3149
17964SOL    HW255825   3.001   4.807   1.839  2.6115  1.2114 -1.0265
17965SOL     OW55826   6.270   8.446   4.690 -0.1183 -0.5471  0.2623
17965SOL    HW155827   6.214   8.369   4.702 -0.3938 -0.4380 -0.3000
17965SOL    HW255828   6.272   8.460   4.595  1.8314 -1.2735  0.1412
17966SOL     OW55829   1.154   7.762   7.825  0.3239 -0.3762 -0.1641
17966SOL    HW155830   1.204   7.754   7.744  0.8878 -0.3044  0.1755
17966SOL    HW255831   1.198   7.704   7.886  0.7310  0.6001  0.4980
17967SOL     OW55832   1.121   3.675   8.085 -0.2255 -0.4949  0.3202
17967SOL    HW155833   1.036   3.686   8.042 -0.2294 -1.9601 -0.0867
17967SOL    HW255834   1.110   3.598   8.140  0.8768 -0.7612  0.1869
17968SOL     OW55835   0.799   3.623   2.537 -0.2945  0.3555 -0.2202
17968SOL    HW155836   0.787   3.643   2.444  0.3552  2.2254  0.0608
17968SOL    HW255837   0.733   3.677   2.581 -1.2345 -1.2253  0.3809
17969SOL     OW55838   7.045   2.555   0.738  0.5568 -0.0020  0.1426
17969SOL    HW155839   6.985   2.588   0.672  1.2867 -0.1889 -0.6370
17969SOL    HW255840   7.005   2.578   0.822  0.0223  0.9815 -0.3687
17970SOL     OW55841   0.553   5.849   7.090 -0.1966 -0.2417 -0.5639
17970SOL    HW155842   0.489   5.919   7.103  0.0649  0.1148 -1.1416
17970SOL    HW255843   0.512   5.791   7.025  0.5707  0.6669 -1.9126
17971SOL     OW55844   8.321   2.010   8.762  0.1542 -0.7418  0.4416
17971SOL    HW155845   8.299   2.033   8.852 -1.0515 -0.8501  0.1872
17971SOL    HW255846   8.300   1.917   8.755  0.5038 -0.7993  0.1246
17972SOL     OW55847   8.367   6.559   6.823  0.3001 -0.0095  0.5014
17972SOL    HW155848   8.318   6.507   6.887  1.9135 -0.5385  1.3521
17972SOL    HW255849   8.424   6.497   6.778 -0.7095  0.3741 -1.4196
17973SOL     OW55850   6.953   0.444   4.781 -0.0106  0.5462 -0.1257
17973SOL    HW155851   6.913   0.507   4.840  1.4206  0.4603  1.0130
17973SOL    HW255852   6.950   0.361   4.829 -2.0691 -0.3626 -1.6866
17974SOL     OW55853   8.184   2.477   0.302  0.0034 -0.1083 -0.3266
17974SOL    HW155854   8.156   2.454   0.391 -2.5883  0.6002 -0.8689
17974SOL    HW255855   8.229   2.399   0.270 -1.3314 -1.3571  0.7061
17975SOL     OW55856   0.878   1.037   3.896  0.0363  0.1174 -0.3228
17975SOL    HW155857   0.850   1.086   3.819  0.0805  1.4603  0.4855
17975SOL    HW255858   0.803   1.040   3.955 -0.1244 -1.2076 -0.4273
17976SOL     OW55859   1.421   2.250   2.356 -0.0159  0.1413  0.0114
17976SOL    HW155860   1.495   2.197   2.329  1.4658  1.8436  0.5025
17976SOL    HW255861   1.384   2.284   2.274 -0.4759 -0.9583 -0.2509
17977SOL     OW55862   3.756   2.866   8.214 -0.0944 -0.4263  0.0908
17977SOL    HW155863   3.713   2.809   8.150  1.2796  1.0610 -2.2928
17977SOL    HW255864   3.849   2.843   8.208  0.2436  0.7934  0.4132
17978SOL     OW55865   0.265   6.696   0.949  0.4711 -0.2365 -0.5753
17978SOL    HW155866   0.331   6.722   0.885  0.2358  0.7399 -0.4381
17978SOL    HW255867   0.185   6.739   0.921  0.8858  2.2504  1.6636
17979SOL     OW55868   8.074   1.296   2.312  0.6271 -0.0781  0.1029
17979SOL    HW155869   8.004   1.332   2.366  0.0704 -0.0054 -0.6502
17979SOL    HW255870   8.032   1.277   2.228  1.3885 -0.5435 -0.1826
17980SOL     OW55871   7.126   0.421   6.540  0.6418  0.3066 -0.2109
17980SOL    HW155872   7.180   0.349   6.571  2.1706  1.6289  0.3059
17980SOL    HW255873   7.125   0.484   6.612  0.6453  1.4845 -1.1999
17981SOL     OW55874   7.369   1.852   7.948 -0.4373  0.2827 -0.4387
17981SOL    HW155875   7.294   1.797   7.970 -1.5862  1.8956 -0.1116
17981SOL    HW255876   7.369   1.920   8.016  1.7709 -0.0707 -0.0301
17982SOL     OW55877   3.263   3.450   0.745  1.1320  0.2776  0.3392
17982SOL    HW155878   3.215   3.531   0.728 -0.8577 -1.0839 -1.0131
17982SOL    HW255879   3.334   3.450   0.681 -0.2045 -0.0339 -1.2105
17983SOL     OW55880   5.643   4.458   7.285 -0.5219 -0.2608  0.4391
17983SOL    HW155881   5.600   4.393   7.229 -0.3453 -0.8381  0.9654
17983SOL    HW255882   5.573   4.519   7.309 -0.2597  1.0414 -1.8497
17984SOL     OW55883   3.277   4.885   7.401  0.4039 -0.0181  0.6335
17984SOL    HW155884   3.238   4.806   7.439 -1.2782  0.6380  0.3605
17984SOL    HW255885   3.248   4.884   7.310 -0.8200  1.6082  0.9627
17985SOL     OW55886   1.029   2.756   5.080  0.2788  0.1891 -0.3571
17985SOL    HW155887   0.946   2.799   5.102  0.4245 -0.0418  0.6554
17985SOL    HW255888   1.027   2.749   4.984 -1.2524 -0.5664 -0.2953
17986SOL     OW55889   6.720   2.722   2.498 -0.1306 -0.2551  0.1013
17986SOL    HW155890   6.655   2.751   2.433  0.3790  0.3637 -0.1360
17986SOL    HW255891   6.703   2.628   2.507 -0.4465 -0.2842 -0.6643
17987SOL     OW55892   1.648   8.765   1.656 -0.2582 -0.3771 -0.2857
17987SOL    HW155893   1.562   8.766   1.697  0.0320  1.0821  0.3241
17987SOL    HW255894   1.644   8.834   1.590  1.0633  1.1357  1.1303
17988SOL     OW55895   1.068   5.200   6.746  0.1323  0.5354  0.3922
17988SOL    HW155896   1.035   5.153   6.670 -0.4457  2.0090 -0.3007
17988SOL    HW255897   1.159   5.170   6.755  0.4736  0.9031 -1.3848
17989SOL     OW55898   4.310   1.914   4.760 -0.2286  0.1066  0.3670
17989SOL    HW155899   4.358   1.851   4.706  2.4389  1.5302  0.8993
17989SOL    HW255900   4.265   1.860   4.825 -0.4114 -1.3987 -0.9525
17990SOL     OW55901   6.886   6.553   2.544  0.8710  1.0310  0.0355
17990SOL    HW155902   6.911   6.540   2.636  0.3237  0.7904  0.1550
17990SOL    HW255903   6.799   6.594   2.548  0.6383  0.5860 -0.3763
17991SOL     OW55904   3.085   8.865   0.161  0.0627  0.4879  0.0154
17991SOL    HW155905   3.126   8.865   0.247 -0.1050  1.9555  0.1175
17991SOL    HW255906   3.024   8.938   0.163  0.0491  0.5472 -1.3397
17992SOL     OW55907   5.392   0.839   3.964  0.5220  0.3988 -0.5255
17992SOL    HW155908   5.465   0.844   3.901  0.5050 -0.0807 -0.5863
17992SOL    HW255909   5.314   0.852   3.910  0.4742 -0.5406 -0.6913
17993SOL     OW55910   2.790   0.498   5.514 -0.1174 -0.3637 -0.2614
17993SOL    HW155911   2.874   0.453   5.518 -0.1068 -0.3110  0.2533
17993SOL    HW255912   2.764   0.493   5.422  0.2134 -0.8085 -0.3360
17994SOL     OW55913   0.574   1.300   5.588 -0.3914  0.0026 -0.0501
17994SOL    HW155914   0.668   1.313   5.604  0.0578 -0.8268 -1.8200
17994SOL    HW255915   0.532   1.370   5.638  1.3033  1.7911 -0.9863
17995SOL     OW55916   4.107   4.595   0.474  0.0067  0.0086  0.0453
17995SOL    HW155917   4.110   4.642   0.390  1.8446 -1.7745 -0.9727
17995SOL    HW255918   4.194   4.609   0.512 -0.2281 -0.6447  0.8447
17996SOL     OW55919   6.455   1.055   5.491 -0.1448 -0.0767 -0.2618
17996SOL    HW155920   6.378   1.062   5.434  0.4008  1.2218 -0.8722
17996SOL    HW255921   6.429   0.993   5.559 -2.7374  2.2322  1.0710
17997SOL     OW55922   4.492   5.977   0.934 -0.2378 -0.1597 -0.1425
17997SOL    HW155923   4.483   6.071   0.951  0.4223  0.0842 -1.0561
17997SOL    HW255924   4.574   5.969   0.885  0.6639 -1.4348  1.5024
17998SOL     OW55925   0.827   2.055   8.188  0.2247  0.1455  0.0970
17998SOL    HW155926   0.855   2.122   8.251  0.9726 -0.6674  0.6587
17998SOL    HW255927   0.756   2.008   8.233  2.2353 -1.9035  1.3573
17999SOL     OW55928   1.104   8.257   4.961 -0.1529  0.5281  0.0202
17999SOL    HW155929   1.110   8.349   4.986  0.4314  0.1645  1.3246
17999SOL    HW255930   1.014   8.246   4.929 -0.3814  1.4257  0.3225
18000SOL     OW55931   2.549   7.545   3.913 -0.4342  0.2921  0.5798
18000SOL    HW155932   2.581   7.591   3.835 -0.4429 -0.3557  0.1862
18000SOL    HW255933   2.553   7.452   3.889 -1.0846  0.1220  1.1078
18001SOL     OW55934   0.983   2.963   1.966  0.2773  0.5905 -0.4319
18001SOL    HW155935   0.922   2.894   1.940 -0.2937  0.5349  0.9391
18001SOL    HW255936   0.985   2.958   2.062 -0.1832  2.7866 -0.2458
18002SOL     OW55937   4.859   5.996   8.853  0.3024 -0.0310  0.5284
18002SOL    HW155938   4.874   5.925   8.915  0.6981 -0.0444  0.4199
18002SOL    HW255939   4.764   6.003   8.847  0.2615 -0.5425  0.5446
18003SOL     OW55940   2.021   3.563   4.916 -0.5113 -0.5121 -0.1695
18003SOL    HW155941   2.096   3.529   4.867  0.6054 -0.7924  1.6640
18003SOL    HW255942   2.017   3.656   4.894  0.8276 -0.3386  0.2663
18004SOL     OW55943   7.454   0.965   2.939  0.1939 -0.2784 -0.1298
18004SOL    HW155944   7.537   0.973   2.986 -0.0151 -2.3528  0.7003
18004SOL    HW255945   7.478   0.924   2.856  0.4157  2.4087 -1.5017
18005SOL     OW55946   4.712   5.478   2.225  0.5440  0.0746  0.2054
18005SOL    HW155947   4.773   5.454   2.295 -0.4019  0.1535  1.0837
18005SOL    HW255948   4.645   5.409   2.228  0.6799 -0.1087 -0.8539
18006SOL     OW55949   1.520   4.212   2.495  0.1442 -0.1289 -0.5279
18006SOL    HW155950   1.497   4.247   2.581  1.4123 -0.4981 -0.0120
18006SOL    HW255951   1.544   4.121   2.511  0.8770 -0.0619 -1.1856
18007SOL     OW55952   3.954   4.397   6.326  0.7079 -0.4048 -0.8548
18007SOL    HW155953   3.955   4.445   6.408  2.9791 -0.9971 -0.4505
18007SOL    HW255954   3.975   4.463   6.259 -0.2795 -0.0870 -0.8598
18008SOL     OW55955   6.325   8.175   5.295 -0.5261 -0.0873  0.2328
18008SOL    HW155956   6.308   8.158   5.202  0.1332  2.5218 -0.4337
18008SOL    HW255957   6.298   8.266   5.307  1.2683  0.2354  2.1289
18009SOL     OW55958   2.231   6.814   5.324  0.1289 -0.4846 -0.2390
18009SOL    HW155959   2.258   6.820   5.233 -1.5550  0.5841 -0.7276
18009SOL    HW255960   2.171   6.740   5.327 -0.2008 -0.2192 -0.1234
18010SOL     OW55961   4.421   2.082   1.452 -0.3687  0.5700 -0.3062
18010SOL    HW155962   4.459   2.135   1.382 -1.1779  0.9403 -0.4732
18010SOL    HW255963   4.490   2.019   1.475 -0.5587 -0.4801 -2.3927
18011SOL     OW55964   8.489   8.220   6.003 -0.1779  0.1710 -0.0386
18011SOL    HW155965   8.502   8.270   5.922 -0.3357 -0.6238 -0.5632
18011SOL    HW255966   8.556   8.152   6.001 -1.4524 -1.1082 -0.5150
18012SOL     OW55967   1.849   3.639   1.618 -0.0710  0.8276  0.3690
18012SOL    HW155968   1.817   3.560   1.577 -0.1194  1.4985 -0.9230
18012SOL    HW255969   1.845   3.706   1.550 -0.5239  2.0798  1.5506
18013SOL     OW55970   5.488   8.032   5.136 -0.2747 -0.1563  0.1867
18013SOL    HW155971   5.568   7.988   5.163 -0.6377 -1.0543 -0.1856
18013SOL    HW255972   5.426   8.016   5.207 -1.1617 -2.3359 -0.9851
18014SOL     OW55973   0.217   5.225   2.000 -0.3239  0.0048 -0.4961
18014SOL    HW155974   0.243   5.147   2.048  0.6307  0.9233  0.5314
18014SOL    HW255975   0.132   5.203   1.963  1.1448 -2.6189 -2.7644
18015SOL     OW55976   2.102   5.369   2.856  0.0105  0.2953 -0.1510
18015SOL    HW155977   2.174   5.352   2.917 -0.2169 -4.3242 -0.7604
18015SOL    HW255978   2.143   5.413   2.781  1.4813  0.7356  0.8804
18016SOL     OW55979   5.206   6.780   3.814 -0.7821 -0.2183  0.0678
18016SOL    HW155980   5.206   6.816   3.903 -0.4445 -0.9388  0.3650
18016SOL    HW255981   5.273   6.712   3.816  0.0534  0.5413 -1.0596
18017SOL     OW55982   3.800   3.450   8.812 -0.4317  0.3149 -0.1855
18017SOL    HW155983   3.854   3.503   8.754  0.7914  0.1268  0.7346
18017SOL    HW255984   3.863   3.401   8.864 -1.5274 -1.2959 -0.3231
18018SOL     OW55985   4.860   7.660   7.789 -0.2564  0.1345 -0.0265
18018SOL    HW155986   4.948   7.624   7.785 -0.6794 -0.8928 -0.6307
18018SOL    HW255987   4.825   7.628   7.873  0.1656  1.1108  0.5352
18019SOL     OW55988   8.759   7.136   5.225 -0.3182 -0.7907 -0.0576
18019SOL    HW155989   8.854   7.143   5.237 -0.2400  1.0045 -1.2447
18019SOL    HW255990   8.726   7.224   5.241 -1.1391 -0.1282 -4.1336
18020SOL     OW55991   5.670   0.137   3.998 -0.2967 -0.4646  0.0903
18020SOL    HW155992   5.690   0.168   3.910 -0.2992 -0.0008  0.2502
18020SOL    HW255993   5.745   0.163   4.051 -0.9998  0.6982  0.5531
18021SOL     OW55994   4.961   0.432   5.095 -0.2878 -0.2779 -0.2655
18021SOL    HW155995   4.949   0.342   5.064  0.6010 -0.2400 -0.7609
18021SOL    HW255996   4.946   0.427   5.189  0.5560 -1.1108 -0.1577
18022SOL     OW55997   4.711   1.273   3.739  0.0594  0.0444  0.5614
18022SOL    HW155998   4.661   1.324   3.803 -0.8063 -0.7672  0.5370
18022SOL    HW255999   4.705   1.183   3.770  1.1230 -0.1272  0.3019
18023SOL     OW56000   1.431   1.458   1.157  0.4012 -0.2380 -0.4536
18023SOL    HW156001   1.408   1.423   1.071  2.2193 -0.3717 -0.9196
18023SOL    HW256002   1.507   1.407   1.185 -0.7184 -0.8487  1.6975
18024SOL     OW56003   4.034   0.323   5.426 -0.2202  0.1862  0.1198
18024SOL    HW156004   4.065   0.242   5.466  0.5833  0.4250 -0.0173
18024SOL    HW256005   4.015   0.300   5.335 -0.1698  0.1061  0.1299
18025SOL     OW56006   1.188   5.633   6.035  0.1816 -0.7109  0.5885
18025SOL    HW156007   1.219   5.618   6.124  0.3598  1.4181  0.9440
18025SOL    HW256008   1.100   5.670   6.046  1.1324  1.8955  0.0752
18026SOL     OW56009   3.409   1.554   3.419  0.4300 -0.0412  0.1175
18026SOL    HW156010   3.369   1.468   3.405 -0.9162  0.7646 -1.3044
18026SOL    HW256011   3.500   1.535   3.441  0.5412 -1.7940 -1.6178
18027SOL     OW56012   1.129   1.375   8.430  0.2044  0.3919 -0.2611
18027SOL    HW156013   1.184   1.336   8.362  0.7955  1.4108 -0.3882
18027SOL    HW256014   1.041   1.340   8.413  0.6176 -0.4637 -0.6742
18028SOL     OW56015   2.629   1.689   7.360 -0.4301  0.1364  0.3005
18028SOL    HW156016   2.636   1.603   7.400 -0.6384 -0.3928 -0.7466
18028SOL    HW256017   2.703   1.739   7.394  0.9101 -1.1261 -0.6319
18029SOL     OW56018   5.090   0.126   6.370  0.1726 -0.3613 -0.0974
18029SOL    HW156019   5.033   0.055   6.341  0.4446 -0.6454  0.0601
18029SOL    HW256020   5.179   0.094   6.355  0.2911  0.4291 -1.1743
18030SOL     OW56021   2.771   6.253   1.292  0.2983  0.2246 -0.1831
18030SOL    HW156022   2.806   6.188   1.232 -0.7782 -2.9224  2.2901
18030SOL    HW256023   2.691   6.284   1.250  1.0204  0.2727 -1.5767
18031SOL     OW56024   8.476   6.867   8.696 -0.5091 -0.4020 -0.1915
18031SOL    HW156025   8.424   6.903   8.624 -0.1310  2.0225  0.6431
18031SOL    HW256026   8.552   6.826   8.653 -1.1040 -0.4476 -1.2310
18032SOL     OW56027   1.408   1.367   0.897 -0.0554 -0.0768  0.0146
18032SOL    HW156028   1.397   1.435   0.832 -4.5580 -0.1371  0.4338
18032SOL    HW256029   1.368   1.289   0.858  2.4319 -1.8205  0.6611
18033SOL     OW56030   1.783   1.275   8.747  0.2177  0.1089 -0.0859
18033SOL    HW156031   1.746   1.355   8.785 -2.0236 -0.6456 -0.5242
18033SOL    HW256032   1.878   1.286   8.756 -0.0689  2.1737  1.1323
18034SOL     OW56033   5.064   0.131   0.329 -0.1020  0.5450 -0.0991
18034SOL    HW156034   4.982   0.135   0.380 -0.1147  0.5846 -0.1226
18034SOL    HW256035   5.067   0.214   0.282 -0.5643  0.1267 -0.8919
18035SOL     OW56036   0.551   4.216   2.811  0.7594 -0.0135  0.8865
18035SOL    HW156037   0.557   4.210   2.906  0.0578  0.0545  0.9455
18035SOL    HW256038   0.459   4.240   2.795  0.0644 -2.8430  0.0942
18036SOL     OW56039   4.562   3.010   6.579  0.0300  0.4162  0.0683
18036SOL    HW156040   4.604   3.095   6.564 -0.6929  0.9053  0.7014
18036SOL    HW256041   4.487   3.031   6.635  0.9546 -0.9330  1.8567
18037SOL     OW56042   6.055   2.338   1.295 -0.3286 -0.0458 -0.2247
18037SOL    HW156043   6.002   2.412   1.323  1.3644  1.0255  0.3381
18037SOL    HW256044   6.132   2.378   1.254  1.0577 -1.4206  0.8940
18038SOL     OW56045   0.334   4.544   2.752  0.0422  0.4730 -0.0066
18038SOL    HW156046   0.327   4.493   2.671  1.5839  0.7121 -0.3140
18038SOL    HW256047   0.338   4.479   2.821  0.8575  0.1903 -0.3083
18039SOL     OW56048   6.975   2.520   5.247  0.6684  0.1772 -0.0272
18039SOL    HW156049   6.993   2.611   5.268  0.5629 -0.0707  1.2368
18039SOL    HW256050   6.879   2.514   5.251  0.6666  0.0459 -0.2660
18040SOL     OW56051   0.181   4.752   4.160  0.2695 -0.1226  0.2920
18040SOL    HW156052   0.156   4.662   4.181  0.0335 -0.7311 -2.2893
18040SOL    HW256053   0.272   4.759   4.189 -0.2610 -0.5350  2.2256
18041SOL     OW56054   6.598   7.373   3.649 -0.4162 -0.0698 -0.2579
18041SOL    HW156055   6.644   7.455   3.632 -3.5722  1.9145 -0.0613
18041SOL    HW256056   6.558   7.350   3.565  0.2744 -1.3568 -0.2632
18042SOL     OW56057   4.296   7.631   1.800  0.0416  0.1342 -0.2572
18042SOL    HW156058   4.388   7.654   1.798  1.0764 -3.3194  0.5515
18042SOL    HW256059   4.282   7.576   1.723 -1.2654  0.3067 -0.1817
18043SOL     OW56060   0.446   1.180   1.432 -0.0942 -0.2056 -0.4982
18043SOL    HW156061   0.494   1.131   1.366 -1.0648  0.8382 -2.0387
18043SOL    HW256062   0.357   1.147   1.428  0.1249 -1.1274  1.3360
18044SOL     OW56063   8.357   7.161   4.528 -1.2714  0.3467  0.6426
18044SOL    HW156064   8.452   7.156   4.540 -1.3657  1.8755  2.3570
18044SOL    HW256065   8.332   7.073   4.499  0.9762  0.6466 -2.8588
18045SOL     OW56066   0.666   1.260   4.933  0.1137 -0.0044 -0.2078
18045SOL    HW156067   0.740   1.316   4.909  0.7695 -0.6068  0.3763
18045SOL    HW256068   0.705   1.189   4.984 -0.8820 -0.2736  0.1977
18046SOL     OW56069   3.741   5.488   2.081  0.1851  0.3123 -0.3034
18046SOL    HW156070   3.813   5.453   2.029 -0.5027  1.6494 -2.2892
18046SOL    HW256071   3.775   5.569   2.119  0.0708  0.3718 -0.3261
18047SOL     OW56072   1.651   3.198   2.082  0.2456 -0.4213 -0.7173
18047SOL    HW156073   1.696   3.281   2.099 -1.2135  0.1634  0.5723
18047SOL    HW256074   1.695   3.134   2.137 -0.5022  0.1680  0.6177
18048SOL     OW56075   3.373   7.087   3.699 -1.0125 -0.1070  0.4714
18048SOL    HW156076   3.372   7.156   3.765  2.0627  0.1290  0.4438
18048SOL    HW256077   3.371   7.006   3.749 -1.1346  0.0375  0.7037
18049SOL     OW56078   3.348   5.564   8.855  0.2664  0.2291  0.1288
18049SOL    HW156079   3.347   5.526   8.943 -2.2415  1.2427  0.6155
18049SOL    HW256080   3.365   5.657   8.869 -1.7505  0.6871 -0.2663
18050SOL     OW56081   8.110   0.686   5.329  0.3193  0.2220 -0.7353
18050SOL    HW156082   8.179   0.621   5.314  1.6942  1.0155  1.6403
18050SOL    HW256083   8.043   0.665   5.264  1.4398 -2.4975 -1.1560
18051SOL     OW56084   6.011   3.733   4.191  0.0852 -0.4953 -0.7075
18051SOL    HW156085   6.036   3.725   4.283  3.0337 -1.4708 -1.4888
18051SOL    HW256086   5.935   3.677   4.181 -0.1084 -0.5859  1.0712
18052SOL     OW56087   5.107   6.526   8.527  0.3023  0.3156  0.3997
18052SOL    HW156088   5.195   6.559   8.547  1.3575 -1.4785 -1.0290
18052SOL    HW256089   5.080   6.577   8.451 -0.9554  2.4962  2.1747
18053SOL     OW56090   4.568   8.529   0.368  0.0047  0.1807 -0.0219
18053SOL    HW156091   4.624   8.606   0.376  0.9410 -0.1929 -2.2620
18053SOL    HW256092   4.491   8.560   0.320  0.5225 -0.2931 -1.2032
18054SOL     OW56093   1.726   7.777   6.557  0.5004  0.2391 -0.4190
18054SOL    HW156094   1.665   7.820   6.497  0.5945  1.1024  0.0892
18054SOL    HW256095   1.808   7.824   6.546 -0.2672  2.6258  2.6602
18055SOL     OW56096   0.446   7.121   8.706  0.1312 -0.3810 -0.2055
18055SOL    HW156097   0.522   7.180   8.706 -1.3822  1.7445  2.0189
18055SOL    HW256098   0.436   7.095   8.798 -2.7281  0.7216 -0.1130
18056SOL     OW56099   1.551   3.554   0.855 -0.5147 -0.1505 -0.3132
18056SOL    HW156100   1.485   3.485   0.859 -1.1876  0.5286  1.9831
18056SOL    HW256101   1.633   3.510   0.876 -0.8227 -0.4344  0.3457
18057SOL     OW56102   3.504   6.386   5.233 -0.1936 -0.2601 -0.2616
18057SOL    HW156103   3.426   6.338   5.260 -1.8038  3.1652  1.6895
18057SOL    HW256104   3.472   6.450   5.170  1.8104 -1.2310 -2.4349
18058SOL     OW56105   3.844   4.777   1.230 -0.4116 -0.5058  0.4078
18058SOL    HW156106   3.865   4.722   1.305  1.5936  1.1267  1.1351
18058SOL    HW256107   3.928   4.788   1.184 -0.6499  2.0627  0.4364
18059SOL     OW56108   4.003   2.101   4.149 -0.0642  1.0136  0.1885
18059SOL    HW156109   3.937   2.137   4.209 -2.0740  0.6277 -1.6492
18059SOL    HW256110   3.982   2.139   4.064 -0.1792 -1.7975 -1.1709
18060SOL     OW56111   2.393   3.977   6.142 -0.0500  0.0613  0.3284
18060SOL    HW156112   2.360   3.955   6.229  0.0489  3.2640  1.3098
18060SOL    HW256113   2.335   4.046   6.111  0.8223  0.0180 -1.5040
18061SOL     OW56114   8.510   4.583   3.508 -0.6400 -0.3820 -0.1957
18061SOL    HW156115   8.568   4.659   3.513  0.2701 -0.9239 -1.6812
18061SOL    HW256116   8.430   4.610   3.553 -0.9925  2.0724 -2.0875
18062SOL     OW56117   2.615   4.033   0.352 -0.2477 -0.1800 -0.1670
18062SOL    HW156118   2.698   4.059   0.391 -0.6761 -1.7622  1.9614
18062SOL    HW256119   2.639   3.969   0.285  0.5085  2.6891 -2.8692
18063SOL     OW56120   0.663   0.377   1.919 -0.1174 -0.3094  0.4395
18063SOL    HW156121   0.580   0.367   1.873 -0.2606  0.2773  0.5676
18063SOL    HW256122   0.697   0.288   1.926  1.0267 -0.2289 -2.7908
18064SOL     OW56123   8.534   4.962   8.146 -0.0099 -0.4364 -0.2744
18064SOL    HW156124   8.550   4.914   8.228  0.6265  0.3715  0.0897
18064SOL    HW256125   8.599   5.032   8.147 -1.2606  0.7606 -0.5432
18065SOL     OW56126   4.991   6.809   8.417  0.2122 -0.6849 -0.0012
18065SOL    HW156127   4.927   6.760   8.365  0.8152  0.9323 -2.4142
18065SOL    HW256128   4.938   6.859   8.479 -0.7532 -0.5930 -0.8744
18066SOL     OW56129   8.752   4.062   0.787 -0.9987  0.4246 -0.4041
18066SOL    HW156130   8.695   4.137   0.807  0.0447  0.6913  1.8422
18066SOL    HW256131   8.771   4.023   0.872 -0.4546 -1.6515 -1.4076
18067SOL     OW56132   6.504   2.991   1.651  0.4420 -0.4178 -0.3664
18067SOL    HW156133   6.574   3.020   1.711  0.4098 -0.3414 -0.3662
18067SOL    HW256134   6.465   3.072   1.618 -2.8742 -0.2114  3.2995
18068SOL     OW56135   0.342   2.421   8.426  0.5719  0.9012 -0.2268
18068SOL    HW156136   0.371   2.391   8.512  0.3504  0.0010 -0.4523
18068SOL    HW256137   0.387   2.505   8.413  1.8316  0.3023  0.1033
18069SOL     OW56138   3.315   1.596   7.569 -0.2330 -0.4776  0.0883
18069SOL    HW156139   3.291   1.505   7.586 -0.0206 -0.2844  1.5371
18069SOL    HW256140   3.287   1.644   7.646 -2.5497  1.1582 -1.6387
18070SOL     OW56141   0.922   1.292   5.366 -0.1767 -0.0462  0.5473
18070SOL    HW156142   0.887   1.371   5.326  0.3894 -0.6506 -1.2185
18070SOL    HW256143   0.845   1.237   5.380 -0.5837  0.8079  1.8577
18071SOL     OW56144   3.536   7.260   1.915 -0.5706  0.0464 -0.0061
18071SOL    HW156145   3.630   7.272   1.929 -0.7085  1.8787 -0.3931
18071SOL    HW256146   3.505   7.215   1.994  0.5039  0.1223  0.4688
18072SOL     OW56147   7.715   3.089   1.504  0.2505  0.0848 -0.9684
18072SOL    HW156148   7.774   3.163   1.489  0.2656  0.2629 -0.0403
18072SOL    HW256149   7.730   3.063   1.595 -0.1562 -0.7098 -1.1184
18073SOL     OW56150   2.617   7.605   2.308  0.0964 -0.0538 -0.1963
18073SOL    HW156151   2.693   7.610   2.366  0.3277 -0.1086 -0.4893
18073SOL    HW256152   2.627   7.681   2.250 -0.6264  0.5362  0.4223
18074SOL     OW56153   6.687   1.768   2.994 -0.6130  0.1516 -0.0234
18074SOL    HW156154   6.705   1.677   3.020  0.7196  0.1733 -0.7547
18074SOL    HW256155   6.620   1.760   2.925 -1.2179 -0.1878  0.5907
18075SOL     OW56156   5.772   6.984   6.338  0.0229  0.1449  0.7178
18075SOL    HW156157   5.858   7.021   6.359  0.3938  0.5796 -1.2941
18075SOL    HW256158   5.792   6.910   6.280 -0.9369  0.0494  0.4952
18076SOL     OW56159   6.531   3.324   1.914  0.5433 -0.6604  0.1555
18076SOL    HW156160   6.606   3.270   1.890  2.3446  1.7176  0.0949
18076SOL    HW256161   6.542   3.340   2.008  0.6183  0.4289 -0.0310
18077SOL     OW56162   7.410   4.013   7.063 -0.9404  0.6770 -0.1797
18077SOL    HW156163   7.332   4.000   7.116 -1.0137  0.3262 -0.3708
18077SOL    HW256164   7.483   4.006   7.125 -1.0310  0.4115 -0.1048
18078SOL     OW56165   0.277   3.843   3.221 -0.0654  0.0888 -0.0472
18078SOL    HW156166   0.369   3.821   3.234  0.5085 -0.1379 -3.5292
18078SOL    HW256167   0.232   3.758   3.222 -0.1765  0.1407  0.9061
18079SOL     OW56168   6.330   1.381   6.798  0.3740 -0.5361  0.0154
18079SOL    HW156169   6.373   1.323   6.736  0.8160 -0.3230  0.1195
18079SOL    HW256170   6.238   1.382   6.771  0.8192  0.8177 -1.6322
18080SOL     OW56171   6.690   8.479   5.103  0.0692 -0.3635  0.3347
18080SOL    HW156172   6.668   8.523   5.185 -0.9658 -2.4407  1.2562
18080SOL    HW256173   6.664   8.541   5.035  0.6243  1.2661  1.5462
18081SOL     OW56174   8.418   0.561   3.897  0.4578 -0.4800  0.2919
18081SOL    HW156175   8.336   0.561   3.945  0.3160  1.1769  0.0957
18081SOL    HW256176   8.456   0.475   3.915 -1.2291 -1.2197  0.5032
18082SOL     OW56177   1.480   0.624   2.105 -0.4202 -0.3084 -0.1288
18082SOL    HW156178   1.476   0.714   2.074 -2.3586  0.2277  1.4430
18082SOL    HW256179   1.472   0.571   2.026 -1.0126  0.9186 -0.9339
18083SOL     OW56180   6.113   5.639   5.397 -0.7982  0.4107 -0.1180
18083SOL    HW156181   6.103   5.565   5.336 -1.9812 -0.6529  1.2865
18083SOL    HW256182   6.033   5.690   5.386  0.3225  1.9516 -1.5946
18084SOL     OW56183   0.909   4.415   4.603  0.5663  0.0568 -0.0238
18084SOL    HW156184   0.829   4.372   4.572 -0.8993  2.2277  0.4828
18084SOL    HW256185   0.903   4.411   4.698  0.5623  1.0307  0.0261
18085SOL     OW56186   7.978   5.434   2.175  0.2075 -0.4706  0.0771
18085SOL    HW156187   7.896   5.438   2.225  0.8320  0.3040  1.0726
18085SOL    HW256188   7.961   5.487   2.097  0.2146  0.9332  0.9928
18086SOL     OW56189   4.669   4.938   0.257 -0.1162  0.5267  0.3281
18086SOL    HW156190   4.581   4.914   0.285 -1.1721  1.5704 -1.8228
18086SOL    HW256191   4.668   5.034   0.254  1.4222  0.6141  1.1240
18087SOL     OW56192   3.744   6.167   5.776  0.0624  0.0378 -0.4424
18087SOL    HW156193   3.779   6.083   5.747 -0.6727 -1.0834  1.6887
18087SOL    HW256194   3.821   6.221   5.793  0.6409 -1.0036  0.3239
18088SOL     OW56195   1.188   4.168   7.217  0.2945 -0.5535  0.5339
18088SOL    HW156196   1.213   4.085   7.176  1.0556  0.2593 -0.6953
18088SOL    HW256197   1.272   4.210   7.238 -0.0822 -0.5597  2.1587
18089SOL     OW56198   3.055   0.602   1.176 -0.2191  0.0616  0.0458
18089SOL    HW156199   3.101   0.547   1.240 -0.1800  0.6543  0.5353
18089SOL    HW256200   3.007   0.665   1.229  1.6578  2.0706 -0.4865
18090SOL     OW56201   8.708   3.519   6.304  0.2110  0.5259 -0.7910
18090SOL    HW156202   8.746   3.463   6.237  0.6793 -1.1066  0.7602
18090SOL    HW256203   8.782   3.543   6.360 -0.6625 -1.3590  1.3396
18091SOL     OW56204   2.167   2.268   3.648 -0.1740 -0.5611 -0.5038
18091SOL    HW156205   2.246   2.309   3.683 -0.8252  0.9130 -0.7154
18091SOL    HW256206   2.200   2.191   3.601  1.1799  0.1848 -0.8500
18092SOL     OW56207   2.550   8.212   5.169 -0.4466 -0.0098  0.2265
18092SOL    HW156208   2.625   8.157   5.150 -0.1210 -0.1099  1.6440
18092SOL    HW256209   2.474   8.155   5.158 -0.2676 -0.0967 -0.5435
18093SOL     OW56210   6.388   6.575   1.814  0.6755 -0.1122  0.5681
18093SOL    HW156211   6.444   6.599   1.740  0.0473 -1.0819 -0.2445
18093SOL    HW256212   6.393   6.479   1.818  0.3521 -0.1001  1.5054
18094SOL     OW56213   5.093   1.804   4.402  0.2351 -0.7567  0.0121
18094SOL    HW156214   5.042   1.859   4.342  1.6251  0.3630 -0.1728
18094SOL    HW256215   5.095   1.853   4.484  1.0638 -0.7544 -0.0020
18095SOL     OW56216   7.132   5.638   5.550  0.2523  0.4245 -0.2902
18095SOL    HW156217   7.222   5.670   5.557  0.3303  0.0421  0.5405
18095SOL    HW256218   7.115   5.595   5.634 -0.4715 -0.1013 -0.6950
18096SOL     OW56219   7.232   4.567   5.845  0.1844  0.1292 -0.3162
18096SOL    HW156220   7.138   4.572   5.827 -0.0757  0.7445  1.0793
18096SOL    HW256221   7.250   4.641   5.903  1.6372  0.3004 -0.9238
18097SOL     OW56222   7.523   2.557   5.260 -0.1152  0.0097  0.2464
18097SOL    HW156223   7.491   2.493   5.324 -1.9599  1.1052  0.4805
18097SOL    HW256224   7.446   2.582   5.210  0.7303  1.4123 -0.4113
18098SOL     OW56225   2.678   8.823   3.614  0.5152  0.0773  0.0998
18098SOL    HW156226   2.627   8.822   3.532  1.2785 -1.3627 -0.3912
18098SOL    HW256227   2.673   8.914   3.644 -4.6844 -0.3397  1.5927
18099SOL     OW56228   8.089   7.353   2.502 -0.1948  0.0908 -0.6334
18099SOL    HW156229   8.107   7.379   2.412  0.7118  2.0620  0.0524
18099SOL    HW256230   8.165   7.301   2.528  0.5411  1.2374 -0.4106
18100SOL     OW56231   7.934   8.863   2.322  0.2697 -0.0444  0.3181
18100SOL    HW156232   7.854   8.818   2.349  0.6693  0.0779  1.8274
18100SOL    HW256233   8.000   8.795   2.316  0.3373  0.0236  0.2828
18101SOL     OW56234   7.446   6.360   4.701  0.1289 -0.0891 -0.1563
18101SOL    HW156235   7.358   6.396   4.693 -0.4266 -1.2371  0.5872
18101SOL    HW256236   7.504   6.433   4.679 -1.0028  0.5542 -1.1177
18102SOL     OW56237   2.569   7.335   2.918  0.2527  0.0912  0.2565
18102SOL    HW156238   2.658   7.330   2.954  1.0532  0.1279 -1.6046
18102SOL    HW256239   2.575   7.399   2.847 -1.6243  1.1908  0.9998
18103SOL     OW56240   3.208   7.728   5.769  0.0789 -0.1698 -0.1387
18103SOL    HW156241   3.130   7.707   5.717 -1.0523 -1.1007  1.8413
18103SOL    HW256242   3.267   7.771   5.706 -1.3994 -0.7750 -2.0574
18104SOL     OW56243   5.910   5.378   3.836 -0.0300  0.3349 -0.1133
18104SOL    HW156244   5.885   5.449   3.776  0.7267  0.6829 -0.0349
18104SOL    HW256245   5.964   5.320   3.782 -0.9893 -0.4115 -0.2868
18105SOL     OW56246   6.732   8.220   4.560 -0.3822  0.3596  0.6809
18105SOL    HW156247   6.786   8.153   4.602  0.5546  2.2610  2.7577
18105SOL    HW256248   6.695   8.270   4.633 -0.7693  2.2803 -0.7462
18106SOL     OW56249   3.472   3.054   1.176  0.3759  0.2055  0.0145
18106SOL    HW156250   3.380   3.042   1.197  0.3206 -0.9724 -0.7838
18106SOL    HW256251   3.502   3.123   1.235 -0.8828  0.2344  0.6400
18107SOL     OW56252   2.072   1.449   2.664  0.1197 -0.7342  0.1742
18107SOL    HW156253   2.035   1.378   2.715 -1.7659 -0.0151 -0.1068
18107SOL    HW256254   2.066   1.526   2.722 -0.5882 -0.2337 -0.5407
18108SOL     OW56255   5.893   0.396   3.330  0.4643  0.1884 -0.5312
18108SOL    HW156256   5.989   0.388   3.332  0.5453 -0.3291 -2.9727
18108SOL    HW256257   5.877   0.482   3.292 -0.1473  1.2583  1.9428
18109SOL     OW56258   5.483   0.110   3.535 -0.4408  0.0031  0.3347
18109SOL    HW156259   5.481   0.174   3.463 -2.6729 -0.1001  0.2422
18109SOL    HW256260   5.503   0.027   3.493  0.2594  0.2644  0.1375
18110SOL     OW56261   5.565   0.264   7.034  0.5750 -0.3277  0.1554
18110SOL    HW156262   5.510   0.341   7.022  2.0249  0.8902  1.0086
18110SOL    HW256263   5.516   0.209   7.096 -0.9395 -0.6262 -1.2331
18111SOL     OW56264   0.650   7.781   8.774  0.3080  0.4290 -0.3310
18111SOL    HW156265   0.555   7.786   8.763  0.0108  1.9790  2.2006
18111SOL    HW256266   0.685   7.848   8.715  0.0904 -1.4803 -2.7921
18112SOL     OW56267   7.389   8.789   0.883 -0.1351  0.0855 -0.8786
18112SOL    HW156268   7.454   8.780   0.814  1.2892 -0.8774  0.5313
18112SOL    HW256269   7.305   8.787   0.837  0.7708 -0.4766 -2.5800
18113SOL     OW56270   5.255   4.530   8.489  0.1837  0.4684 -0.2691
18113SOL    HW156271   5.272   4.566   8.576 -0.2709 -0.5041  0.2308
18113SOL    HW256272   5.183   4.468   8.502 -0.0859  0.5230 -1.3920
18114SOL     OW56273   7.505   6.443   2.942  0.3639  0.7186  0.1054
18114SOL    HW156274   7.555   6.443   2.861 -0.9665  1.1856 -0.7484
18114SOL    HW256275   7.489   6.535   2.961 -0.5157  0.5765  0.1140
18115SOL     OW56276   1.870   8.478   2.785  0.4264  0.2618  0.3811
18115SOL    HW156277   1.959   8.449   2.805 -0.2680 -1.6993  0.8191
18115SOL    HW256278   1.843   8.421   2.712 -0.9029 -0.0381  1.0948
18116SOL     OW56279   4.024   7.817   7.689 -0.3266  0.0580 -0.1922
18116SOL    HW156280   3.951   7.772   7.648 -1.1227  1.4985 -0.4201
18116SOL    HW256281   4.092   7.820   7.621 -0.8597  0.5889 -0.7050
18117SOL     OW56282   3.192   5.646   8.373 -0.7298 -0.1435 -0.3479
18117SOL    HW156283   3.128   5.711   8.403  0.5394  1.7485 -1.4693
18117SOL    HW256284   3.276   5.681   8.401 -0.1179 -2.5733  1.0862
18118SOL     OW56285   3.604   1.956   7.314 -0.0461  0.1339 -0.2087
18118SOL    HW156286   3.560   1.889   7.366 -0.2023 -0.2330 -0.8000
18118SOL    HW256287   3.639   2.018   7.378  0.3551 -0.6694  0.3552
18119SOL     OW56288   7.122   7.595   3.768  0.0986 -0.7729 -0.6841
18119SOL    HW156289   7.140   7.566   3.679  0.5998  1.1067 -1.2396
18119SOL    HW256290   7.095   7.687   3.758 -0.8633 -0.8357  1.0081
18120SOL     OW56291   5.335   6.103   7.817  0.2283  0.3162  0.0010
18120SOL    HW156292   5.292   6.018   7.821  2.4518 -0.8628  0.0790
18120SOL    HW256293   5.265   6.163   7.791 -1.3998 -1.5112 -0.0946
18121SOL     OW56294   6.398   1.928   7.339 -0.3278 -0.2066 -0.3723
18121SOL    HW156295   6.491   1.948   7.328 -0.8465  2.7209 -0.2185
18121SOL    HW256296   6.363   1.932   7.250 -0.5735  0.2883 -0.2536
18122SOL     OW56297   3.968   7.597   8.837  0.0292 -0.3949 -0.1481
18122SOL    HW156298   3.975   7.528   8.772 -2.2936  0.0708 -0.9869
18122SOL    HW256299   3.879   7.630   8.828  0.2399  0.9868  1.9818
18123SOL     OW56300   0.876   4.947   7.400 -0.0350  0.0218 -0.7679
18123SOL    HW156301   0.848   5.031   7.362  0.2095  0.8761  0.8529
18123SOL    HW256302   0.796   4.894   7.400  0.0707 -0.2411 -2.9295
18124SOL     OW56303   1.801   1.729   8.703  0.4401  0.2074 -1.2088
18124SOL    HW156304   1.723   1.677   8.723  1.2682 -1.5453 -2.2912
18124SOL    HW256305   1.829   1.763   8.788 -0.9021  0.0079 -0.6616
18125SOL     OW56306   5.328   3.759   8.535 -0.2770 -0.2584 -0.1612
18125SOL    HW156307   5.363   3.760   8.624 -0.6695 -0.8776  0.0080
18125SOL    HW256308   5.234   3.747   8.547 -0.6847  2.1450 -0.5828
18126SOL     OW56309   8.550   0.197   6.978 -0.4736 -0.4188  0.4890
18126SOL    HW156310   8.474   0.163   7.024  0.4233 -1.8295  0.9724
18126SOL    HW256311   8.605   0.121   6.962  0.9844  0.5990  0.4299
18127SOL     OW56312   0.909   8.333   0.187  0.2495 -0.4957  0.3693
18127SOL    HW156313   0.958   8.388   0.247 -0.6255  0.4547  0.2407
18127SOL    HW256314   0.953   8.248   0.190  1.7087  0.2396  0.4698
18128SOL     OW56315   6.582   5.312   7.933  0.3617  0.0946  0.9064
18128SOL    HW156316   6.613   5.359   8.010  1.1121 -0.9700  1.2795
18128SOL    HW256317   6.598   5.372   7.860  2.5955 -0.0626  1.1826
18129SOL     OW56318   7.294   8.639   5.340  0.1589  0.1202 -0.1634
18129SOL    HW156319   7.224   8.680   5.288  0.1159 -1.5670 -1.5463
18129SOL    HW256320   7.347   8.712   5.371 -0.9393  1.3136 -0.9827
18130SOL     OW56321   0.135   0.993   1.065  0.2486  0.2627 -0.1572
18130SOL    HW156322   0.219   0.965   1.027 -0.3820  2.0266 -3.2069
18130SOL    HW256323   0.079   0.916   1.059  0.8485 -0.1391 -0.7556
18131SOL     OW56324   8.278   7.872   6.161 -0.2870 -0.4733 -0.4895
18131SOL    HW156325   8.195   7.910   6.191  0.5042  3.3180 -2.4440
18131SOL    HW256326   8.257   7.833   6.076 -0.1754  0.3072 -0.8901
18132SOL     OW56327   2.625   2.705   7.895 -0.3099 -0.5172 -0.7860
18132SOL    HW156328   2.547   2.710   7.952  0.8545 -1.3285  0.9495
18132SOL    HW256329   2.627   2.791   7.852 -0.9468  0.3553  0.8114
18133SOL     OW56330   5.053   3.551   0.585  0.2370  0.2840 -0.1307
18133SOL    HW156331   5.090   3.607   0.653  0.2234 -0.1977  0.2803
18133SOL    HW256332   5.009   3.481   0.633  0.8971 -0.4983 -0.6364
18134SOL     OW56333   7.915   5.265   0.256  0.3141  0.0597 -0.2760
18134SOL    HW156334   7.847   5.280   0.322  0.0857 -0.9087 -0.2755
18134SOL    HW256335   7.871   5.215   0.187  0.2327  2.0958 -1.7662
18135SOL     OW56336   3.564   4.381   1.428  0.1261  0.3505  0.1612
18135SOL    HW156337   3.521   4.466   1.425  0.3216  0.4332 -0.8292
18135SOL    HW256338   3.538   4.343   1.512  0.0474  1.3859  0.6153
18136SOL     OW56339   2.231   7.818   2.135 -0.1630  0.4066 -0.6413
18136SOL    HW156340   2.218   7.904   2.096 -2.2846 -0.0825 -1.0964
18136SOL    HW256341   2.222   7.832   2.229  0.4929  0.8155 -0.6287
18137SOL     OW56342   6.403   2.457   2.860 -0.2298  0.9818  0.1144
18137SOL    HW156343   6.315   2.439   2.826 -0.2301 -0.2537  0.7369
18137SOL    HW256344   6.454   2.380   2.836  0.0668  0.6177  1.8453
18138SOL     OW56345   5.074   1.886   1.598  0.3579 -0.6917  0.1666
18138SOL    HW156346   4.996   1.893   1.653 -1.6090  1.1687 -2.6028
18138SOL    HW256347   5.138   1.944   1.640 -1.4392  1.4908  0.0430
18139SOL     OW56348   5.225   2.175   0.518 -0.0491 -0.0722 -0.2521
18139SOL    HW156349   5.263   2.262   0.506  1.2757 -0.6234 -0.2484
18139SOL    HW256350   5.266   2.142   0.599 -1.8357 -0.0357  0.7157
18140SOL     OW56351   4.311   4.836   6.992  0.3963  0.1231  0.3400
18140SOL    HW156352   4.237   4.836   6.932  1.5259 -2.0684 -1.1854
18140SOL    HW256353   4.271   4.839   7.079 -1.4068  0.2572 -0.4423
18141SOL     OW56354   5.328   1.021   2.531  0.3559  0.4237  0.2867
18141SOL    HW156355   5.322   1.089   2.598 -1.7723  0.6612 -0.0558
18141SOL    HW256356   5.244   0.975   2.537  1.4167 -1.6681 -0.0430
18142SOL     OW56357   2.310   2.908   2.284  0.1794  0.0853 -0.2755
18142SOL    HW156358   2.239   2.847   2.263 -1.3022  2.0084 -1.1500
18142SOL    HW256359   2.312   2.969   2.210  2.2651  0.5438  0.0960
18143SOL     OW56360   7.524   1.997   8.574 -0.1319  0.1495 -0.5036
18143SOL    HW156361   7.459   2.067   8.571  0.3948  0.6572 -0.3616
18143SOL    HW256362   7.577   2.016   8.651 -0.3515 -0.7506 -0.1134
18144SOL     OW56363   5.122   4.082   1.907  0.6528  0.3173  0.6527
18144SOL    HW156364   5.047   4.023   1.917 -0.1106  1.3027  0.9328
18144SOL    HW256365   5.101   4.135   1.830  0.8399  0.9018  0.9954
18145SOL     OW56366   8.863   8.485   8.348 -0.0988 -0.5074 -0.4589
18145SOL    HW156367   8.870   8.459   8.256  0.8707  0.4352 -0.6665
18145SOL    HW256368   8.953   8.496   8.377 -0.4221  0.2051  0.3084
18146SOL     OW56369   4.402   7.876   0.216  0.6409  0.3613 -0.0167
18146SOL    HW156370   4.364   7.789   0.221 -0.6745  0.6827 -2.9101
18146SOL    HW256371   4.382   7.916   0.301 -2.6449 -0.6493 -0.1957
18147SOL     OW56372   7.013   5.352   7.054 -0.0057  0.6893  0.2871
18147SOL    HW156373   7.022   5.273   7.107  1.4050  0.4241 -0.3170
18147SOL    HW256374   6.921   5.352   7.026 -0.5441  0.3613  1.9442
18148SOL     OW56375   7.721   4.291   5.422  0.5648 -0.1289  0.4117
18148SOL    HW156376   7.649   4.241   5.460 -0.7170 -0.0825 -1.8152
18148SOL    HW256377   7.690   4.381   5.422  0.5683 -0.1186 -0.6359
18149SOL     OW56378   5.187   0.761   4.116 -0.4012  0.0931 -0.1478
18149SOL    HW156379   5.206   0.688   4.175 -1.2367 -0.6350 -0.7654
18149SOL    HW256380   5.273   0.789   4.085  0.1795  1.1422  2.1268
18150SOL     OW56381   2.334   5.567   7.093 -0.0881 -0.5441 -0.4249
18150SOL    HW156382   2.292   5.501   7.039 -1.1523  0.4783 -0.8807
18150SOL    HW256383   2.264   5.627   7.117  1.1583  1.5467 -1.6952
18151SOL     OW56384   6.787   0.637   4.393  0.0559 -0.0706  0.2797
18151SOL    HW156385   6.781   0.563   4.454 -0.0336  0.1745  0.5687
18151SOL    HW256386   6.747   0.710   4.440  3.0671  1.0291  1.3693
18152SOL     OW56387   8.613   3.814   4.937 -0.0811  0.6549  0.5587
18152SOL    HW156388   8.666   3.809   5.016  0.4610 -3.1121  0.1302
18152SOL    HW256389   8.642   3.894   4.893  2.8683  0.4653  1.9523
18153SOL     OW56390   4.263   6.639   2.322 -0.4662 -0.1029  0.2653
18153SOL    HW156391   4.299   6.728   2.323 -0.4986  0.0096  4.0749
18153SOL    HW256392   4.336   6.584   2.349 -0.8045 -1.1302 -0.8274
18154SOL     OW56393   2.382   4.086   2.481  0.1804 -0.2090  0.3382
18154SOL    HW156394   2.372   4.175   2.449  0.0723 -0.0888  0.7035
18154SOL    HW256395   2.293   4.058   2.504 -0.0856 -1.1074 -1.5886
18155SOL     OW56396   0.350   4.275   8.486  0.1350 -0.1356  0.1182
18155SOL    HW156397   0.397   4.329   8.549 -0.0120  0.9115 -0.6457
18155SOL    HW256398   0.401   4.282   8.405  0.0328 -1.0349 -0.0347
18156SOL     OW56399   8.487   4.823   2.197  0.1312 -0.1643  0.2111
18156SOL    HW156400   8.521   4.906   2.164  0.8068  0.3647  2.0929
18156SOL    HW256401   8.419   4.847   2.259 -0.6344 -1.0797 -0.2518
18157SOL     OW56402   4.423   4.514   0.267 -0.0580 -0.6811  0.3851
18157SOL    HW156403   4.351   4.560   0.225 -0.1099 -0.5802  0.5820
18157SOL    HW256404   4.424   4.428   0.226 -0.6274 -0.8648  0.7535
18158SOL     OW56405   3.929   4.650   0.957  0.3222 -0.4369 -0.3451
18158SOL    HW156406   3.875   4.665   1.034  1.2179  0.3276  0.1533
18158SOL    HW256407   3.885   4.698   0.887  0.0460 -0.3155 -0.0907
18159SOL     OW56408   4.764   8.177   0.367 -0.5058 -0.6028 -0.4816
18159SOL    HW156409   4.734   8.152   0.279 -1.5553 -2.2063  0.2842
18159SOL    HW256410   4.722   8.113   0.425  0.2076  0.4038  1.1868
18160SOL     OW56411   7.895   0.586   6.823  0.1159 -0.1298 -0.2729
18160SOL    HW156412   7.884   0.608   6.916 -0.2964  0.6100 -0.4842
18160SOL    HW256413   7.883   0.670   6.778  4.2046  0.3791 -0.7581
18161SOL     OW56414   7.571   0.419   5.895  0.8671  0.2868 -0.0793
18161SOL    HW156415   7.520   0.360   5.840  0.7467  2.2604 -2.2825
18161SOL    HW256416   7.512   0.443   5.966  0.7732 -1.8078  0.6193
18162SOL     OW56417   2.499   8.845   2.404  0.4442 -0.4628 -0.4621
18162SOL    HW156418   2.491   8.908   2.332 -0.9317 -0.3520 -0.2391
18162SOL    HW256419   2.440   8.774   2.380  0.2645 -0.6069  0.3796
18163SOL     OW56420   5.690   0.181   3.717  0.1803  0.0841  0.2108
18163SOL    HW156421   5.715   0.089   3.727  1.2278  0.2673 -0.5341
18163SOL    HW256422   5.636   0.183   3.638 -1.3957 -0.1471  1.2373
18164SOL     OW56423   7.790   8.733   0.036 -0.1866 -0.4399 -0.0701
18164SOL    HW156424   7.712   8.777   0.070 -0.6870 -1.3731  0.0182
18164SOL    HW256425   7.863   8.784   0.072 -0.7191 -0.6086  1.3266
18165SOL     OW56426   6.842   0.386   2.194 -0.1876 -0.0377  0.6177
18165SOL    HW156427   6.865   0.316   2.132 -2.2377 -0.1413 -0.0803
18165SOL    HW256428   6.899   0.459   2.170  0.0454 -0.5598 -0.4584
18166SOL     OW56429   7.850   3.104   2.224  0.3271  0.3582 -0.1010
18166SOL    HW156430   7.849   3.129   2.132 -1.1360  0.2479 -0.1303
18166SOL    HW256431   7.762   3.124   2.256  0.8881  0.6821  1.3562
18167SOL     OW56432   7.301   2.029   2.943 -0.4037 -0.0069 -0.1357
18167SOL    HW156433   7.299   2.020   3.038  0.9987  0.1044 -0.0710
18167SOL    HW256434   7.304   2.124   2.928  0.8751 -0.0300 -0.2037
18168SOL     OW56435   6.842   1.886   5.107 -0.1663  0.6154 -0.1018
18168SOL    HW156436   6.901   1.824   5.063 -0.3309  0.2641  0.1638
18168SOL    HW256437   6.774   1.904   5.042  0.3963  1.2683 -0.5235
18169SOL     OW56438   2.580   8.018   4.002  0.4306  0.1584 -0.1821
18169SOL    HW156439   2.498   8.065   3.989  0.6376  0.6023  0.0913
18169SOL    HW256440   2.590   7.965   3.923 -1.6876 -2.3316  1.0596
18170SOL     OW56441   5.081   5.614   8.842 -0.7542 -0.2757  0.2229
18170SOL    HW156442   5.026   5.654   8.776 -1.0339 -0.8125  0.1220
18170SOL    HW256443   5.102   5.685   8.903 -2.9624 -0.3769  1.2147
18171SOL     OW56444   7.461   2.287   8.695 -0.1934  0.5132 -0.3217
18171SOL    HW156445   7.462   2.324   8.783  0.6591  0.9454 -0.5066
18171SOL    HW256446   7.545   2.313   8.657 -0.2331 -0.3111 -0.9952
18172SOL     OW56447   3.137   3.024   2.852  0.6513  0.4251  0.0165
18172SOL    HW156448   3.077   2.971   2.905  1.5488 -0.5451  0.1023
18172SOL    HW256449   3.081   3.071   2.791 -0.2144 -0.2913  0.2429
18173SOL     OW56450   1.662   2.106   8.205  0.0558  0.2626  0.2008
18173SOL    HW156451   1.673   2.197   8.176  1.6896 -0.5183 -1.9471
18173SOL    HW256452   1.735   2.091   8.265  1.1638 -0.2242 -1.2139
18174SOL     OW56453   4.445   1.487   4.071  0.0786  0.2227  0.2447
18174SOL    HW156454   4.369   1.516   4.020 -0.0239 -1.1249 -0.4249
18174SOL    HW256455   4.508   1.559   4.064  0.1696 -0.0015 -2.0382
18175SOL     OW56456   8.482   6.792   3.337 -0.0033 -0.0635 -0.3278
18175SOL    HW156457   8.395   6.773   3.374  0.7900  0.4312  1.9174
18175SOL    HW256458   8.481   6.886   3.320  0.6071  0.2601  1.2635
18176SOL     OW56459   5.487   3.978   3.281  0.1928 -0.7529 -0.1046
18176SOL    HW156460   5.543   3.907   3.248 -1.3638 -2.2929  0.4000
18176SOL    HW256461   5.423   3.934   3.336 -1.2209  0.9955 -0.2708
18177SOL     OW56462   5.862   6.281   1.372  0.0213 -0.1141  0.0055
18177SOL    HW156463   5.882   6.263   1.464 -0.1738  0.8977  0.2597
18177SOL    HW256464   5.919   6.355   1.350  0.1233 -0.4005 -0.7123
18178SOL     OW56465   1.440   3.720   4.743 -0.0442 -0.3532  0.6871
18178SOL    HW156466   1.459   3.767   4.662 -0.5570  0.6063  1.1154
18178SOL    HW256467   1.411   3.787   4.805 -0.2520 -1.1493  1.4863
18179SOL     OW56468   3.664   4.636   8.836 -0.2221 -0.1072 -0.5758
18179SOL    HW156469   3.629   4.603   8.919  0.5344  0.7855  0.1293
18179SOL    HW256470   3.606   4.709   8.813 -0.6382 -0.5741 -1.0239
18180SOL     OW56471   8.547   7.482   3.276  0.4515 -0.0201 -0.5242
18180SOL    HW156472   8.561   7.397   3.236  1.8798  0.3928 -0.9554
18180SOL    HW256473   8.455   7.503   3.257  0.0597 -1.4631 -0.3467
18181SOL     OW56474   8.146   8.734   3.339  0.5161 -0.2262 -0.4137
18181SOL    HW156475   8.082   8.684   3.391  0.2379 -0.4277 -0.9421
18181SOL    HW256476   8.229   8.688   3.352  0.8326  0.7510  1.2752
18182SOL     OW56477   5.181   1.237   3.154 -0.4442 -0.4626 -0.8174
18182SOL    HW156478   5.159   1.235   3.061 -1.8825 -2.2667 -0.5032
18182SOL    HW256479   5.275   1.254   3.156 -0.4275 -0.1352 -2.5891
18183SOL     OW56480   0.246   8.230   6.155  0.0076  0.1382  0.2643
18183SOL    HW156481   0.252   8.325   6.144 -0.5111  0.2547  0.9264
18183SOL    HW256482   0.153   8.210   6.145  0.2579 -0.4654 -1.0471
18184SOL     OW56483   7.993   8.523   4.044 -0.0963  0.1369 -0.1384
18184SOL    HW156484   7.912   8.553   4.002 -0.7974 -0.2619  0.8854
18184SOL    HW256485   8.050   8.600   4.044 -1.1846  0.9826  0.8152
18185SOL     OW56486   8.508   0.371   3.351  0.3121  0.4663 -0.1449
18185SOL    HW156487   8.590   0.383   3.304  1.1825 -1.7669  0.6676
18185SOL    HW256488   8.533   0.367   3.443 -0.4413 -1.6128  0.0366
18186SOL     OW56489   1.901   0.468   8.739 -0.0955 -0.0264  0.3563
18186SOL    HW156490   1.854   0.422   8.809  0.1532  2.0207  1.9569
18186SOL    HW256491   1.989   0.483   8.775  0.7428 -0.8031 -1.2630
18187SOL     OW56492   0.910   4.223   5.371 -0.4969  0.0134 -0.0176
18187SOL    HW156493   0.939   4.155   5.432 -0.0479 -0.3216 -0.5914
18187SOL    HW256494   0.888   4.175   5.291 -0.4410  0.5176 -0.3404
18188SOL     OW56495   0.996   0.922   3.311  0.0146  0.6078 -0.9336
18188SOL    HW156496   0.965   0.851   3.367  2.5300 -0.3155 -0.6081
18188SOL    HW256497   0.931   0.926   3.241 -0.8394 -1.1954 -0.3195
18189SOL     OW56498   5.888   4.782   0.279 -0.3094 -0.3220  0.2943
18189SOL    HW156499   5.887   4.694   0.316 -3.5188 -0.2752  0.6173
18189SOL    HW256500   5.959   4.781   0.215 -1.8424 -4.0358 -1.6112
18190SOL     OW56501   7.201   7.120   0.974 -0.3187  0.0341  0.4133
18190SOL    HW156502   7.128   7.086   1.025  0.2796  0.9183  1.9298
18190SOL    HW256503   7.268   7.141   1.039  0.7107  0.6474 -0.8013
18191SOL     OW56504   3.686   5.125   0.961 -0.5265 -0.6456 -0.7049
18191SOL    HW156505   3.752   5.191   0.982 -2.4796  1.6813 -1.4513
18191SOL    HW256506   3.673   5.133   0.866  0.5247 -3.5390 -1.2164
18192SOL     OW56507   0.683   1.426   7.391  0.0295  0.1435  0.1756
18192SOL    HW156508   0.739   1.429   7.468  0.5017 -0.5050 -0.1341
18192SOL    HW256509   0.610   1.370   7.417 -0.3558  0.7814  0.4941
18193SOL     OW56510   1.518   0.401   7.891  0.6617 -0.5162  0.1720
18193SOL    HW156511   1.581   0.336   7.923  0.4815 -0.5394  0.4867
18193SOL    HW256512   1.433   0.367   7.920  0.4324 -0.8677 -0.8796
18194SOL     OW56513   4.531   5.673   2.618 -0.3743 -0.1989 -0.2687
18194SOL    HW156514   4.584   5.599   2.589 -1.1759 -0.3396 -1.4830
18194SOL    HW256515   4.441   5.648   2.594 -1.1706 -0.3957  2.5737
18195SOL     OW56516   3.807   2.680   0.970 -0.3208  0.4593  0.6228
18195SOL    HW156517   3.764   2.744   1.026 -0.6492 -0.3906  1.3681
18195SOL    HW256518   3.746   2.606   0.967  0.6459 -0.3798  0.9146
18196SOL     OW56519   4.910   1.799   5.029  0.0696 -0.0829 -0.0605
18196SOL    HW156520   4.872   1.871   4.979 -0.7801  1.0684  2.0953
18196SOL    HW256521   4.836   1.742   5.049  0.3346 -0.3656  0.1282
18197SOL     OW56522   0.310   0.083   5.822 -0.3260 -0.0472 -0.6218
18197SOL    HW156523   0.351  -0.003   5.808  0.7651  0.3617 -0.0685
18197SOL    HW256524   0.372   0.146   5.786 -1.3013  0.5066 -1.3862
18198SOL     OW56525   5.018   6.347   1.458 -0.0192  0.6097 -0.1225
18198SOL    HW156526   5.000   6.428   1.410  2.4232  2.0305  1.1395
18198SOL    HW256527   5.028   6.375   1.549  0.7926 -1.1130  0.3599
18199SOL     OW56528   3.885   4.211   5.453 -0.2614  0.4956  0.2452
18199SOL    HW156529   3.868   4.211   5.359 -1.1607 -1.4371  0.3610
18199SOL    HW256530   3.950   4.141   5.466 -0.7250  0.2151  1.1348
18200SOL     OW56531   7.152   6.371   4.406 -0.0032 -0.5581 -0.6408
18200SOL    HW156532   7.148   6.434   4.478  1.2243  0.7243 -1.6406
18200SOL    HW256533   7.060   6.357   4.382 -0.3321  0.3837  0.0021
18201SOL     OW56534   6.460   7.788   5.336  0.1005  0.1595  0.4933
18201SOL    HW156535   6.530   7.722   5.331  2.0997  1.7405  4.1192
18201SOL    HW256536   6.506   7.872   5.330 -1.7749  1.2791  0.9646
18202SOL     OW56537   3.441   8.134   4.503  0.4398 -0.0406  0.2049
18202SOL    HW156538   3.455   8.229   4.499  1.4603 -0.1466  0.9962
18202SOL    HW256539   3.435   8.115   4.596  2.5417 -1.0575  0.1789
18203SOL     OW56540   5.983   6.646   3.316 -0.5104 -0.4774 -0.2131
18203SOL    HW156541   5.955   6.730   3.279  1.2236 -0.3568 -1.3514
18203SOL    HW256542   6.053   6.668   3.377 -0.7347 -1.0246  0.2499
18204SOL     OW56543   2.181   1.179   7.694  0.3868 -0.5562 -0.6894
18204SOL    HW156544   2.139   1.112   7.748  0.5318  0.2686  0.4784
18204SOL    HW256545   2.145   1.165   7.607 -1.3809 -0.6536  0.0173
18205SOL     OW56546   1.902   3.724   3.019  0.2773 -0.0036  0.2962
18205SOL    HW156547   1.950   3.729   3.102  0.4884 -1.0382  0.2504
18205SOL    HW256548   1.924   3.805   2.973 -1.1872  1.4068  1.9503
18206SOL     OW56549   2.145   6.210   6.163  0.6398  0.3923  0.7769
18206SOL    HW156550   2.092   6.130   6.171  0.3536  0.6244  1.2247
18206SOL    HW256551   2.120   6.246   6.078  1.1458 -0.2577  0.3356
18207SOL     OW56552   6.764   5.111   5.418 -0.0470  0.1842 -0.6591
18207SOL    HW156553   6.847   5.140   5.379 -0.3839  0.7532 -0.9785
18207SOL    HW256554   6.755   5.020   5.390  2.1119 -1.0701  2.1622
18208SOL     OW56555   0.854   3.824   5.376 -0.0385  0.1166  0.2003
18208SOL    HW156556   0.782   3.762   5.367 -0.5159  0.8727 -1.5131
18208SOL    HW256557   0.933   3.769   5.372 -0.4607 -0.5877  0.9700
18209SOL     OW56558   0.486   3.211   0.701  0.4261  0.2089 -0.8289
18209SOL    HW156559   0.566   3.191   0.651  3.0380  1.9220  2.2913
18209SOL    HW256560   0.507   3.293   0.746 -1.0262 -1.8305  4.1587
18210SOL     OW56561   5.899   1.771   2.891 -0.0545 -0.5018 -0.6040
18210SOL    HW156562   5.807   1.791   2.909  0.7408  1.3630  2.0178
18210SOL    HW256563   5.931   1.733   2.973  1.7638 -0.0697 -1.0816
18211SOL     OW56564   1.967   1.543   8.017  0.0592 -0.3709 -0.2458
18211SOL    HW156565   1.951   1.554   8.111  0.5918 -0.0148 -0.1944
18211SOL    HW256566   2.060   1.523   8.010  0.4300  1.3588 -0.8124
18212SOL     OW56567   3.174   7.213   1.585  0.0153 -0.3638 -0.1474
18212SOL    HW156568   3.257   7.259   1.572  0.5199 -0.9216  1.0199
18212SOL    HW256569   3.111   7.282   1.605  0.2972  0.0131 -0.5302
18213SOL     OW56570   2.301   7.373   1.749  0.2322  0.4298  0.3954
18213SOL    HW156571   2.293   7.430   1.826 -0.9404 -0.0178  0.6260
18213SOL    HW256572   2.392   7.383   1.721  1.4942 -1.3605  3.3894
18214SOL     OW56573   1.738   3.196   1.749  0.0716  0.0126  0.2180
18214SOL    HW156574   1.791   3.118   1.765 -0.3642  0.0529  2.0426
18214SOL    HW256575   1.652   3.161   1.724  0.2221 -0.0614 -0.2168
18215SOL     OW56576   7.461   1.035   0.535  0.7646  0.0156  0.3090
18215SOL    HW156577   7.473   0.997   0.622 -0.6250 -0.1630  0.4509
18215SOL    HW256578   7.520   0.986   0.478  1.5574  0.0138  1.1115
18216SOL     OW56579   2.507   8.549   0.812 -0.1664  0.4532  0.7174
18216SOL    HW156580   2.563   8.475   0.835 -1.8426 -0.5749  1.7248
18216SOL    HW256581   2.562   8.626   0.825  1.2748 -0.5517  0.7659
18217SOL     OW56582   4.490   5.222   5.771 -0.3432  0.1570 -0.0952
18217SOL    HW156583   4.531   5.170   5.840 -1.6143  0.2021  0.7410
18217SOL    HW256584   4.499   5.168   5.692  0.8954 -0.0149  0.1450
18218SOL     OW56585   1.803   7.522   8.148 -0.7296  0.3495  0.0605
18218SOL    HW156586   1.798   7.587   8.219  0.8841  1.1413 -0.4926
18218SOL    HW256587   1.723   7.471   8.157 -0.3702  0.0966  2.7866
18219SOL     OW56588   4.444   6.451   2.385 -0.2394  0.0127  0.0557
18219SOL    HW156589   4.436   6.379   2.323 -0.4773  0.7446 -0.7715
18219SOL    HW256590   4.422   6.411   2.470 -2.3446 -0.4520 -0.6562
18220SOL     OW56591   4.764   4.147   2.288 -0.0322 -0.3905  0.0499
18220SOL    HW156592   4.850   4.109   2.269 -0.6405 -0.8352 -2.0950
18220SOL    HW256593   4.782   4.220   2.347  1.5342 -1.8929  1.5563
18221SOL     OW56594   7.525   8.323   7.730  0.1161 -0.1447 -0.7850
18221SOL    HW156595   7.470   8.324   7.808 -0.8348  2.7770 -1.3691
18221SOL    HW256596   7.614   8.323   7.763 -0.2255 -1.4884  0.2187
18222SOL     OW56597   5.633   4.570   7.640  0.5988  0.4838  0.5412
18222SOL    HW156598   5.671   4.517   7.710  2.5170  0.5742 -0.3680
18222SOL    HW256599   5.691   4.645   7.633 -1.3168  2.0768  0.8917
18223SOL     OW56600   6.970   7.709   2.034  0.4759 -0.3211  0.0459
18223SOL    HW156601   6.943   7.785   2.085  0.3668  0.7243 -1.4948
18223SOL    HW256602   6.906   7.642   2.056  0.2685  0.1783  1.0494
18224SOL     OW56603   2.206   8.325   3.124 -0.4660  0.3444  0.7347
18224SOL    HW156604   2.198   8.236   3.157 -0.8210 -0.3211 -1.0657
18224SOL    HW256605   2.121   8.345   3.086  0.8225 -0.2901 -2.8930
18225SOL     OW56606   8.830   2.259   0.089 -0.2092 -0.0719  0.4790
18225SOL    HW156607   8.836   2.339   0.038  0.8655  0.3523  1.2628
18225SOL    HW256608   8.868   2.192   0.032 -1.2708 -0.1003 -0.2485
18226SOL     OW56609   3.514   6.298   2.920 -0.1561 -0.2261  0.5194
18226SOL    HW156610   3.583   6.309   2.986 -0.5399  0.4059  0.8246
18226SOL    HW256611   3.560   6.263   2.844  0.1131 -2.1354  1.4830
18227SOL     OW56612   6.024   0.136   1.353 -0.1300  0.4942  0.2606
18227SOL    HW156613   5.983   0.193   1.419 -1.8917  0.3885 -0.6779
18227SOL    HW256614   5.972   0.056   1.354  0.0950  0.3106 -0.9366
18228SOL     OW56615   8.023   7.015   8.390  0.1824 -0.3302 -0.1766
18228SOL    HW156616   7.934   7.031   8.358 -0.6217 -2.6883  0.6944
18228SOL    HW256617   8.038   7.085   8.453 -0.0622  1.5298 -2.0612
18229SOL     OW56618   3.833   4.513   8.587  0.1313  0.6038 -0.2390
18229SOL    HW156619   3.761   4.450   8.592 -0.4406  0.9710 -2.5605
18229SOL    HW256620   3.790   4.599   8.584  0.7274  0.9065 -0.2831
18230SOL     OW56621   8.323   7.943   1.433  0.4771  0.2229 -0.3649
18230SOL    HW156622   8.415   7.926   1.413  0.5490  1.7531 -1.5577
18230SOL    HW256623   8.312   7.911   1.522  1.6066 -1.8760 -0.9163
18231SOL     OW56624   6.188   2.988   0.378 -0.1356 -0.2242 -0.3133
18231SOL    HW156625   6.270   3.000   0.331  0.0605  1.6659  0.4048
18231SOL    HW256626   6.140   3.070   0.363  0.5029  1.1382  3.6995
18232SOL     OW56627   6.131   5.344   7.879 -0.1393  0.4750  0.4281
18232SOL    HW156628   6.184   5.351   7.800 -1.2912  0.3962 -0.3729
18232SOL    HW256629   6.166   5.267   7.924  1.2608  1.1697  0.5833
18233SOL     OW56630   8.757   6.574   1.771  0.4667 -0.1307 -0.4138
18233SOL    HW156631   8.764   6.668   1.756  0.6150 -0.0252  0.2901
18233SOL    HW256632   8.663   6.557   1.777  0.3896 -0.1990 -1.5285
18234SOL     OW56633   6.152   1.536   7.602  0.2899 -0.2654  0.1935
18234SOL    HW156634   6.135   1.443   7.588 -0.3400 -0.0425 -0.6224
18234SOL    HW256635   6.067   1.578   7.589  0.9750  0.6591 -1.7576
18235SOL     OW56636   0.778   6.110   4.301 -0.0819 -0.6355 -0.3055
18235SOL    HW156637   0.710   6.113   4.368  0.5508  1.8030  0.3582
18235SOL    HW256638   0.732   6.127   4.219 -0.5743 -1.4688 -0.2139
18236SOL     OW56639   3.160   6.174   0.197  0.2592  0.1545 -0.4984
18236SOL    HW156640   3.080   6.122   0.196 -1.0503  2.0336  0.1971
18236SOL    HW256641   3.161   6.218   0.112  0.4400  0.3127 -0.4150
18237SOL     OW56642   6.616   0.946   2.920  0.0986 -0.1768 -0.1562
18237SOL    HW156643   6.568   1.000   2.982 -0.1278 -1.0014  0.4053
18237SOL    HW256644   6.674   0.893   2.974  0.2135 -0.5986 -0.6820
18238SOL     OW56645   4.848   6.347   4.757 -0.4277  0.2426  0.0394
18238SOL    HW156646   4.933   6.355   4.800 -0.2627  1.9992 -0.5495
18238SOL    HW256647   4.805   6.275   4.803  1.4697 -0.9077  0.1534
18239SOL     OW56648   8.150   6.864   8.673  0.5556  0.2656 -0.4830
18239SOL    HW156649   8.213   6.892   8.607  1.8130  0.1463  0.6278
18239SOL    HW256650   8.067   6.901   8.644  0.9937 -0.0740 -2.3044
18240SOL     OW56651   0.908   3.666   6.680  0.3683 -0.9048 -0.5007
18240SOL    HW156652   0.815   3.676   6.700  0.3466 -1.0626 -0.5166
18240SOL    HW256653   0.924   3.723   6.606  0.1746 -1.2446 -0.8050
18241SOL     OW56654   7.033   3.629   3.873  0.1544 -0.2621  0.2415
18241SOL    HW156655   6.997   3.545   3.846 -2.0540 -0.0183  2.0552
18241SOL    HW256656   7.020   3.631   3.968  0.1044  2.1210  0.2600
18242SOL     OW56657   7.669   0.891   0.430 -0.2502 -0.0345 -0.2122
18242SOL    HW156658   7.730   0.822   0.456  0.5706  0.6830 -0.1909
18242SOL    HW256659   7.725   0.960   0.394 -1.0328  0.7290  0.0084
18243SOL     OW56660   4.524   8.441   7.385  0.3241  0.3382  0.0715
18243SOL    HW156661   4.533   8.393   7.302  1.7000  0.6549  0.0069
18243SOL    HW256662   4.460   8.391   7.435 -2.1006  1.2465 -1.9407
18244SOL     OW56663   6.020   4.429   8.199  0.2775 -0.6762  0.3692
18244SOL    HW156664   6.070   4.510   8.192  0.1682 -0.4994  1.4910
18244SOL    HW256665   6.052   4.388   8.279 -1.4193 -0.5280  1.1698
18245SOL     OW56666   5.891   1.936   5.101  0.4824  0.6356 -0.0159
18245SOL    HW156667   5.815   1.906   5.151  0.2650 -0.2322 -0.8582
18245SOL    HW256668   5.936   1.995   5.161 -1.2208  1.7322  0.2693
18246SOL     OW56669   2.190   3.834   8.057 -0.2174  0.5315  0.3239
18246SOL    HW156670   2.216   3.920   8.090 -0.6223  0.3326  1.1660
18246SOL    HW256671   2.127   3.854   7.988 -1.2840  0.8869  1.3781
18247SOL     OW56672   2.584   0.583   1.594  0.0959  0.1793 -0.2712
18247SOL    HW156673   2.648   0.588   1.666 -0.0509  0.4235 -0.1582
18247SOL    HW256674   2.628   0.530   1.528 -0.6059 -1.9627  0.8798
18248SOL     OW56675   5.026   4.313   0.928  0.2563  0.1018 -0.2330
18248SOL    HW156676   5.093   4.254   0.961 -0.4028 -1.2918 -1.2943
18248SOL    HW256677   4.961   4.319   0.999  0.5457 -0.0902  0.0474
18249SOL     OW56678   1.211   6.462   8.686 -0.3234 -0.6359 -0.0401
18249SOL    HW156679   1.297   6.428   8.710 -0.5942 -0.2913  1.5208
18249SOL    HW256680   1.149   6.404   8.732 -0.8957 -0.2859 -0.3616
18250SOL     OW56681   7.587   1.845   5.203 -0.7092 -0.3492  0.2336
18250SOL    HW156682   7.588   1.750   5.193 -0.5449 -0.4842  1.3853
18250SOL    HW256683   7.614   1.860   5.294  2.4014  0.9282 -0.7644
18251SOL     OW56684   7.875   3.277   3.219 -0.2414 -0.8929 -0.5335
18251SOL    HW156685   7.946   3.305   3.278  0.6995 -0.6513 -1.7323
18251SOL    HW256686   7.856   3.355   3.167 -2.2103 -0.6210  0.5167
18252SOL     OW56687   8.544   4.274   2.918 -0.3334  0.1964 -0.3430
18252SOL    HW156688   8.542   4.337   2.990  0.3160  0.3067 -0.4084
18252SOL    HW256689   8.516   4.325   2.842  0.7512  0.5776 -0.5068
18253SOL     OW56690   2.651   1.047   6.546  0.0364 -0.4355 -1.1669
18253SOL    HW156691   2.567   1.094   6.552  0.7652  0.8180 -0.4819
18253SOL    HW256692   2.652   1.012   6.456 -1.7033 -1.4471 -0.8427
18254SOL     OW56693   6.586   3.144   5.954  0.0488 -0.0248  0.9165
18254SOL    HW156694   6.544   3.228   5.937 -0.2062 -0.4602 -0.8191
18254SOL    HW256695   6.531   3.102   6.019 -0.4663  0.6702  0.9433
18255SOL     OW56696   0.142   3.909   6.685 -0.1496  0.4134  0.8094
18255SOL    HW156697   0.052   3.880   6.669 -0.0859 -0.2641  1.6123
18255SOL    HW256698   0.189   3.890   6.605 -0.6374  0.4376  0.5150
18256SOL     OW56699   4.630   8.368   8.272 -0.0974  0.4177  0.1566
18256SOL    HW156700   4.572   8.353   8.197  1.2544 -3.5832 -0.3383
18256SOL    HW256701   4.717   8.378   8.232  0.3060  0.7469  1.1051
18257SOL     OW56702   2.477   4.423   4.690 -0.5739  0.0617 -0.3578
18257SOL    HW156703   2.521   4.340   4.673 -0.7414 -0.1294  0.1330
18257SOL    HW256704   2.456   4.421   4.783 -0.4028  0.7386 -0.2949
18258SOL     OW56705   0.574   3.164   1.551  0.6335 -0.1211  0.2811
18258SOL    HW156706   0.635   3.157   1.624 -1.2664 -1.0764  1.8664
18258SOL    HW256707   0.551   3.074   1.530 -0.2163  0.2213 -0.2949
18259SOL     OW56708   0.177   7.027   8.239  0.0657 -0.4469 -0.0960
18259SOL    HW156709   0.250   7.062   8.290 -1.1517 -0.4681  1.7346
18259SOL    HW256710   0.177   7.080   8.159  0.2502  1.6281  1.1981
18260SOL     OW56711   0.391   3.337   7.621  0.1904 -0.6261  0.1860
18260SOL    HW156712   0.444   3.398   7.672  0.6280 -1.4259  0.7061
18260SOL    HW256713   0.341   3.289   7.687  1.2043 -2.0912 -0.0857
18261SOL     OW56714   4.046   8.274   0.591  0.5687  0.0262 -0.4901
18261SOL    HW156715   4.097   8.355   0.592 -0.5924  0.7879 -0.9605
18261SOL    HW256716   4.030   8.255   0.684 -0.0675  0.9523 -0.3929
18262SOL     OW56717   5.186   4.108   1.009 -0.4711  0.1640 -0.4737
18262SOL    HW156718   5.260   4.074   0.959 -0.0733  0.6359 -0.2138
18262SOL    HW256719   5.218   4.116   1.099 -0.4571  1.4557 -0.5684
18263SOL     OW56720   1.528   3.405   3.429  0.5418 -0.2299  0.3369
18263SOL    HW156721   1.583   3.327   3.421 -0.4427 -0.9136 -0.0360
18263SOL    HW256722   1.546   3.438   3.517  0.6038 -1.1891  0.7039
18264SOL     OW56723   3.927   5.094   1.760 -0.6812  0.2311 -0.7166
18264SOL    HW156724   3.881   5.082   1.844 -2.9837  0.1529 -1.9087
18264SOL    HW256725   3.888   5.028   1.702  0.4770  0.6477 -2.0201
18265SOL     OW56726   1.590   0.239   4.630  0.4636  0.1399 -0.7110
18265SOL    HW156727   1.517   0.241   4.569  0.1199 -2.9737 -0.5628
18265SOL    HW256728   1.629   0.152   4.618  0.7757 -0.4043  2.9873
18266SOL     OW56729   0.628   6.753   1.782  0.4146  0.1543 -0.2161
18266SOL    HW156730   0.609   6.842   1.753 -0.4183  0.7311  1.9344
18266SOL    HW256731   0.707   6.761   1.836 -0.1538 -0.2352  0.7067
18267SOL     OW56732   2.872   7.981   0.367  0.0981  0.8765  0.2528
18267SOL    HW156733   2.886   7.989   0.273  0.8996  0.0732  0.2948
18267SOL    HW256734   2.957   8.001   0.406 -0.2524  1.3026  0.8189
18268SOL     OW56735   2.491   5.821   7.676  0.0952  0.0382  0.2844
18268SOL    HW156736   2.568   5.764   7.668 -0.8983 -1.4445  0.8243
18268SOL    HW256737   2.419   5.768   7.642 -1.1908  0.2368  2.5610
18269SOL     OW56738   5.813   8.254   1.624 -0.2192 -0.5611 -0.3076
18269SOL    HW156739   5.903   8.246   1.655 -0.0136 -1.1782 -1.0288
18269SOL    HW256740   5.762   8.273   1.702  0.5615 -0.0207  0.0818
18270SOL     OW56741   7.420   5.672   5.495 -0.6674 -0.2386 -0.0911
18270SOL    HW156742   7.491   5.733   5.515 -0.3791 -1.1036  1.6857
18270SOL    HW256743   7.464   5.589   5.479 -1.1548 -0.3109 -1.1481
18271SOL     OW56744   3.519   2.222   1.340 -0.2793  0.4976  0.2632
18271SOL    HW156745   3.574   2.166   1.394 -0.6956  0.1023  0.2834
18271SOL    HW256746   3.489   2.166   1.269  1.6322  1.4318 -1.3689
18272SOL     OW56747   0.256   6.720   2.152  0.8741  0.5034  0.0506
18272SOL    HW156748   0.202   6.658   2.103  0.2790  1.3178 -0.3642
18272SOL    HW256749   0.202   6.747   2.226  1.2208  0.3545  0.3639
18273SOL     OW56750   5.447   1.271   3.163  0.0067 -0.9844 -0.2143
18273SOL    HW156751   5.507   1.344   3.172 -2.1781  0.9642 -0.5741
18273SOL    HW256752   5.456   1.222   3.245  0.3610  0.6110  0.7436
18274SOL     OW56753   7.266   7.321   7.531 -0.2275 -0.0128  0.4377
18274SOL    HW156754   7.240   7.413   7.544  1.3048  0.5535 -0.3519
18274SOL    HW256755   7.322   7.301   7.606  0.2584  0.0243  0.0894
18275SOL     OW56756   1.251   8.030   5.022  0.6841 -0.2023  0.5073
18275SOL    HW156757   1.220   8.120   5.018  0.9874 -0.1009 -3.2781
18275SOL    HW256758   1.172   7.977   5.016  0.5720  0.0437 -4.5940
18276SOL     OW56759   7.514   7.588   4.759 -0.2907  0.2463 -0.2351
18276SOL    HW156760   7.586   7.559   4.703 -0.7384 -0.1585 -0.6157
18276SOL    HW256761   7.515   7.527   4.832 -2.2608 -1.8853 -1.8375
18277SOL     OW56762   7.637   4.403   4.288 -0.1327  0.2094  0.4504
18277SOL    HW156763   7.623   4.424   4.195  1.2937 -0.8749 -0.0447
18277SOL    HW256764   7.614   4.311   4.296  1.5266 -0.1991  0.7447
18278SOL     OW56765   6.371   7.282   1.317  0.7221 -0.0137 -0.5722
18278SOL    HW156766   6.358   7.283   1.412  3.0558 -0.1859 -0.1792
18278SOL    HW256767   6.447   7.225   1.304  0.6045  0.2055 -2.5233
18279SOL     OW56768   0.471   6.911   7.023 -0.6981  0.4232 -0.5034
18279SOL    HW156769   0.551   6.908   6.971  0.4536  0.4553  1.1632
18279SOL    HW256770   0.426   6.991   6.996 -0.2494  0.3213 -1.5731
18280SOL     OW56771   2.071   2.521   3.664  0.0846  0.3225  0.2924
18280SOL    HW156772   2.093   2.428   3.663  1.0741  0.5548 -0.0979
18280SOL    HW256773   2.117   2.556   3.740 -0.4615  0.4655  0.5668
18281SOL     OW56774   6.270   5.360   3.729  0.4311  0.0967 -0.5761
18281SOL    HW156775   6.239   5.358   3.639 -3.4419 -0.8912  0.5862
18281SOL    HW256776   6.259   5.451   3.757 -1.0271 -0.1109 -0.3832
18282SOL     OW56777   0.380   2.371   1.749  0.2462  0.3686  0.5362
18282SOL    HW156778   0.298   2.328   1.724  0.4056 -0.6110  1.5892
18282SOL    HW256779   0.412   2.319   1.823  0.8846  1.8229  1.3109
18283SOL     OW56780   0.038   1.608   3.549 -0.4105 -0.0518  0.2895
18283SOL    HW156781  -0.022   1.549   3.505 -0.2855 -0.2324  0.3564
18283SOL    HW256782   0.050   1.569   3.636  2.8168 -2.2560 -0.9158
18284SOL     OW56783   8.803   1.926   8.016  0.2808 -0.6430 -0.8366
18284SOL    HW156784   8.736   1.903   7.952 -0.7854 -2.2495  0.7469
18284SOL    HW256785   8.772   2.008   8.054 -0.2864 -0.8624 -0.8156
18285SOL     OW56786   4.461   0.384   4.856  0.7253  0.0061 -0.3663
18285SOL    HW156787   4.434   0.296   4.879  1.8722 -0.3060 -0.1528
18285SOL    HW256788   4.470   0.429   4.940 -0.4670  0.5305 -0.5006
18286SOL     OW56789   1.206   8.046   2.763  0.4216  0.6097  0.6009
18286SOL    HW156790   1.166   8.076   2.681  0.1139  0.4381  0.6844
18286SOL    HW256791   1.174   7.956   2.774  0.8915  0.4460  0.6348
18287SOL     OW56792   0.722   5.461   4.382 -0.6186  0.6287  0.2658
18287SOL    HW156793   0.651   5.521   4.360  0.1064  0.2519 -3.9642
18287SOL    HW256794   0.680   5.376   4.393 -1.1533  1.0559  1.8100
18288SOL     OW56795   3.905   7.743   7.299 -0.8544  0.4467 -0.5563
18288SOL    HW156796   3.941   7.823   7.336 -0.1243 -0.0372 -0.2112
18288SOL    HW256797   3.811   7.749   7.315 -0.5490  0.1634  1.5623
18289SOL     OW56798   6.788   0.618   0.876 -0.2227 -0.9207 -0.1001
18289SOL    HW156799   6.821   0.708   0.877  0.3679 -1.1344  0.4033
18289SOL    HW256800   6.717   0.619   0.811  1.7430 -0.7978 -2.4033
18290SOL     OW56801   4.134   3.595   1.813  0.0806 -0.2799 -0.0685
18290SOL    HW156802   4.198   3.643   1.762 -1.0704 -1.4521 -2.8180
18290SOL    HW256803   4.073   3.663   1.844  1.2232  0.5437  0.4441
18291SOL     OW56804   8.500   3.847   6.642  0.0491 -0.1245 -0.4049
18291SOL    HW156805   8.482   3.842   6.548 -0.3492 -3.1055 -0.2531
18291SOL    HW256806   8.447   3.778   6.680  0.8537  0.4691  1.9452
18292SOL     OW56807   2.003   6.178   1.087 -0.5236  0.1610 -0.8992
18292SOL    HW156808   1.930   6.235   1.062 -0.4642  0.8528  0.3934
18292SOL    HW256809   2.078   6.237   1.090 -0.6057  0.2178  1.1989
18293SOL     OW56810   8.245   4.306   2.809 -0.3874 -0.0632 -0.4589
18293SOL    HW156811   8.292   4.300   2.891  0.8315  2.0567 -0.9382
18293SOL    HW256812   8.313   4.320   2.743 -1.5290  1.8028 -1.3359
18294SOL     OW56813   8.168   8.135   8.251  0.6264  0.2364 -0.2180
18294SOL    HW156814   8.227   8.154   8.178  1.2650 -1.1759 -0.1063
18294SOL    HW256815   8.096   8.085   8.212  0.3304  0.5528 -0.0811
18295SOL     OW56816   8.744   8.447   5.647  0.1341 -0.2421 -0.2873
18295SOL    HW156817   8.684   8.424   5.576 -0.4879  0.0174  0.1405
18295SOL    HW256818   8.825   8.400   5.627 -0.5672 -1.4852 -0.2971
18296SOL     OW56819   0.613   6.514   3.011  0.5763 -0.0702 -0.2375
18296SOL    HW156820   0.558   6.477   2.942 -0.7803 -0.4131  0.9671
18296SOL    HW256821   0.611   6.609   2.996  0.7658 -0.1812 -0.9888
18297SOL     OW56822   3.574   5.038   1.789 -0.2980  0.0018 -0.1765
18297SOL    HW156823   3.524   5.042   1.871 -0.7412 -0.5442 -0.4190
18297SOL    HW256824   3.565   4.948   1.760  0.5076 -0.0021 -0.4303
18298SOL     OW56825   8.553   1.280   1.725 -0.1972 -0.2066 -0.1125
18298SOL    HW156826   8.609   1.342   1.678  0.1745 -0.5507 -0.1298
18298SOL    HW256827   8.613   1.213   1.757 -0.8558 -1.8376 -2.0815
18299SOL     OW56828   5.584   5.853   0.187  0.1070 -0.8149  0.5700
18299SOL    HW156829   5.529   5.913   0.239  0.0176 -0.6944  0.3357
18299SOL    HW256830   5.549   5.766   0.207 -0.1678 -0.7390  0.4234
18300SOL     OW56831   0.645   2.029   5.486 -0.1864 -0.0305  0.0261
18300SOL    HW156832   0.653   2.113   5.531  0.5045  0.4528 -0.9592
18300SOL    HW256833   0.661   1.964   5.555 -0.4697  0.6394  0.7471
18301SOL     OW56834   3.258   2.803   6.455  0.0984  0.4690 -0.1689
18301SOL    HW156835   3.302   2.861   6.517  0.2847  0.4672 -0.2974
18301SOL    HW256836   3.217   2.863   6.392  1.0133  0.4554 -0.7980
18302SOL     OW56837   0.466   4.158   4.967  0.4200  1.1258 -0.0155
18302SOL    HW156838   0.389   4.205   4.997  0.6957  2.0060 -0.6444
18302SOL    HW256839   0.432   4.084   4.917 -0.0178  0.7500  0.8281
18303SOL     OW56840   1.964   1.886   0.864  0.2657  0.3071 -0.0913
18303SOL    HW156841   2.053   1.921   0.877  0.5953 -0.6040  0.1823
18303SOL    HW256842   1.929   1.937   0.791  0.3865  1.8306  0.8652
18304SOL     OW56843   6.978   0.648   3.621 -0.2346  0.0927 -0.0913
18304SOL    HW156844   7.032   0.592   3.564  0.2092 -0.0332  0.4474
18304SOL    HW256845   6.900   0.596   3.638  0.2975 -0.4886  0.6322
18305SOL     OW56846   5.449   5.778   3.445  0.2667  0.3762 -0.1435
18305SOL    HW156847   5.420   5.735   3.526  1.0151 -1.1206 -0.6492
18305SOL    HW256848   5.386   5.750   3.379 -0.0234  1.1612 -0.2125
18306SOL     OW56849   1.085   4.484   4.995  0.4355 -0.3643 -0.3250
18306SOL    HW156850   1.074   4.577   5.014  1.7005 -0.4321  0.8506
18306SOL    HW256851   1.005   4.460   4.947 -0.9795  0.7802  1.3351
18307SOL     OW56852   5.093   4.881   5.014 -0.1302 -0.1519 -0.1768
18307SOL    HW156853   5.183   4.886   5.046  0.2682  2.2958 -1.4852
18307SOL    HW256854   5.100   4.835   4.930  0.0823  0.9052 -0.7548
18308SOL     OW56855   2.104   1.465   3.261 -0.5110  0.5924 -0.7306
18308SOL    HW156856   2.166   1.520   3.213  0.1595 -0.6106 -1.3058
18308SOL    HW256857   2.128   1.376   3.236 -1.3324  0.0205  0.4488
18309SOL     OW56858   5.651   1.729   7.504  0.0015 -0.1975 -0.2734
18309SOL    HW156859   5.598   1.805   7.530  0.9723 -0.2521  2.0655
18309SOL    HW256860   5.698   1.759   7.425 -2.0955  0.4401 -1.3617
18310SOL     OW56861   4.122   7.127   4.602  0.1342  0.1578  0.1045
18310SOL    HW156862   4.133   7.196   4.668 -0.8795  0.9496 -0.5134
18310SOL    HW256863   4.158   7.164   4.522 -1.1269  0.3079 -0.4200
18311SOL     OW56864   8.441   2.507   6.258 -0.2749  0.3404 -0.2753
18311SOL    HW156865   8.456   2.567   6.185  1.9242  0.5316  0.2417
18311SOL    HW256866   8.490   2.546   6.331  0.7516 -1.7594  0.2283
18312SOL     OW56867   0.748   5.634   1.401  0.4106 -0.3427 -0.4591
18312SOL    HW156868   0.658   5.654   1.375  1.0082  0.9103 -1.6795
18312SOL    HW256869   0.779   5.714   1.443  0.6403 -1.1300  0.9470
18313SOL     OW56870   3.069   5.521   2.507 -0.1164  0.2733 -0.4704
18313SOL    HW156871   2.989   5.508   2.559  0.7712 -0.2574  0.8060
18313SOL    HW256872   3.135   5.466   2.550  0.5493 -0.5408 -2.4501
18314SOL     OW56873   5.648   1.622   0.548 -0.0294  0.5182  1.1512
18314SOL    HW156874   5.732   1.579   0.534 -1.0971 -1.7404  1.2539
18314SOL    HW256875   5.592   1.591   0.476  0.3227  5.5206 -1.7537
18315SOL     OW56876   1.445   1.294   4.646  0.4320  0.4797 -0.0153
18315SOL    HW156877   1.440   1.286   4.550 -2.9428 -0.2925  0.1155
18315SOL    HW256878   1.414   1.383   4.663 -0.8278 -0.0301  0.4174
18316SOL     OW56879   3.523   8.339   8.049  0.0007 -0.3033  0.2088
18316SOL    HW156880   3.492   8.340   8.139  1.1874  1.8641  0.6631
18316SOL    HW256881   3.617   8.357   8.056  0.2605 -0.8946 -1.4102
18317SOL     OW56882   6.459   4.414   3.823  0.0223 -0.7770  0.1976
18317SOL    HW156883   6.503   4.497   3.843 -0.5993 -0.0825 -1.1798
18317SOL    HW256884   6.413   4.391   3.904 -1.1760  1.1287  0.1182
18318SOL     OW56885   4.868   7.590   6.450 -0.1364  0.0241 -0.5396
18318SOL    HW156886   4.880   7.497   6.469  1.2995  0.0066 -1.3106
18318SOL    HW256887   4.886   7.597   6.356 -1.2540  0.9407 -0.7082
18319SOL     OW56888   2.912   3.357   0.556  0.4180 -0.2202  0.1123
18319SOL    HW156889   2.839   3.356   0.494  0.9103  0.9128 -0.5182
18319SOL    HW256890   2.878   3.403   0.633  0.1704 -0.5677  0.2122
18320SOL     OW56891   7.226   3.509   7.360 -0.2672 -0.6443  0.0662
18320SOL    HW156892   7.211   3.447   7.289  0.9137  0.4037 -1.1370
18320SOL    HW256893   7.279   3.460   7.424 -0.9745 -1.4532  0.0547
18321SOL     OW56894   2.189   3.976   8.296  0.2504  0.8230 -0.4263
18321SOL    HW156895   2.223   3.889   8.274  1.5316  0.7686  1.4825
18321SOL    HW256896   2.239   4.002   8.373 -1.4933  2.4104  0.2563
18322SOL     OW56897   6.905   3.317   5.027 -0.3197 -0.2317 -0.4865
18322SOL    HW156898   6.864   3.395   5.066 -0.3148 -0.8549  0.8372
18322SOL    HW256899   6.997   3.324   5.052 -0.0336  0.0627 -1.6010
18323SOL     OW56900   5.342   5.299   7.234 -0.7918  0.2675 -0.3044
18323SOL    HW156901   5.252   5.332   7.236 -0.2193  1.9401 -0.7034
18323SOL    HW256902   5.395   5.374   7.206  0.6513 -0.8650 -0.7563
18324SOL     OW56903   2.883   5.758   5.145 -0.1915  0.0617 -0.0656
18324SOL    HW156904   2.881   5.854   5.152  1.4321  0.1314  0.0136
18324SOL    HW256905   2.811   5.736   5.086  0.1772  1.4453 -1.0806
18325SOL     OW56906   1.874   7.253   7.143 -0.2540 -0.0262  0.0214
18325SOL    HW156907   1.930   7.311   7.091  1.5949 -0.0256  1.8780
18325SOL    HW256908   1.930   7.178   7.163 -1.6411 -1.0577  0.1590
18326SOL     OW56909   0.158   3.549   1.402 -0.3222 -0.0292 -0.6735
18326SOL    HW156910   0.239   3.596   1.422 -0.3751 -0.2537  0.1053
18326SOL    HW256911   0.187   3.467   1.362 -0.2468  0.9467 -2.7490
18327SOL     OW56912   6.506   1.111   4.224 -0.0124  0.4610 -0.0697
18327SOL    HW156913   6.435   1.166   4.192 -0.4221  0.4517  0.7706
18327SOL    HW256914   6.464   1.026   4.239  0.0923  0.5410  0.7208
18328SOL     OW56915   6.182   1.674   5.276  0.3845  0.2372 -0.2570
18328SOL    HW156916   6.129   1.638   5.204 -1.0129  0.5235  0.5920
18328SOL    HW256917   6.225   1.598   5.315 -0.0091 -0.1046 -0.4839
18329SOL     OW56918   3.004   0.229   8.249  0.3169  0.1076  0.0157
18329SOL    HW156919   3.095   0.206   8.228  0.4787  0.2773  0.5170
18329SOL    HW256920   3.008   0.264   8.338  0.2224  2.9584 -1.0141
18330SOL     OW56921   2.125   8.375   2.807  0.0512 -0.4382  0.3263
18330SOL    HW156922   2.168   8.384   2.892  0.4423 -0.0265  0.0892
18330SOL    HW256923   2.158   8.293   2.771  0.5021 -0.2175  0.2288
18331SOL     OW56924   3.012   8.367   6.380  0.1855  0.1601  0.4877
18331SOL    HW156925   2.938   8.344   6.436 -0.9938 -0.1938 -1.1568
18331SOL    HW256926   3.077   8.298   6.398 -0.2099 -0.0115  1.3266
18332SOL     OW56927   0.292   5.000   0.190  0.3287  0.0631  0.1938
18332SOL    HW156928   0.207   4.990   0.233  0.4472 -0.7464  0.2535
18332SOL    HW256929   0.270   5.020   0.099  0.0315 -2.1965 -0.2859
18333SOL     OW56930   5.101   8.031   8.176 -0.8667  0.5736 -0.5354
18333SOL    HW156931   5.071   8.054   8.088 -2.1213 -1.3519 -0.6844
18333SOL    HW256932   5.023   7.993   8.218 -0.2104  1.1658  1.3031
18334SOL     OW56933   1.403   8.533   7.759  0.5587  0.5733 -0.1971
18334SOL    HW156934   1.357   8.480   7.823 -0.0846  0.0967 -1.0319
18334SOL    HW256935   1.494   8.502   7.763  0.4428  0.2753  0.1967
18335SOL     OW56936   4.808   2.354   1.955 -0.1172 -0.2021  0.2983
18335SOL    HW156937   4.784   2.272   2.000  0.7350 -0.5693  0.0987
18335SOL    HW256938   4.748   2.419   1.991  0.6935 -0.4301  2.1937
18336SOL     OW56939   1.341   3.234   8.648  0.2486 -0.2159 -0.6630
18336SOL    HW156940   1.414   3.269   8.597  0.1223 -1.5933 -1.8677
18336SOL    HW256941   1.294   3.179   8.587 -1.6158  0.3488  0.1991
18337SOL     OW56942   6.254   4.293   2.955  0.3387 -0.5838 -0.3908
18337SOL    HW156943   6.207   4.267   2.876  0.9090 -1.6486 -0.3933
18337SOL    HW256944   6.187   4.335   3.010  0.2295  1.4759 -1.9941
18338SOL     OW56945   1.156   7.783   8.407  0.0699 -0.4854  0.3316
18338SOL    HW156946   1.237   7.771   8.455 -0.1607 -1.3873  0.5099
18338SOL    HW256947   1.091   7.731   8.454 -0.6763  0.3969  0.3293
18339SOL     OW56948   6.959   8.719   1.646 -0.1511  0.5113 -0.1255
18339SOL    HW156949   6.887   8.757   1.696 -1.5643 -0.5136 -1.2894
18339SOL    HW256950   6.992   8.792   1.593  3.0005  2.3225  3.7721
18340SOL     OW56951   0.951   1.891   2.227 -0.2086  0.1978  0.4087
18340SOL    HW156952   0.939   1.973   2.180  0.3555 -0.8200 -1.6653
18340SOL    HW256953   1.026   1.906   2.285  0.1865  1.0246 -0.2963
18341SOL     OW56954   6.779   7.387   0.424  0.2515 -0.1682 -0.0870
18341SOL    HW156955   6.835   7.424   0.357  0.7109  1.8804  1.3497
18341SOL    HW256956   6.839   7.353   0.490 -0.1690  0.3010  0.5546
18342SOL     OW56957   7.344   6.663   4.181 -0.0851 -0.4767  0.8539
18342SOL    HW156958   7.273   6.726   4.169  0.2088 -0.3028 -0.0898
18342SOL    HW256959   7.318   6.587   4.128  0.5914 -0.2682  0.1994
18343SOL     OW56960   1.850   7.772   4.978 -0.4529  0.8461  0.1167
18343SOL    HW156961   1.874   7.807   4.892  0.4921 -0.9410 -0.4117
18343SOL    HW256962   1.930   7.780   5.030 -0.6724  0.8620  0.4489
18344SOL     OW56963   0.473   5.082   3.197 -0.0224 -0.3355 -0.6034
18344SOL    HW156964   0.477   5.162   3.145  1.5854 -0.9844 -1.5627
18344SOL    HW256965   0.492   5.012   3.135 -1.7478 -1.5311  0.1378
18345SOL     OW56966   3.988   2.274   1.022  0.2328  0.5487 -0.2130
18345SOL    HW156967   3.996   2.369   1.010 -1.1202  0.8400  0.9518
18345SOL    HW256968   4.076   2.245   1.045  0.7780  1.4322 -1.0950
18346SOL     OW56969   6.760   2.728   3.739 -0.2506  0.0719 -0.4123
18346SOL    HW156970   6.758   2.709   3.645  0.6194 -1.8806 -0.0770
18346SOL    HW256971   6.715   2.654   3.780 -3.3839  2.2901  0.6114
18347SOL     OW56972   6.807   7.154   5.808  0.4956 -0.3778 -0.1741
18347SOL    HW156973   6.810   7.230   5.749  0.9024  0.6793  1.1683
18347SOL    HW256974   6.749   7.181   5.879  1.6421 -0.8228  0.9664
18348SOL     OW56975   4.338   3.391   0.986  0.3098  0.1086 -0.2436
18348SOL    HW156976   4.388   3.317   0.951 -0.6892 -0.3490 -0.7355
18348SOL    HW256977   4.254   3.354   1.012 -0.1654  1.0480 -0.3869
18349SOL     OW56978   6.266   4.482   5.752 -0.5599 -0.7375  0.1792
18349SOL    HW156979   6.234   4.396   5.780  0.9571 -1.0109  1.1591
18349SOL    HW256980   6.210   4.545   5.797 -1.0874 -1.2078  0.1831
18350SOL     OW56981   3.733   4.425   3.608  0.1687  0.0593 -0.6466
18350SOL    HW156982   3.658   4.366   3.598 -0.7119  0.8931  0.7260
18350SOL    HW256983   3.782   4.389   3.682  1.2826 -0.6063 -1.6704
18351SOL     OW56984   8.839   1.258   2.625  0.0859  0.7509 -0.3167
18351SOL    HW156985   8.846   1.305   2.542  0.4557 -0.6232 -1.0858
18351SOL    HW256986   8.781   1.184   2.605  0.3090  0.3206  0.6180
18352SOL     OW56987   4.756   4.661   1.552  0.0453 -0.6816  0.1791
18352SOL    HW156988   4.771   4.744   1.508  2.2013 -0.1674  1.7340
18352SOL    HW256989   4.661   4.658   1.566 -0.2861  0.6496 -1.4675
18353SOL     OW56990   7.198   3.052   3.452  0.0855 -0.2335  0.2483
18353SOL    HW156991   7.225   2.967   3.486  0.0691  0.6329  2.5961
18353SOL    HW256992   7.106   3.042   3.429  0.4052 -1.1598 -0.7045
18354SOL     OW56993   4.621   8.157   4.257  0.3030  0.0160 -0.0680
18354SOL    HW156994   4.692   8.094   4.274  0.6256  0.5109  0.4646
18354SOL    HW256995   4.620   8.166   4.162 -0.4904 -1.6244 -0.2622
18355SOL     OW56996   8.249   1.711   2.394 -0.1461  0.2447 -0.3658
18355SOL    HW156997   8.337   1.725   2.360  0.2639  0.1041  0.6249
18355SOL    HW256998   8.261   1.666   2.477 -1.2345 -1.3953 -1.0567
18356SOL     OW56999   5.890   0.119   6.530 -0.4589  0.4183  0.2675
18356SOL    HW157000   5.900   0.165   6.613  0.6029 -0.5342  0.7009
18356SOL    HW257001   5.803   0.078   6.536 -0.0246 -0.4172  1.3461
18357SOL     OW57002   7.790   4.919   8.724  0.8658 -0.1339  0.2606
18357SOL    HW157003   7.788   4.975   8.646 -0.5650 -1.1676 -0.4973
18357SOL    HW257004   7.797   4.830   8.690  0.8172 -0.5607  1.3351
18358SOL     OW57005   5.938   6.498   8.653  0.2701 -0.3115  0.0399
18358SOL    HW157006   5.899   6.413   8.675  0.1824 -0.8189 -1.8669
18358SOL    HW257007   5.911   6.556   8.725 -1.1289 -1.4722  0.5185
18359SOL     OW57008   6.261   6.056   6.770  0.1403 -0.3565  0.1670
18359SOL    HW157009   6.185   6.008   6.806  0.4743 -0.6889  0.4383
18359SOL    HW257010   6.305   5.992   6.714 -0.5909  0.2747 -1.1623
18360SOL     OW57011   0.834   2.289   3.956 -0.4605 -0.4254  0.5692
18360SOL    HW157012   0.781   2.317   3.882  0.8415  1.4432  0.2670
18360SOL    HW257013   0.857   2.198   3.937  1.8169  0.6598 -2.5950
18361SOL     OW57014   1.170   7.822   5.494 -0.2414 -0.2325  0.0292
18361SOL    HW157015   1.212   7.805   5.578 -0.6509  0.4092  0.3713
18361SOL    HW257016   1.199   7.910   5.470  0.1469 -0.5425 -0.6739
18362SOL     OW57017   1.088   6.333   5.234 -0.0158  0.1124  0.1399
18362SOL    HW157018   1.133   6.282   5.301 -2.1256 -1.2016  0.6426
18362SOL    HW257019   1.060   6.268   5.169  0.1769  1.1011 -0.9787
18363SOL     OW57020   4.317   4.591   8.700  0.2516 -0.4159  0.3623
18363SOL    HW157021   4.255   4.517   8.700 -0.3692  0.0768  1.3783
18363SOL    HW257022   4.292   4.644   8.625 -1.2790  0.3184  1.3264
18364SOL     OW57023   6.077   5.363   8.369  0.2650 -0.3515  0.4129
18364SOL    HW157024   6.138   5.360   8.295  1.5097 -1.3722  1.4169
18364SOL    HW257025   6.118   5.424   8.431  0.1753 -0.8847  1.0089
18365SOL     OW57026   7.631   3.322   0.979 -0.3986 -0.1093 -0.1961
18365SOL    HW157027   7.655   3.342   1.070 -0.6739 -1.7740  0.2649
18365SOL    HW257028   7.537   3.309   0.981 -0.1467 -2.1597 -0.3033
18366SOL     OW57029   2.934   6.150   1.709  0.1677  0.0301 -0.0212
18366SOL    HW157030   2.841   6.132   1.714  0.0570  0.4210 -0.5748
18366SOL    HW257031   2.941   6.225   1.650  0.7983  0.2755  0.3484
18367SOL     OW57032   7.316   4.913   3.198  0.0981  0.0886 -0.1132
18367SOL    HW157033   7.257   4.838   3.202  1.3547 -0.9315  0.0266
18367SOL    HW257034   7.402   4.877   3.219  1.7570  0.4711 -5.0255
18368SOL     OW57035   4.892   5.694   3.067  0.1631 -0.2416  0.1599
18368SOL    HW157036   4.912   5.776   3.112  1.6419 -0.9267  0.7990
18368SOL    HW257037   4.917   5.711   2.976  1.2112 -0.2114  0.4370
18369SOL     OW57038   3.417   0.266   0.268 -0.8548  0.1189  0.3182
18369SOL    HW157039   3.415   0.250   0.173 -0.4163  1.2102  0.1165
18369SOL    HW257040   3.417   0.178   0.306  0.3803 -0.3598 -0.7146
18370SOL     OW57041   1.579   8.443   8.527  0.0993 -0.5899 -0.0180
18370SOL    HW157042   1.661   8.393   8.533  0.2712 -0.2782  0.2106
18370SOL    HW257043   1.591   8.517   8.586 -0.1338 -0.2370 -0.4109
18371SOL     OW57044   7.942   3.326   3.803  0.5006 -0.1607 -0.0658
18371SOL    HW157045   7.950   3.416   3.770  0.6020 -0.3412 -0.5464
18371SOL    HW257046   7.861   3.293   3.765  0.9853 -0.6140 -0.7417
18372SOL     OW57047   0.401   8.788   5.404  0.0974  0.9262 -0.2306
18372SOL    HW157048   0.410   8.729   5.329  2.6783 -1.5652  1.8036
18372SOL    HW257049   0.491   8.811   5.427 -0.6398  2.1162  1.7099
18373SOL     OW57050   7.094   3.136   7.944  0.3116  0.1542  0.1463
18373SOL    HW157051   7.004   3.104   7.936  1.0376 -1.5812 -1.7893
18373SOL    HW257052   7.134   3.119   7.859  2.8594 -0.3645  1.3530
18374SOL     OW57053   8.133   8.186   0.681  0.1999 -0.2333 -0.0335
18374SOL    HW157054   8.159   8.154   0.595  1.0463  0.8655 -0.2046
18374SOL    HW257055   8.039   8.170   0.684  0.2644 -0.8922 -0.8904
18375SOL     OW57056   1.157   8.174   3.625  0.4482 -0.0201 -0.1274
18375SOL    HW157057   1.086   8.142   3.681  0.5368 -0.5237 -0.2972
18375SOL    HW257058   1.122   8.255   3.586  0.3280  0.2476  0.5224
18376SOL     OW57059   4.519   6.016   3.993 -0.5635 -0.5056 -0.1914
18376SOL    HW157060   4.602   6.050   3.958  0.3983 -0.7440  1.6969
18376SOL    HW257061   4.482   5.965   3.921  0.1640  0.8349 -1.5914
18377SOL     OW57062   4.601   4.773   6.478  0.1624 -0.0532 -0.2046
18377SOL    HW157063   4.690   4.804   6.464 -0.7295  2.0612 -1.7880
18377SOL    HW257064   4.580   4.723   6.399  0.7079 -2.6747  1.2245
18378SOL     OW57065   0.676   1.410   2.897  0.0432 -0.2160 -0.3472
18378SOL    HW157066   0.747   1.378   2.952 -0.1964  1.7008  1.1977
18378SOL    HW257067   0.627   1.470   2.953 -1.3541  0.3950 -2.1070
18379SOL     OW57068   6.501   7.334   4.856 -0.1575  0.2956  0.6834
18379SOL    HW157069   6.516   7.253   4.808 -0.0869  0.4519  0.4450
18379SOL    HW257070   6.530   7.404   4.798 -0.3045  0.5000  0.8501
18380SOL     OW57071   4.234   8.614   7.710 -0.3128  0.4870 -0.2987
18380SOL    HW157072   4.318   8.643   7.744 -0.3196 -0.2148  0.3369
18380SOL    HW257073   4.237   8.636   7.616  1.0231 -0.5200 -0.5171
18381SOL     OW57074   6.413   4.322   0.631 -0.2257  0.4701 -0.0444
18381SOL    HW157075   6.323   4.316   0.599  0.0942  1.4730 -1.1982
18381SOL    HW257076   6.438   4.413   0.615  1.7259 -0.3059 -1.7763
18382SOL     OW57077   0.168   6.888   6.218 -0.3118 -0.3734  0.0665
18382SOL    HW157078   0.138   6.958   6.276 -0.5704 -1.4181  1.2321
18382SOL    HW257079   0.159   6.808   6.270 -2.4059 -1.6187 -2.0587
18383SOL     OW57080   7.997   7.187   5.714  0.0697 -0.5458  0.4820
18383SOL    HW157081   8.027   7.275   5.737  0.1794 -0.2167 -0.8226
18383SOL    HW257082   7.917   7.175   5.764  0.2383  0.1671  0.9327
18384SOL     OW57083   3.738   7.261   5.643 -0.0386  0.1159 -0.3105
18384SOL    HW157084   3.790   7.318   5.586 -0.1944  1.1584  0.5383
18384SOL    HW257085   3.699   7.197   5.584  0.6268  0.5294 -1.2268
18385SOL     OW57086   7.681   4.980   3.487  0.2019  0.1529 -0.5244
18385SOL    HW157087   7.766   4.936   3.481 -0.0989 -0.2515 -2.5682
18385SOL    HW257088   7.695   5.051   3.550  1.3102 -1.4686  1.1653
18386SOL     OW57089   7.464   3.096   0.678 -0.2235  0.5778  0.4432
18386SOL    HW157090   7.379   3.128   0.648 -0.9675  0.8248  2.6147
18386SOL    HW257091   7.467   3.120   0.771  1.1513 -1.5940  1.0390
18387SOL     OW57092   0.017   1.264   6.854 -0.1083  0.3426 -0.0412
18387SOL    HW157093   0.038   1.303   6.939  2.5847 -0.2281 -0.3383
18387SOL    HW257094   0.093   1.285   6.799 -0.1944 -2.2188 -1.2702
18388SOL     OW57095   1.383   6.313   0.220 -0.1089  0.4286  0.4289
18388SOL    HW157096   1.297   6.270   0.225 -0.3053  0.6962 -0.3553
18388SOL    HW257097   1.374   6.391   0.274 -1.6455  2.4680 -2.4516
18389SOL     OW57098   5.095   2.027   3.813 -0.1156  0.4095 -0.3042
18389SOL    HW157099   5.018   2.019   3.870 -0.3690  1.3480 -0.4917
18389SOL    HW257100   5.072   2.098   3.752  0.0121 -0.7813 -1.7904
18390SOL     OW57101   4.282   2.520   5.706 -0.1349  0.2068 -0.2266
18390SOL    HW157102   4.369   2.481   5.696 -1.5001 -3.1682 -0.3969
18390SOL    HW257103   4.254   2.539   5.617 -0.2246 -0.3450 -0.3190
18391SOL     OW57104   4.978   8.433   5.042  0.1151  0.3164 -0.1227
18391SOL    HW157105   4.908   8.470   4.989  1.1419  0.4697 -1.4383
18391SOL    HW257106   5.055   8.434   4.984  1.1074 -0.2118  1.1298
18392SOL     OW57107   1.034   0.163   2.466 -0.0956  0.6718 -0.0087
18392SOL    HW157108   1.100   0.095   2.461 -0.4878  0.1888  1.0300
18392SOL    HW257109   1.025   0.182   2.560 -2.1690 -0.0510 -0.0016
18393SOL     OW57110   2.820   6.652   8.105 -0.1688  0.2561  0.0412
18393SOL    HW157111   2.785   6.724   8.052 -1.2842 -1.0357 -1.0709
18393SOL    HW257112   2.898   6.689   8.147 -1.6544  2.6297  0.9209
18394SOL     OW57113   3.043   5.900   6.550 -0.3697 -0.3397 -0.1503
18394SOL    HW157114   3.046   5.980   6.499 -0.5760 -0.7374 -0.7943
18394SOL    HW257115   3.085   5.923   6.633  0.4899  0.1523 -0.7116
18395SOL     OW57116   2.331   1.378   1.346  0.3536 -0.2830 -0.0966
18395SOL    HW157117   2.410   1.367   1.399  2.1867  1.7924 -2.1717
18395SOL    HW257118   2.287   1.454   1.384  1.7058  1.2506 -1.4760
18396SOL     OW57119   0.968   5.224   5.272 -0.2979 -0.7023 -0.0923
18396SOL    HW157120   1.052   5.264   5.248 -0.5539  0.3595  0.6782
18396SOL    HW257121   0.984   5.186   5.359  0.1698 -3.0595 -1.1511
18397SOL     OW57122   6.938   8.166   5.821 -0.2863 -0.3172 -0.2833
18397SOL    HW157123   6.978   8.132   5.741  1.6441  0.6728  0.1837
18397SOL    HW257124   7.008   8.162   5.886 -0.3796  2.9730  0.1911
18398SOL     OW57125   3.190   3.327   8.203 -0.1740 -0.3113  0.0990
18398SOL    HW157126   3.218   3.339   8.112  1.0012  0.1057  0.4917
18398SOL    HW257127   3.209   3.235   8.222  2.5649  0.3060  0.8286
18399SOL     OW57128   4.193   1.067   0.276  0.3261 -0.7343 -0.4229
18399SOL    HW157129   4.267   1.019   0.238 -1.5173 -2.3326 -2.2299
18399SOL    HW257130   4.206   1.157   0.248  0.6614 -1.3232 -2.3115
18400SOL     OW57131   3.339   5.943   0.545  0.1417 -0.2403 -0.2355
18400SOL    HW157132   3.357   5.941   0.639 -2.5959  0.0959  0.3817
18400SOL    HW257133   3.278   5.871   0.531  2.0498 -1.6078 -2.2135
18401SOL     OW57134   0.340   6.557   6.223 -0.0815 -0.0795  0.1181
18401SOL    HW157135   0.406   6.534   6.157 -1.0748 -2.8666 -0.0552
18401SOL    HW257136   0.257   6.535   6.181 -1.1308  2.5262  0.6591
18402SOL     OW57137   3.209   3.106   6.865 -0.1397 -1.0972 -0.6099
18402SOL    HW157138   3.293   3.062   6.849 -0.2605 -1.2718 -0.7699
18402SOL    HW257139   3.183   3.139   6.779  0.9214  1.0409 -0.1538
18403SOL     OW57140   4.603   2.371   3.186  0.4599  1.0035 -0.0098
18403SOL    HW157141   4.512   2.399   3.191  0.3124  0.4629  0.3699
18403SOL    HW257142   4.601   2.277   3.202  1.1288  1.0669  0.5282
18404SOL     OW57143   2.459   7.587   4.842 -0.1100 -0.3414  0.2897
18404SOL    HW157144   2.436   7.557   4.754 -0.1342 -1.4588  0.6612
18404SOL    HW257145   2.472   7.507   4.892 -0.3798  0.2806  1.3868
18405SOL     OW57146   5.746   2.913   6.253 -0.2960 -0.0600  0.3758
18405SOL    HW157147   5.792   2.859   6.317 -2.7561 -0.6356  1.7634
18405SOL    HW257148   5.762   3.003   6.282  1.5612 -0.0860 -0.3770
18406SOL     OW57149   1.910   4.633   7.745  0.7120  0.0398  0.1091
18406SOL    HW157150   1.817   4.647   7.725  0.5287  1.5109  1.6926
18406SOL    HW257151   1.917   4.652   7.839  2.9165  1.7741 -0.3252
18407SOL     OW57152   6.918   5.200   5.863 -0.1490  0.0229  0.4557
18407SOL    HW157153   6.840   5.161   5.904 -0.3724  0.8637  0.8570
18407SOL    HW257154   6.933   5.281   5.913  0.9108 -0.0660  0.2973
18408SOL     OW57155   6.259   3.186   3.773  0.3971 -0.5006 -0.4940
18408SOL    HW157156   6.226   3.276   3.773  1.4593 -0.0076  2.3186
18408SOL    HW257157   6.353   3.196   3.759  0.3277 -1.3344 -1.6542
18409SOL     OW57158   4.534   8.705   1.853  0.0774  0.0455  0.1540
18409SOL    HW157159   4.628   8.719   1.869  0.3667 -0.4763 -0.9775
18409SOL    HW257160   4.498   8.794   1.844  0.4021  0.2577  0.8669
18410SOL     OW57161   7.461   8.272   6.833 -0.2847 -0.2153 -0.4277
18410SOL    HW157162   7.445   8.360   6.867  0.2136 -0.5268  0.6301
18410SOL    HW257163   7.378   8.246   6.793 -0.4838  0.6634 -0.5989
18411SOL     OW57164   3.881   5.635   0.832  0.0467 -0.4669  0.2419
18411SOL    HW157165   3.950   5.574   0.856 -1.1880 -2.9873 -1.9777
18411SOL    HW257166   3.919   5.689   0.763 -0.1127 -1.8732 -1.0011
18412SOL     OW57167   7.283   4.773   7.218  0.0093  0.3743  0.2364
18412SOL    HW157168   7.190   4.749   7.227  0.3727 -0.8730  0.9456
18412SOL    HW257169   7.314   4.781   7.308  0.8341 -0.2784  0.0251
18413SOL     OW57170   0.063   4.649   0.706  0.0753  0.3914 -0.2196
18413SOL    HW157171   0.020   4.728   0.672  1.0522  1.8663  1.7519
18413SOL    HW257172   0.143   4.640   0.653  0.1501  0.9487 -0.2041
18414SOL     OW57173   3.240   7.837   2.316  0.0075  0.1114 -0.5752
18414SOL    HW157174   3.231   7.920   2.364 -0.1312 -0.1135 -0.2110
18414SOL    HW257175   3.313   7.793   2.359 -0.1138 -0.0897 -0.5765
18415SOL     OW57176   8.659   5.835   0.880 -0.1555  0.1610 -0.1411
18415SOL    HW157177   8.733   5.801   0.830 -0.3291 -0.9016  0.2958
18415SOL    HW257178   8.594   5.765   0.877 -0.1994  0.1097  1.4990
18416SOL     OW57179   3.998   6.668   1.514  0.6333  0.2260 -0.7898
18416SOL    HW157180   3.940   6.689   1.588  0.1366 -0.0337 -1.0978
18416SOL    HW257181   3.975   6.578   1.491  0.0513  0.6403 -1.9166
18417SOL     OW57182   1.209   2.959   3.425 -0.3574 -0.1155 -0.1125
18417SOL    HW157183   1.285   3.008   3.393  0.3615  0.1809  1.9040
18417SOL    HW257184   1.235   2.867   3.418  0.1621 -0.0189  0.4766
18418SOL     OW57185   3.034   6.471   2.834  0.1468  0.5816  0.4102
18418SOL    HW157186   3.030   6.405   2.766  1.7530  0.7497  0.1299
18418SOL    HW257187   3.013   6.553   2.789 -0.7444  0.4291  0.5337
18419SOL     OW57188   0.386   3.727   1.227 -0.6509  0.5434  0.6641
18419SOL    HW157189   0.409   3.812   1.263  0.6996  0.9052 -0.9219
18419SOL    HW257190   0.430   3.664   1.285  3.8804  1.1860 -1.6432
18420SOL     OW57191   2.532   0.757   7.068 -0.1301  0.0088  0.1414
18420SOL    HW157192   2.445   0.718   7.063 -0.5007  0.8120  0.0781
18420SOL    HW257193   2.572   0.718   7.146 -0.0624 -1.2926 -0.5226
18421SOL     OW57194   1.147   4.866   1.358 -0.0198  0.3241  0.8761
18421SOL    HW157195   1.116   4.957   1.355 -0.9402 -0.0135 -0.9652
18421SOL    HW257196   1.086   4.823   1.417 -2.8518 -0.1646 -2.1503
18422SOL     OW57197   4.843   8.445   3.019  0.0192  0.1388 -0.2156
18422SOL    HW157198   4.937   8.462   3.013 -0.0216 -0.0192 -1.5314
18422SOL    HW257199   4.825   8.382   2.949 -1.4570  1.9288 -1.5498
18423SOL     OW57200   7.661   3.303   3.795  0.5871  0.1411 -0.3654
18423SOL    HW157201   7.623   3.383   3.830 -1.5049 -1.2686  0.8271
18423SOL    HW257202   7.686   3.253   3.873 -0.5122 -1.4174 -0.9689
18424SOL     OW57203   1.748   8.306   5.866 -0.1064  0.1183 -0.4438
18424SOL    HW157204   1.684   8.236   5.851  0.5586 -0.5145 -0.3818
18424SOL    HW257205   1.705   8.364   5.929 -1.2426  0.5572 -1.5751
18425SOL     OW57206   6.939   2.032   4.178  0.3191 -0.1212  0.4780
18425SOL    HW157207   6.900   2.021   4.091 -1.3766  1.3456  0.9734
18425SOL    HW257208   6.934   1.946   4.218 -0.2415 -0.4906 -0.3657
18426SOL     OW57209   2.138   5.113   3.538 -0.0537 -0.2306  0.2919
18426SOL    HW157210   2.055   5.132   3.493  0.4479  0.0137 -0.5381
18426SOL    HW257211   2.111   5.061   3.615 -1.1196  1.0910  0.8614
18427SOL     OW57212   3.139   5.088   0.166 -0.1653  0.1921  0.0627
18427SOL    HW157213   3.174   4.999   0.153 -0.5876 -0.1762  1.2986
18427SOL    HW257214   3.152   5.131   0.081  2.4016 -0.2206  0.1557
18428SOL     OW57215   2.193   2.423   4.534  0.2075  0.2938 -0.1077
18428SOL    HW157216   2.156   2.435   4.447  0.6537 -0.7580 -0.4526
18428SOL    HW257217   2.222   2.511   4.560 -1.1374  0.8638 -0.4456
18429SOL     OW57218   5.140   5.840   2.067  0.2693  0.1015  0.2206
18429SOL    HW157219   5.062   5.893   2.057 -0.8353 -1.3182  0.9233
18429SOL    HW257220   5.154   5.799   1.982 -0.1774 -0.2041  0.2957
18430SOL     OW57221   8.786   5.086   8.304 -0.0371 -0.0528 -1.2736
18430SOL    HW157222   8.829   5.032   8.238 -0.3756 -1.7206 -0.1984
18430SOL    HW257223   8.759   5.164   8.257  1.5860 -0.2451 -2.6193
18431SOL     OW57224   6.422   1.418   8.597  0.5564  0.2751  0.7767
18431SOL    HW157225   6.378   1.502   8.583 -0.7442 -0.6636 -1.1630
18431SOL    HW257226   6.475   1.405   8.518 -1.2545 -1.8417 -0.2055
18432SOL     OW57227   1.381   4.488   5.659 -0.0048 -0.4505  0.0366
18432SOL    HW157228   1.378   4.392   5.650  3.5152 -0.7209  0.2374
18432SOL    HW257229   1.446   4.516   5.594  0.4717  1.5635  1.2855
18433SOL     OW57230   0.897   0.287   0.615 -0.5360 -0.7715 -0.1542
18433SOL    HW157231   0.959   0.355   0.587 -0.6585  0.5133  2.3657
18433SOL    HW257232   0.941   0.244   0.689 -2.3437 -0.2247  1.3031
18434SOL     OW57233   4.402   1.518   6.665 -0.1962 -0.0477  0.7953
18434SOL    HW157234   4.447   1.584   6.717 -0.2109  2.1348 -1.7778
18434SOL    HW257235   4.419   1.542   6.574 -3.9231 -0.9075 -0.3233
18435SOL     OW57236   5.315   0.445   1.076  0.0024 -0.2054 -0.4010
18435SOL    HW157237   5.337   0.457   1.169  2.5373 -0.2242 -0.9078
18435SOL    HW257238   5.299   0.533   1.044 -0.8406 -0.1927  0.0367
18436SOL     OW57239   0.183   2.149   6.121  0.1407 -0.3348 -0.1276
18436SOL    HW157240   0.165   2.060   6.091  0.1789  0.3008 -2.2228
18436SOL    HW257241   0.275   2.148   6.145 -0.5528 -1.6057  3.0402
18437SOL     OW57242   5.713   8.830   8.458 -0.2923  0.9276 -0.1860
18437SOL    HW157243   5.741   8.840   8.367 -1.1494  3.5488 -0.2271
18437SOL    HW257244   5.789   8.857   8.510 -0.7608  2.3607 -0.2088
18438SOL     OW57245   7.303   6.584   1.903 -0.8324  0.1043  0.0813
18438SOL    HW157246   7.225   6.550   1.948 -0.6325 -1.5206 -0.7301
18438SOL    HW257247   7.320   6.521   1.834  1.4950  0.1659  0.5167
18439SOL     OW57248   0.138   4.685   0.977  0.3780 -0.2522  0.8077
18439SOL    HW157249   0.220   4.698   0.930 -0.0111  2.3058  0.6838
18439SOL    HW257250   0.076   4.657   0.909  1.2371 -3.0176  1.0420
18440SOL     OW57251   0.748   4.808   1.896 -0.6317  0.6428  0.2380
18440SOL    HW157252   0.831   4.844   1.928 -0.8761  1.7311 -0.2956
18440SOL    HW257253   0.683   4.836   1.961 -0.5112 -0.7114  0.9695
18441SOL     OW57254   0.654   4.882   0.407  0.0995 -0.0174 -0.0066
18441SOL    HW157255   0.699   4.868   0.324 -1.6842  0.1607 -1.0369
18441SOL    HW257256   0.719   4.925   0.463  0.7212  1.7133 -1.9576
18442SOL     OW57257   2.175   0.231   1.002  0.1467  0.3191 -0.1456
18442SOL    HW157258   2.224   0.209   1.081  0.1777  1.1454  0.0713
18442SOL    HW257259   2.225   0.191   0.931 -0.7853 -1.9212  0.3618
18443SOL     OW57260   2.590   1.398   5.934  0.5308  0.1928  0.8706
18443SOL    HW157261   2.685   1.408   5.942  0.4075  0.4766  2.2365
18443SOL    HW257262   2.578   1.356   5.848  1.7771  1.4708  0.0240
18444SOL     OW57263   0.011   2.296   4.682 -0.0528 -0.0114  0.1353
18444SOL    HW157264   0.051   2.240   4.615 -1.4106 -0.4533 -0.3219
18444SOL    HW257265  -0.076   2.259   4.696  0.0996  0.2292  1.9755
18445SOL     OW57266   6.425   7.665   1.034 -0.2162  0.0871  0.0328
18445SOL    HW157267   6.458   7.627   0.953 -0.8208  0.2465 -0.2917
18445SOL    HW257268   6.342   7.706   1.010 -0.7477 -0.4665  0.8710
18446SOL     OW57269   1.997   1.460   7.384  0.3510 -0.5306 -0.5862
18446SOL    HW157270   2.023   1.380   7.338 -1.5609 -2.4379  1.3887
18446SOL    HW257271   1.902   1.451   7.395  0.5010  0.4981  2.3783
18447SOL     OW57272   2.451   7.298   7.719 -0.2599 -0.2079 -0.2110
18447SOL    HW157273   2.543   7.289   7.693 -0.0777  2.0854 -0.5681
18447SOL    HW257274   2.415   7.210   7.709  2.1351 -1.4432  1.0106
18448SOL     OW57275   2.485   2.105   7.915  0.2530  0.1429  0.2355
18448SOL    HW157276   2.575   2.073   7.914  0.8329  1.6782  0.7363
18448SOL    HW257277   2.492   2.196   7.944 -1.3876  0.5131 -0.4189
18449SOL     OW57278   2.563   5.111   3.409  0.2906 -0.1539  0.2886
18449SOL    HW157279   2.577   5.111   3.315 -2.0280  0.9237 -0.1098
18449SOL    HW257280   2.495   5.045   3.424  0.5888 -0.2721  1.2145
18450SOL     OW57281   8.470   3.988   4.586  0.5116  0.2926  0.9233
18450SOL    HW157282   8.428   4.032   4.511  1.2158 -1.2536 -0.4445
18450SOL    HW257283   8.397   3.944   4.630  0.3950 -1.1151 -0.5502
18451SOL     OW57284   5.416   6.827   3.157  0.0964 -0.2166 -0.2679
18451SOL    HW157285   5.499   6.799   3.196  1.0140 -0.3591 -2.1785
18451SOL    HW257286   5.394   6.908   3.203  2.0985  0.6373 -0.6879
18452SOL     OW57287   1.364   1.982   8.609  0.2838 -0.3992 -0.0617
18452SOL    HW157288   1.359   1.911   8.545  0.7343 -1.0558  0.6185
18452SOL    HW257289   1.273   2.010   8.620  0.2079 -0.2230 -1.0361
18453SOL     OW57290   0.943   5.016   5.030 -0.1730 -0.7997 -0.3410
18453SOL    HW157291   0.932   5.053   5.118 -0.9382 -0.9319 -0.3708
18453SOL    HW257292   0.862   5.040   4.984 -0.0111 -1.1920 -0.8397
18454SOL     OW57293   5.912   1.597   5.721 -0.0168  0.0913 -0.2791
18454SOL    HW157294   5.860   1.523   5.689 -0.1363 -0.7465  1.6996
18454SOL    HW257295   5.848   1.656   5.762  0.4411 -0.5662  1.4711
18455SOL     OW57296   6.640   0.568   8.163  0.1686 -0.4842  0.0979
18455SOL    HW157297   6.652   0.652   8.118 -0.3931 -0.8362 -0.7371
18455SOL    HW257298   6.625   0.505   8.092 -2.1646 -0.8111  0.8102
18456SOL     OW57299   2.128   7.413   5.424  0.6847  0.5680 -0.3460
18456SOL    HW157300   2.203   7.378   5.472  0.8013  0.9146 -0.2697
18456SOL    HW257301   2.167   7.458   5.348  0.6529  1.7452  0.3033
18457SOL     OW57302   3.399   0.153   7.827 -0.4726  0.1150  0.3840
18457SOL    HW157303   3.359   0.216   7.886 -2.3946 -0.8356  0.1666
18457SOL    HW257304   3.325   0.113   7.781  0.8690 -0.1884 -1.6403
18458SOL     OW57305   7.423   0.863   0.806  0.0845 -0.5664 -0.3073
18458SOL    HW157306   7.456   0.786   0.759 -0.9801 -0.8960 -0.5354
18458SOL    HW257307   7.329   0.848   0.813  0.1581 -0.3181  1.5682
18459SOL     OW57308   1.302   1.412   5.117  0.1146 -0.7811 -0.3162
18459SOL    HW157309   1.245   1.338   5.135 -3.0935  0.9560 -2.4372
18459SOL    HW257310   1.351   1.385   5.039  0.4276 -1.3747  0.0781
18460SOL     OW57311   7.022   8.861   5.522  0.3441  0.1215 -0.1557
18460SOL    HW157312   7.083   8.898   5.586 -0.5798  2.4795 -0.5436
18460SOL    HW257313   6.949   8.829   5.576 -0.6531  2.5318  0.0368
18461SOL     OW57314   7.136   5.671   3.371 -0.0414 -0.0937  0.1527
18461SOL    HW157315   7.134   5.589   3.321 -0.9343  0.1465 -0.2218
18461SOL    HW257316   7.118   5.644   3.461  0.0826 -0.3591  0.0984
18462SOL     OW57317   0.739   3.919   8.469  0.6295 -0.3351  0.2044
18462SOL    HW157318   0.668   3.893   8.411  0.4134  2.0864 -0.7328
18462SOL    HW257319   0.767   3.838   8.510 -2.4614 -1.4329  0.4015
18463SOL     OW57320   6.371   7.618   4.083 -0.1986  0.5034 -0.1534
18463SOL    HW157321   6.370   7.662   4.168  0.7218  1.0784 -0.4213
18463SOL    HW257322   6.463   7.593   4.070 -0.7238 -1.6722  0.0639
18464SOL     OW57323   5.463   3.778   6.416 -0.1554  0.2469  0.1738
18464SOL    HW157324   5.412   3.810   6.490  1.2103  1.3418  0.6865
18464SOL    HW257325   5.524   3.849   6.397  0.2329 -0.4522 -1.3283
18465SOL     OW57326   0.513   7.713   2.946 -0.0707 -0.4654  0.5794
18465SOL    HW157327   0.487   7.752   2.863  1.1776 -0.1087  0.3408
18465SOL    HW257328   0.579   7.773   2.981  0.8005 -1.6007  0.9197
18466SOL     OW57329   1.679   8.469   7.747  0.4596  0.3747 -0.0731
18466SOL    HW157330   1.692   8.557   7.783  2.8001  0.1252 -0.1597
18466SOL    HW257331   1.726   8.471   7.663  0.0419 -0.8047 -0.3471
18467SOL     OW57332   2.930   5.615   7.996 -0.1951 -0.0606  0.1017
18467SOL    HW157333   2.859   5.665   7.955  1.0937  0.5047 -1.5516
18467SOL    HW257334   3.003   5.622   7.935  1.2016 -0.9174  1.5820
18468SOL     OW57335   7.682   2.649   5.804 -0.1325  0.4657 -0.6246
18468SOL    HW157336   7.699   2.657   5.898 -2.6672  1.7291 -0.1945
18468SOL    HW257337   7.588   2.658   5.796  0.0404  0.5610 -3.3373
18469SOL     OW57338   1.004   2.011   6.764 -0.4611 -0.0691 -0.0639
18469SOL    HW157339   0.986   2.054   6.680 -1.0945  2.3180  1.2230
18469SOL    HW257340   0.958   1.927   6.757  1.7012 -1.2085 -3.0686
18470SOL     OW57341   5.330   0.176   0.425 -0.0143 -0.4392  0.1162
18470SOL    HW157342   5.323   0.271   0.431  2.2053  0.0676 -2.6615
18470SOL    HW257343   5.252   0.149   0.377  0.0433  0.1924 -0.3446
18471SOL     OW57344   4.036   3.225   1.499  0.3455  0.2209 -0.5858
18471SOL    HW157345   4.037   3.134   1.472 -1.7810  0.3135 -1.2060
18471SOL    HW257346   4.012   3.273   1.420 -0.3052  1.1173  0.1343
18472SOL     OW57347   0.207   2.667   8.796  0.2677  0.3325 -0.0996
18472SOL    HW157348   0.176   2.663   8.887 -1.5464 -3.1370 -0.6849
18472SOL    HW257349   0.302   2.655   8.803 -0.0207 -1.8856  1.3816
18473SOL     OW57350   3.116   0.075   1.328  0.0403  0.5179 -0.0577
18473SOL    HW157351   3.131   0.003   1.267  1.8386  0.6004  0.2412
18473SOL    HW257352   3.081   0.145   1.273  0.1973  0.0875 -0.7247
18474SOL     OW57353   8.714   1.228   3.028  0.5657  0.1295 -0.2608
18474SOL    HW157354   8.805   1.252   3.043  0.6928 -0.7746  0.5427
18474SOL    HW257355   8.717   1.138   2.995 -0.0952 -0.9595  2.3590
18475SOL     OW57356   3.960   4.642   8.868 -0.6122  0.0008 -0.1491
18475SOL    HW157357   3.870   4.650   8.836 -0.6604  3.0536  0.3735
18475SOL    HW257358   3.996   4.566   8.823 -3.1798 -0.8046 -1.0051
18476SOL     OW57359   6.739   6.163   3.867 -0.2519  0.4170  0.1247
18476SOL    HW157360   6.801   6.195   3.802  0.3700  2.9151  1.8243
18476SOL    HW257361   6.785   6.092   3.911  0.3311  0.4575 -0.4048
18477SOL     OW57362   5.251   6.619   5.809  0.2618 -0.3697  0.1899
18477SOL    HW157363   5.155   6.614   5.811  0.0231  2.6029  1.3110
18477SOL    HW257364   5.277   6.605   5.900  0.6810  1.0544  0.3027
18478SOL     OW57365   5.628   4.651   3.288  0.2797  0.3681  0.0755
18478SOL    HW157366   5.635   4.558   3.307  3.5265  0.1250 -1.6055
18478SOL    HW257367   5.534   4.669   3.288 -0.5783 -3.2992 -1.2870
18479SOL     OW57368   0.571   7.008   4.063 -0.4165  0.2765 -0.2957
18479SOL    HW157369   0.586   6.983   4.155  0.0927 -1.4812 -0.8061
18479SOL    HW257370   0.620   7.089   4.051  0.6257 -0.1956  0.6359
18480SOL     OW57371   5.448   5.039   0.288  0.1280  0.9266 -0.0150
18480SOL    HW157372   5.440   5.096   0.364  0.9290  0.9497  0.0516
18480SOL    HW257373   5.358   5.009   0.272 -0.0531  0.9381  0.9200
18481SOL     OW57374   4.508   1.657   7.906  0.3799  0.2086 -0.2597
18481SOL    HW157375   4.446   1.676   7.977  1.3256  3.0514 -0.0928
18481SOL    HW257376   4.484   1.717   7.837  3.2648  1.8591  0.0328
18482SOL     OW57377   0.984   1.648   1.773 -0.8496  0.4158  0.5067
18482SOL    HW157378   0.975   1.673   1.681 -0.5977 -1.7213 -0.1609
18482SOL    HW257379   1.051   1.707   1.808  0.4763  0.0346 -1.2289
18483SOL     OW57380   4.375   1.086   4.765  0.4636  0.2509  0.1079
18483SOL    HW157381   4.420   1.003   4.751  1.2781  0.9410 -1.5922
18483SOL    HW257382   4.292   1.076   4.720 -0.3046 -0.3009  1.5642
18484SOL     OW57383   6.318   1.606   0.073  0.1132 -0.1529  0.0690
18484SOL    HW157384   6.315   1.622   0.167 -1.2014 -1.5298  0.3102
18484SOL    HW257385   6.392   1.657   0.042  0.0318  1.0416  1.7024
18485SOL     OW57386   7.508   7.459   2.135  0.3261 -0.6355  0.6080
18485SOL    HW157387   7.452   7.536   2.141 -0.2775 -1.0417  0.3522
18485SOL    HW257388   7.500   7.430   2.044  0.9696 -0.6897  0.5622
18486SOL     OW57389   7.218   5.891   2.425 -0.1497  0.3121 -0.1596
18486SOL    HW157390   7.252   5.975   2.456  1.7766 -0.3542 -0.2968
18486SOL    HW257391   7.290   5.830   2.440 -0.7917 -0.9226 -1.8329
18487SOL     OW57392   5.907   5.192   3.550  0.0821  0.2374  0.5896
18487SOL    HW157393   5.812   5.178   3.544 -0.0578  0.8444  1.1735
18487SOL    HW257394   5.945   5.133   3.485 -0.8375  1.5925 -1.2724
18488SOL     OW57395   0.958   1.034   0.235 -0.3098 -0.2642  0.0549
18488SOL    HW157396   0.877   0.993   0.266 -0.2316 -0.9888 -0.6812
18488SOL    HW257397   0.929   1.094   0.166 -0.2581 -0.1795  0.1055
18489SOL     OW57398   8.429   1.059   6.199 -0.1767 -0.3416  0.3593
18489SOL    HW157399   8.432   0.971   6.235  3.1496 -0.2881  0.5170
18489SOL    HW257400   8.488   1.110   6.255  0.1271  1.2875 -1.3334
18490SOL     OW57401   7.522   4.465   6.491 -0.5040  0.7800 -0.1812
18490SOL    HW157402   7.468   4.420   6.556 -0.6897  1.0497 -0.1421
18490SOL    HW257403   7.499   4.558   6.501  0.3424  0.9613  0.1800
18491SOL     OW57404   7.317   4.154   1.160 -0.6821  0.2684  0.0599
18491SOL    HW157405   7.231   4.112   1.170 -0.1072 -0.8503  0.4401
18491SOL    HW257406   7.365   4.096   1.102  0.4520 -0.1212  1.3454
18492SOL     OW57407   3.028   5.869   3.750 -0.1396  0.4855 -0.6711
18492SOL    HW157408   3.123   5.876   3.759 -0.1867  0.0719  0.2945
18492SOL    HW257409   2.995   5.954   3.781 -0.1317  0.2331  0.0493
18493SOL     OW57410   0.731   7.595   4.068  0.2160 -0.1126  0.2913
18493SOL    HW157411   0.747   7.594   4.162  0.4788 -1.5301  0.2651
18493SOL    HW257412   0.659   7.534   4.055 -1.0332  1.4252 -0.2639
18494SOL     OW57413   8.241   5.101   2.074  0.5187  0.8517  0.3692
18494SOL    HW157414   8.289   5.183   2.084 -0.0844  1.1609  0.7812
18494SOL    HW257415   8.245   5.083   1.980 -0.1374  1.8541  0.1326
18495SOL     OW57416   8.161   7.672   0.131  0.2853  0.1681 -0.3657
18495SOL    HW157417   8.076   7.631   0.114  1.4375 -2.3803 -0.5194
18495SOL    HW257418   8.224   7.605   0.104  2.3254  1.3767  1.2222
18496SOL     OW57419   3.739   3.878   3.052 -0.2181 -0.0178  0.0792
18496SOL    HW157420   3.788   3.888   2.971 -1.6499  0.2836 -0.7786
18496SOL    HW257421   3.686   3.957   3.059 -0.3802 -0.1977  1.1252
18497SOL     OW57422   5.296   6.660   1.683 -0.1195 -0.2503 -0.3473
18497SOL    HW157423   5.364   6.619   1.629  0.0649  0.3009 -0.5384
18497SOL    HW257424   5.327   6.749   1.697  0.9000 -0.9275  2.4219
18498SOL     OW57425   8.057   5.284   5.153  0.3465  0.0935 -0.1396
18498SOL    HW157426   8.146   5.317   5.170  1.0218 -0.6660 -1.9259
18498SOL    HW257427   8.020   5.346   5.090  0.3583 -0.6174 -0.8725
18499SOL     OW57428   1.807   8.217   5.389 -0.0539  0.3187  0.7182
18499SOL    HW157429   1.722   8.260   5.380  0.2789  0.7786 -0.4770
18499SOL    HW257430   1.862   8.259   5.323 -0.2074 -3.1804 -1.9164
18500SOL     OW57431   0.658   0.622   6.142  0.8568  0.0585  0.4288
18500SOL    HW157432   0.686   0.647   6.230  0.9130  1.0827  0.1416
18500SOL    HW257433   0.678   0.699   6.088  1.1235 -0.6660 -0.5457
18501SOL     OW57434   2.073   8.813   7.426  0.4479 -0.5095  0.1545
18501SOL    HW157435   2.094   8.774   7.510  2.8575 -0.0589 -0.1537
18501SOL    HW257436   2.012   8.752   7.385 -0.7943 -0.7210  2.1966
18502SOL     OW57437   1.749   0.891   3.001 -0.2756  0.2387 -0.3174
18502SOL    HW157438   1.761   0.890   3.096 -2.2012  1.5396 -0.0115
18502SOL    HW257439   1.698   0.812   2.983  0.0179  0.0367 -0.2829
18503SOL     OW57440   4.395   5.410   0.532  0.2518 -0.6077  0.0506
18503SOL    HW157441   4.445   5.379   0.608 -0.4098  1.2939  1.3318
18503SOL    HW257442   4.459   5.455   0.477  0.4205 -0.4570  0.3701
18504SOL     OW57443   2.173   3.452   6.528  0.0196 -0.3005  0.4221
18504SOL    HW157444   2.148   3.364   6.497 -0.9951  0.5171 -1.2669
18504SOL    HW257445   2.095   3.484   6.574  0.3162 -0.2010  0.8597
18505SOL     OW57446   7.248   6.127   4.953  0.5697  0.1561  0.0986
18505SOL    HW157447   7.191   6.069   5.003  0.1943  0.0343 -0.4688
18505SOL    HW257448   7.191   6.198   4.924  0.9370  0.6012  0.4321
18506SOL     OW57449   2.115   7.204   4.503 -0.4520  0.0004 -0.2338
18506SOL    HW157450   2.174   7.165   4.439  0.7293 -0.9626  1.3550
18506SOL    HW257451   2.163   7.198   4.586 -2.3955  0.0872  0.9507
18507SOL     OW57452   8.059   7.924   2.426  0.2042 -0.5702  0.4355
18507SOL    HW157453   8.043   7.908   2.333  0.4969 -0.4763  0.3697
18507SOL    HW257454   8.020   7.848   2.470 -0.3478 -0.3888  0.2695
18508SOL     OW57455   7.745   6.147   6.887 -0.2332  0.3886  0.1478
18508SOL    HW157456   7.702   6.229   6.865  1.3668  1.7579  1.7702
18508SOL    HW257457   7.688   6.105   6.951 -0.4078  0.9331  0.3513
18509SOL     OW57458   0.747   6.206   1.133  0.1992  0.0609 -0.3826
18509SOL    HW157459   0.672   6.265   1.124  0.9293  1.1230  0.3752
18509SOL    HW257460   0.816   6.246   1.081  0.8217  0.0767  0.4472
18510SOL     OW57461   2.778   4.836   0.323  0.2708 -0.1972  0.5132
18510SOL    HW157462   2.854   4.784   0.296  1.5172  1.1681  1.2430
18510SOL    HW257463   2.814   4.900   0.385 -1.3075  1.1463  0.1042
18511SOL     OW57464   3.084   0.851   5.623 -0.9293 -0.3500 -0.8023
18511SOL    HW157465   3.025   0.821   5.692  1.4805 -1.3472  0.9621
18511SOL    HW257466   3.097   0.774   5.568  0.7183 -0.9786  0.3743
18512SOL     OW57467   6.886   3.521   1.961  0.2478  0.3699  0.1518
18512SOL    HW157468   6.887   3.535   2.056 -1.0086  0.9605  0.0999
18512SOL    HW257469   6.838   3.438   1.950 -1.0815  1.1272 -0.0195
18513SOL     OW57470   3.819   8.489   2.507  0.1529 -0.0425 -0.0720
18513SOL    HW157471   3.831   8.405   2.462 -2.3501 -0.0991 -0.7716
18513SOL    HW257472   3.845   8.554   2.441  3.2817 -0.1723  0.8682
18514SOL     OW57473   5.365   4.853   7.560  0.4880  0.2766  0.2567
18514SOL    HW157474   5.411   4.897   7.631  1.9281  0.3086 -0.6557
18514SOL    HW257475   5.341   4.923   7.500 -0.5818  0.2304  0.6012
18515SOL     OW57476   6.388   1.836   8.086  0.2644  0.0544 -0.3661
18515SOL    HW157477   6.377   1.808   7.995 -0.1179  1.5426 -0.8071
18515SOL    HW257478   6.480   1.819   8.105  0.8056  1.4022 -1.6462
18516SOL     OW57479   8.420   0.938   5.076  0.0015 -1.0969 -0.4402
18516SOL    HW157480   8.487   0.871   5.070  1.1271  0.0797 -2.3398
18516SOL    HW257481   8.359   0.918   5.005 -0.4384 -0.9017 -0.1268
18517SOL     OW57482   7.769   5.148   8.574 -0.5116 -0.0670 -0.5178
18517SOL    HW157483   7.765   5.168   8.481 -0.5594  1.4743 -0.2164
18517SOL    HW257484   7.687   5.182   8.610 -1.0562 -1.7582 -0.0863
18518SOL     OW57485   1.798   4.948   6.840 -0.2874  0.4216  0.2081
18518SOL    HW157486   1.818   5.029   6.792  0.4184  0.5074  0.6291
18518SOL    HW257487   1.867   4.887   6.812 -0.1752  0.3117  0.7152
18519SOL     OW57488   8.090   1.192   3.481  0.3599  0.4037 -0.3371
18519SOL    HW157489   8.004   1.223   3.508 -0.5590 -2.8126  0.9065
18519SOL    HW257490   8.152   1.252   3.524 -1.1785  2.4852 -0.8693
18520SOL     OW57491   7.278   1.609   0.278 -0.4504 -0.1530 -0.4232
18520SOL    HW157492   7.308   1.689   0.321  2.0113 -0.4895 -1.3386
18520SOL    HW257493   7.278   1.543   0.347 -0.4208  0.1849 -0.0989
18521SOL     OW57494   2.763   5.507   4.757 -0.3788 -0.3339  0.2923
18521SOL    HW157495   2.711   5.457   4.694  1.0233  0.1347 -1.2926
18521SOL    HW257496   2.852   5.507   4.721  0.1173  1.4278  1.3772
18522SOL     OW57497   6.427   3.828   1.760  0.2321 -0.2562 -0.2170
18522SOL    HW157498   6.428   3.732   1.769 -0.4270 -0.5043 -2.3787
18522SOL    HW257499   6.360   3.846   1.695  0.9261  1.6391 -0.4704
18523SOL     OW57500   2.237   4.991   0.003 -0.1939 -0.0007  0.4455
18523SOL    HW157501   2.250   4.930  -0.071  2.5330  1.6855 -0.6089
18523SOL    HW257502   2.299   4.961   0.069  0.6589  1.1515  0.1960
18524SOL     OW57503   4.397   6.181   4.526  0.4126 -0.5294  0.2202
18524SOL    HW157504   4.410   6.165   4.433  0.8765  0.0400  0.1818
18524SOL    HW257505   4.469   6.135   4.569  0.7778  0.0437  0.2261
18525SOL     OW57506   1.417   2.308   4.437  0.1693  0.1557  0.5718
18525SOL    HW157507   1.503   2.345   4.420  0.7893 -0.4923  2.1519
18525SOL    HW257508   1.406   2.312   4.532 -2.2323  1.6757  0.3207
18526SOL     OW57509   3.054   1.100   8.589  0.3771 -0.4105 -0.1246
18526SOL    HW157510   3.074   1.028   8.649  1.7816 -1.6212 -1.9466
18526SOL    HW257511   3.065   1.179   8.642  0.9552 -1.4440  1.3560
18527SOL     OW57512   5.331   8.143   7.681 -0.1954  0.1031  0.1505
18527SOL    HW157513   5.403   8.205   7.693  0.3557 -0.8766  2.3762
18527SOL    HW257514   5.252   8.192   7.702 -0.0895  0.8484 -1.0982
18528SOL     OW57515   3.350   0.950   5.241 -0.0390 -0.0248 -0.5441
18528SOL    HW157516   3.355   1.045   5.234 -0.0295  0.0848  0.8102
18528SOL    HW257517   3.280   0.926   5.179 -0.6815  0.9484 -0.2261
18529SOL     OW57518   4.096   2.079   8.070 -0.2451 -0.0414  0.4517
18529SOL    HW157519   4.062   2.052   7.985  0.1640 -1.5734  0.7521
18529SOL    HW257520   4.026   2.059   8.131 -0.0053 -0.2475  0.6589
18530SOL     OW57521   6.832   7.475   3.151 -0.3726 -0.4640 -0.0414
18530SOL    HW157522   6.817   7.537   3.222 -0.3235  1.3010 -1.5202
18530SOL    HW257523   6.914   7.431   3.175  1.5254  2.5052 -0.5580
18531SOL     OW57524   5.897   6.243   5.315 -0.0210  0.7351 -0.3982
18531SOL    HW157525   5.839   6.225   5.389  0.9389  1.4083  0.5624
18531SOL    HW257526   5.839   6.259   5.241 -0.9902 -1.4087 -0.1684
18532SOL     OW57527   7.495   5.661   0.314 -0.3076  0.4897 -0.6576
18532SOL    HW157528   7.567   5.684   0.373  0.2219  0.3632 -1.2420
18532SOL    HW257529   7.440   5.739   0.311 -0.7188  0.2687  0.5315
18533SOL     OW57530   3.657   1.709   8.086  0.2791  0.1832 -0.0906
18533SOL    HW157531   3.617   1.796   8.078  1.3045  0.5974 -0.9832
18533SOL    HW257532   3.680   1.702   8.178  1.0103  1.2613 -0.1683
18534SOL     OW57533   0.539   8.166   0.444 -0.1549 -0.0221 -0.5437
18534SOL    HW157534   0.627   8.138   0.419  0.1888  0.0573  0.5533
18534SOL    HW257535   0.515   8.111   0.518  0.0399  1.6711  0.8546
18535SOL     OW57536   7.953   4.419   1.252  0.0826  0.5342 -0.0233
18535SOL    HW157537   8.047   4.424   1.237  0.4708  0.5928  2.0755
18535SOL    HW257538   7.927   4.333   1.219  1.3434 -0.4724  1.4739
18536SOL     OW57539   2.557   7.399   4.208  0.3440 -0.3677 -0.0430
18536SOL    HW157540   2.570   7.443   4.292 -1.7179 -1.5642  0.9784
18536SOL    HW257541   2.548   7.470   4.145 -0.2521  0.6137  1.1046
18537SOL     OW57542   5.062   1.363   8.268 -0.3748 -0.0644 -0.6148
18537SOL    HW157543   5.105   1.318   8.195  0.1139 -2.2068  0.9339
18537SOL    HW257544   5.111   1.446   8.276 -0.2695  0.1205 -2.5009
18538SOL     OW57545   8.244   8.004   1.173  0.1647  0.1301 -0.0297
18538SOL    HW157546   8.180   7.934   1.166  0.2757  0.0324 -0.0975
18538SOL    HW257547   8.288   7.988   1.256  0.4577 -0.1153 -0.2262
18539SOL     OW57548   3.624   2.398   7.359  0.3041  0.8669  0.3289
18539SOL    HW157549   3.587   2.456   7.293 -0.6258 -0.6571 -0.5535
18539SOL    HW257550   3.700   2.358   7.317 -2.3210 -2.9363 -1.4530
18540SOL     OW57551   5.775   8.343   5.258 -0.6399  0.1032 -0.1799
18540SOL    HW157552   5.826   8.412   5.299 -0.9234  0.8130 -0.9815
18540SOL    HW257553   5.687   8.355   5.293 -0.8873  0.7228 -0.9619
18541SOL     OW57554   2.052   5.832   7.851  0.3951  0.7144  0.5905
18541SOL    HW157555   2.079   5.769   7.918  1.5743  0.7789  0.2108
18541SOL    HW257556   1.974   5.794   7.811  0.6903 -0.1677  0.8320
18542SOL     OW57557   4.146   5.871   8.556  0.2732 -0.2978 -0.3665
18542SOL    HW157558   4.196   5.952   8.567  1.1575 -0.9069  0.1929
18542SOL    HW257559   4.164   5.844   8.466 -1.0312  0.7691 -0.9807
18543SOL     OW57560   0.310   2.549   5.559 -0.6669  0.5919 -0.0661
18543SOL    HW157561   0.222   2.584   5.544 -1.0986 -0.0621  0.8823
18543SOL    HW257562   0.307   2.462   5.520 -0.5379  0.4498  0.2432
18544SOL     OW57563   4.277   6.725   4.936 -0.1972 -0.3741 -0.2677
18544SOL    HW157564   4.238   6.716   5.023 -0.7853 -0.1455 -0.5063
18544SOL    HW257565   4.346   6.659   4.935  1.0127  0.7855  1.0239
18545SOL     OW57566   7.551   8.686   4.800 -0.1411  0.0860  0.6782
18545SOL    HW157567   7.607   8.612   4.777  1.0989  0.7640  1.3974
18545SOL    HW257568   7.611   8.761   4.803 -1.3365  1.1061  0.1227
18546SOL     OW57569   4.557   6.007   1.925 -0.1445 -0.0042  0.4105
18546SOL    HW157570   4.583   6.099   1.918  1.6873 -0.5229 -0.1950
18546SOL    HW257571   4.550   5.977   1.835 -4.3429  0.3902  0.4253
18547SOL     OW57572   6.102   8.037   3.053 -0.3092 -0.0357  0.2020
18547SOL    HW157573   6.155   7.999   3.122 -0.4150 -1.1483 -0.3126
18547SOL    HW257574   6.158   8.103   3.013  0.9062 -1.5340 -0.6727
18548SOL     OW57575   8.353   1.822   6.301  0.6092  0.4880  0.2208
18548SOL    HW157576   8.408   1.762   6.351  0.8157  1.0219  0.6406
18548SOL    HW257577   8.414   1.887   6.266  0.1313  1.8060  1.7254
18549SOL     OW57578   5.032   2.631   3.429  0.4130  0.1667  0.3248
18549SOL    HW157579   4.949   2.676   3.439 -0.3221 -1.0307 -0.1546
18549SOL    HW257580   5.025   2.586   3.344  2.8492  2.6861 -1.3974
18550SOL     OW57581   2.066   5.728   2.363 -0.2563 -0.4684  0.3977
18550SOL    HW157582   1.996   5.787   2.392  1.8179  2.0859  0.5724
18550SOL    HW257583   2.079   5.751   2.271  1.8000  0.7464  0.9439
18551SOL     OW57584   1.478   0.442   8.433 -0.4758  0.2610 -0.3192
18551SOL    HW157585   1.421   0.381   8.480  0.6982  0.1233  0.9878
18551SOL    HW257586   1.468   0.525   8.480  0.0839  0.3312 -0.3193
18552SOL     OW57587   2.882   7.450   0.310  0.5285 -0.1380 -0.0747
18552SOL    HW157588   2.938   7.427   0.384 -1.7365  0.2130  1.8608
18552SOL    HW257589   2.829   7.372   0.294 -1.1492  0.7416  0.8182
18553SOL     OW57590   8.370   2.054   7.834 -0.6037  0.1787  0.3902
18553SOL    HW157591   8.358   2.066   7.740 -0.8298 -1.6108  0.1675
18553SOL    HW257592   8.325   1.972   7.854  1.4401 -0.7145  1.6386
18554SOL     OW57593   3.159   8.862   0.427  0.0085  0.3620 -0.7858
18554SOL    HW157594   3.225   8.811   0.474 -0.3598  0.8023  0.2412
18554SOL    HW257595   3.167   8.950   0.462 -0.7620  0.5401 -1.0332
18555SOL     OW57596   6.248   0.500   3.777 -0.2795 -1.0066 -0.7888
18555SOL    HW157597   6.315   0.473   3.840 -0.4680  0.2106 -0.0391
18555SOL    HW257598   6.178   0.538   3.830 -1.1638 -1.4111 -1.6310
18556SOL     OW57599   6.496   3.220   5.271 -0.3084 -0.0322 -0.2408
18556SOL    HW157600   6.520   3.188   5.358  1.4724  1.0130 -0.2877
18556SOL    HW257601   6.447   3.148   5.232 -0.8238 -0.6731  1.4797
18557SOL     OW57602   1.918   6.210   1.728 -0.2502  0.5403 -0.1408
18557SOL    HW157603   1.970   6.287   1.753  0.4997  0.9527 -2.7069
18557SOL    HW257604   1.829   6.230   1.758  0.6018  0.6389  2.6720
18558SOL     OW57605   6.740   0.954   4.396 -0.2880 -0.4359  0.4193
18558SOL    HW157606   6.756   0.920   4.484 -2.1201 -2.0622  0.1916
18558SOL    HW257607   6.822   0.936   4.349  0.2430 -0.7638  1.4275
18559SOL     OW57608   0.491   0.727   8.341 -0.1678 -0.2563 -0.2748
18559SOL    HW157609   0.407   0.741   8.297 -0.3906 -1.3192 -0.2086
18559SOL    HW257610   0.469   0.724   8.434  0.5787  4.2460  0.2416
18560SOL     OW57611   1.714   4.868   8.080  0.5519 -0.0463  0.2319
18560SOL    HW157612   1.720   4.962   8.098 -0.2502  1.0270 -4.0643
18560SOL    HW257613   1.620   4.849   8.085  0.0910  0.6290 -3.2768
18561SOL     OW57614   4.961   0.338   5.351  0.1116 -0.0244  0.6644
18561SOL    HW157615   4.937   0.273   5.418  0.5591 -0.2911  0.5679
18561SOL    HW257616   5.056   0.347   5.360  0.6113 -2.0131 -1.6632
18562SOL     OW57617   0.779   1.328   8.099  0.3922 -0.4506 -0.1940
18562SOL    HW157618   0.862   1.368   8.126  0.9325 -0.4504 -1.7169
18562SOL    HW257619   0.789   1.235   8.120  0.8942 -0.4942 -0.5987
18563SOL     OW57620   8.700   5.654   1.710 -0.0348 -0.2497  0.1744
18563SOL    HW157621   8.680   5.624   1.621  2.0879 -0.0135 -0.4495
18563SOL    HW257622   8.720   5.573   1.758 -1.8899 -0.4468  0.6861
18564SOL     OW57623   6.303   7.260   6.022 -0.6957  0.1112  0.5765
18564SOL    HW157624   6.291   7.338   6.076  0.7290  1.0457 -0.3859
18564SOL    HW257625   6.223   7.255   5.970  0.3881  2.8228 -1.5973
18565SOL     OW57626   1.763   3.017   5.301 -0.4722  0.4495  0.5101
18565SOL    HW157627   1.808   2.935   5.322 -1.6492 -0.2471  0.4205
18565SOL    HW257628   1.824   3.085   5.326 -0.4457 -0.3934  3.0219
18566SOL     OW57629   8.368   7.945   7.782  0.8044  0.2781 -0.4350
18566SOL    HW157630   8.277   7.922   7.804  0.6921  0.7810 -0.3699
18566SOL    HW257631   8.421   7.891   7.842  0.4950  2.3807  1.8968
18567SOL     OW57632   1.332   0.436   5.997  0.5003 -0.6823  0.5237
18567SOL    HW157633   1.340   0.344   5.969  1.5278 -0.8621  1.3289
18567SOL    HW257634   1.399   0.446   6.065  1.1372  0.9612 -0.2937
18568SOL     OW57635   7.688   7.430   2.323  0.4497  0.0190  0.6299
18568SOL    HW157636   7.773   7.464   2.296 -0.0480  0.8806  0.1140
18568SOL    HW257637   7.628   7.457   2.254 -0.4452  0.3399  1.5027
18569SOL     OW57638   7.723   5.427   1.158  0.5043 -0.1136  0.4168
18569SOL    HW157639   7.806   5.409   1.113  0.4623  1.5048 -0.4033
18569SOL    HW257640   7.748   5.481   1.233  0.3285 -0.7901  0.9657
18570SOL     OW57641   1.578   8.700   8.710 -0.2310 -0.2609 -0.3113
18570SOL    HW157642   1.616   8.685   8.797 -0.0671  0.2971 -0.2833
18570SOL    HW257643   1.494   8.742   8.728 -0.3581 -0.4682 -0.4145
18571SOL     OW57644   4.652   3.036   4.329 -0.2538 -0.3541  0.0701
18571SOL    HW157645   4.683   3.064   4.243  0.2282 -0.2731  0.2667
18571SOL    HW257646   4.703   3.088   4.391 -1.5392  0.5752  0.3994
18572SOL     OW57647   6.287   0.778   0.452 -0.2809  0.1429 -0.6903
18572SOL    HW157648   6.373   0.817   0.436 -0.0681  0.1468  0.4029
18572SOL    HW257649   6.295   0.736   0.538 -1.4251  0.3350 -0.4744
18573SOL     OW57650   1.604   7.943   6.079 -0.8258  0.0056 -0.0609
18573SOL    HW157651   1.568   7.997   6.008 -0.4681  0.1527 -0.1343
18573SOL    HW257652   1.659   7.879   6.034 -1.8074 -0.8843 -0.0329
18574SOL     OW57653   2.268   5.434   7.407  0.1040 -0.2893 -0.1175
18574SOL    HW157654   2.312   5.428   7.322  0.8382 -3.3011  0.3390
18574SOL    HW257655   2.175   5.440   7.386  0.4232  3.2974 -1.0742
18575SOL     OW57656   2.975   3.000   8.708 -0.0258 -0.1700  0.2702
18575SOL    HW157657   3.047   2.947   8.742 -0.4021 -1.7909 -1.2482
18575SOL    HW257658   2.927   3.029   8.785  1.3452 -0.4152  1.2369
18576SOL     OW57659   6.368   4.451   7.157  0.6199  0.0666  0.8094
18576SOL    HW157660   6.334   4.515   7.095  0.8216  1.0321  1.6685
18576SOL    HW257661   6.307   4.377   7.151  0.6346  0.1446 -0.5149
18577SOL     OW57662   6.552   6.827   6.234 -0.1371  0.5307  0.0419
18577SOL    HW157663   6.572   6.875   6.314  0.1683 -0.9931  0.9141
18577SOL    HW257664   6.489   6.884   6.187 -0.1504  1.5425  1.2326
18578SOL     OW57665   5.731   6.418   8.337  0.2038  0.0215 -0.5375
18578SOL    HW157666   5.793   6.487   8.362 -1.3822  0.8410  1.3833
18578SOL    HW257667   5.747   6.404   8.243  2.2968  1.1774 -0.4041
18579SOL     OW57668   2.233   1.355   0.723 -0.4055  0.1776  0.4626
18579SOL    HW157669   2.283   1.382   0.800 -1.0801  2.2142  0.2448
18579SOL    HW257670   2.179   1.282   0.755  2.1594 -1.7303  0.8368
18580SOL     OW57671   5.679   2.398   4.103  0.3670 -0.2671 -0.2509
18580SOL    HW157672   5.651   2.425   4.191  0.2126 -2.1488  0.3090
18580SOL    HW257673   5.715   2.310   4.115  1.9742  0.1323 -1.8033
18581SOL     OW57674   2.098   0.230   0.314  0.8703  0.4929  0.0259
18581SOL    HW157675   2.127   0.305   0.365  2.0960 -0.9072  1.4978
18581SOL    HW257676   2.151   0.232   0.234  1.4064  0.7764  0.3891
18582SOL     OW57677   3.273   1.455   6.634 -0.4594  0.2263 -0.3399
18582SOL    HW157678   3.239   1.519   6.572  1.4117  1.4127 -0.2200
18582SOL    HW257679   3.324   1.394   6.580  0.5852  0.8513 -0.0863
18583SOL     OW57680   4.820   6.182   7.124 -0.0764 -0.1599  0.3174
18583SOL    HW157681   4.816   6.277   7.135 -0.3065  0.0262 -1.1733
18583SOL    HW257682   4.729   6.153   7.132 -0.1020 -0.1564  0.0600
18584SOL     OW57683   5.840   3.007   1.581 -0.2607 -0.0967  0.5239
18584SOL    HW157684   5.930   3.027   1.605  0.9450  1.6370 -4.3146
18584SOL    HW257685   5.788   3.070   1.631  1.9621  3.4900 -1.2909
18585SOL     OW57686   5.097   3.641   3.718 -0.0162  1.1893 -0.2121
18585SOL    HW157687   5.057   3.670   3.636  1.0597 -0.8632 -1.5472
18585SOL    HW257688   5.184   3.681   3.717  0.0762  0.9907 -0.1803
18586SOL     OW57689   5.951   6.121   4.091 -0.2547 -0.1570  0.4092
18586SOL    HW157690   5.920   6.039   4.052 -1.3169  0.1618  0.5537
18586SOL    HW257691   6.046   6.109   4.099 -0.2521 -0.9545 -0.5416
18587SOL     OW57692   3.847   4.610   3.987 -0.2003 -0.2036  0.3597
18587SOL    HW157693   3.802   4.691   4.011 -1.0283 -1.1494  2.2168
18587SOL    HW257694   3.830   4.550   4.060  0.7821 -1.9072 -0.7278
18588SOL     OW57695   0.629   2.744   3.289  0.1700 -0.4466  0.2951
18588SOL    HW157696   0.652   2.837   3.295  2.9880 -0.7498 -2.7232
18588SOL    HW257697   0.686   2.701   3.353  0.7704 -0.3005 -0.1349
18589SOL     OW57698   2.637   8.471   7.056  0.1891 -0.5995 -0.5518
18589SOL    HW157699   2.562   8.438   7.106  0.2171 -0.9270 -0.7244
18589SOL    HW257700   2.601   8.488   6.968 -0.6075  2.7421  0.2529
18590SOL     OW57701   4.795   7.794   0.413  0.1973 -0.0266 -1.0755
18590SOL    HW157702   4.785   7.770   0.321  0.2157 -3.0359 -0.3814
18590SOL    HW257703   4.727   7.745   0.459  1.7947 -0.6649  0.7826
18591SOL     OW57704   7.665   1.671   0.795 -0.2696  0.1242  0.0775
18591SOL    HW157705   7.706   1.694   0.878 -0.5092  2.8787 -0.4702
18591SOL    HW257706   7.591   1.731   0.788 -3.7697 -3.7231  0.4061
18592SOL     OW57707   4.554   6.569   2.000 -0.0737  0.6436 -0.4897
18592SOL    HW157708   4.627   6.523   2.040 -1.5344 -0.9012  0.5770
18592SOL    HW257709   4.570   6.565   1.906  0.8740 -0.2356 -0.3041
18593SOL     OW57710   6.021   4.540   2.213 -0.1508 -0.1068  0.3055
18593SOL    HW157711   6.012   4.494   2.129  0.6779 -0.7076  0.5277
18593SOL    HW257712   5.932   4.546   2.247 -0.4580 -0.1167 -0.4898
18594SOL     OW57713   1.275   3.774   7.742 -0.2281  0.4861  0.1652
18594SOL    HW157714   1.181   3.784   7.758 -0.4189  0.3195 -0.7991
18594SOL    HW257715   1.312   3.752   7.827 -0.6293  3.4640  1.2195
18595SOL     OW57716   2.633   3.599   5.724 -0.4547  0.5542  0.2561
18595SOL    HW157717   2.544   3.587   5.692 -1.1966  2.4987  1.3689
18595SOL    HW257718   2.644   3.531   5.790 -0.1566 -1.2707 -1.5739
18596SOL     OW57719   5.089   0.295   2.987 -0.2759  0.5697 -0.2814
18596SOL    HW157720   5.090   0.288   2.891 -0.4334  0.0275 -0.2457
18596SOL    HW257721   5.113   0.386   3.004 -0.8399  0.8345 -0.8531
18597SOL     OW57722   8.085   3.086   4.182  0.5963 -0.6112 -0.3301
18597SOL    HW157723   7.989   3.087   4.190  0.5397  1.0062 -0.7546
18597SOL    HW257724   8.116   3.063   4.269 -0.1717 -1.2544 -0.2094
18598SOL     OW57725   7.007   2.966   2.074 -0.1283  0.2291 -0.1409
18598SOL    HW157726   6.943   3.032   2.047 -1.3004 -0.5158  0.7368
18598SOL    HW257727   6.999   2.896   2.009  0.0670  0.2850 -0.2288
18599SOL     OW57728   4.507   7.504   5.904  0.2662 -0.1812  0.8568
18599SOL    HW157729   4.532   7.567   5.836  1.0838  0.7100  1.9579
18599SOL    HW257730   4.587   7.455   5.921  0.1255 -0.2459  1.3329
18600SOL     OW57731   2.024   5.299   1.531 -0.4225 -0.2793 -0.1132
18600SOL    HW157732   2.093   5.253   1.485 -0.0977 -0.0639  0.1572
18600SOL    HW257733   1.975   5.230   1.577  0.7502 -0.2743  1.2196
18601SOL     OW57734   6.059   3.968   4.031 -0.0394  0.4186 -0.0875
18601SOL    HW157735   6.109   4.006   4.104  0.3558 -0.8139  0.3033
18601SOL    HW257736   6.036   3.880   4.061  2.6399 -1.2917 -2.4928
18602SOL     OW57737   8.098   7.744   5.511 -0.5458 -0.8748 -0.0683
18602SOL    HW157738   8.057   7.748   5.424 -0.4483 -1.4919 -0.1412
18602SOL    HW257739   8.024   7.752   5.572 -0.5930 -0.1912 -0.1978
18603SOL     OW57740   3.396   3.286   6.372 -0.0142 -0.5113  0.5088
18603SOL    HW157741   3.308   3.321   6.385  0.1773  0.4069 -0.5275
18603SOL    HW257742   3.389   3.232   6.293  0.5466  0.3158 -0.1156
18604SOL     OW57743   1.809   1.124   0.209 -0.1426 -0.2138  0.2584
18604SOL    HW157744   1.896   1.137   0.169 -0.6634  0.9482 -0.5692
18604SOL    HW257745   1.764   1.064   0.150  1.0220 -3.1851  2.1926
18605SOL     OW57746   1.733   1.463   7.468  0.0449  0.1296  0.3268
18605SOL    HW157747   1.699   1.374   7.474 -0.9408  0.3784 -1.0692
18605SOL    HW257748   1.697   1.508   7.545  0.9112 -0.7650  1.2835
18606SOL     OW57749   4.935   8.419   5.493 -0.3553 -0.2293 -0.1509
18606SOL    HW157750   4.868   8.461   5.439 -1.3132 -1.4572  0.0370
18606SOL    HW257751   4.890   8.344   5.532  1.1150 -1.0391  0.0406
18607SOL     OW57752   7.332   2.782   2.880 -0.6247 -0.6045  0.0342
18607SOL    HW157753   7.339   2.832   2.961  1.4373  1.2646 -1.1797
18607SOL    HW257754   7.415   2.734   2.874 -1.0021 -1.2000 -0.6828
18608SOL     OW57755   3.944   2.022   4.983  0.2437 -0.2982 -0.3938
18608SOL    HW157756   3.869   2.023   4.923 -0.0082  0.1335 -0.0782
18608SOL    HW257757   3.908   2.048   5.068  0.9389  1.1010 -0.4815
18609SOL     OW57758   2.305   8.499   4.041  1.1107  0.3554 -0.5092
18609SOL    HW157759   2.241   8.485   3.971  0.7994  0.1334 -0.1819
18609SOL    HW257760   2.289   8.589   4.071  1.0407  0.3448 -0.5150
18610SOL     OW57761   0.713   8.209   7.963 -0.3431 -0.2294 -0.1338
18610SOL    HW157762   0.719   8.287   8.018 -0.8778  0.8356 -1.5353
18610SOL    HW257763   0.634   8.222   7.910 -0.6554 -1.8947 -0.1495
18611SOL     OW57764   4.899   8.547   3.291 -0.3717  0.2112 -0.8227
18611SOL    HW157765   4.804   8.551   3.306 -0.8072 -2.4553 -2.1639
18611SOL    HW257766   4.908   8.566   3.197  0.4288  0.3435 -0.7192
18612SOL     OW57767   1.243   2.486   0.726 -0.4159  0.1647 -0.0063
18612SOL    HW157768   1.167   2.457   0.676 -1.0591 -0.9254  1.5159
18612SOL    HW257769   1.231   2.447   0.812  0.5082  2.1721  1.1058
18613SOL     OW57770   4.526   5.270   2.317 -0.1667  0.3088 -0.2222
18613SOL    HW157771   4.545   5.182   2.350 -0.0910  0.1656 -0.6359
18613SOL    HW257772   4.459   5.303   2.375  0.8263  0.5374  0.8222
18614SOL     OW57773   3.356   5.832   0.102  0.5886  0.0164 -0.2126
18614SOL    HW157774   3.281   5.858   0.048  0.0051 -1.7414 -0.3006
18614SOL    HW257775   3.319   5.815   0.189  0.2832 -3.5494 -0.8989
18615SOL     OW57776   3.481   4.537   6.852 -0.2957 -0.5666  0.0332
18615SOL    HW157777   3.457   4.577   6.768 -0.9914  0.4930  0.7028
18615SOL    HW257778   3.419   4.464   6.862 -2.0090  0.9066  0.7983
18616SOL     OW57779   0.301   0.230   0.200 -0.6183  0.6782 -0.1108
18616SOL    HW157780   0.374   0.283   0.230  0.6913 -1.4632  0.6580
18616SOL    HW257781   0.226   0.261   0.251  0.4300  0.7763  1.4208
18617SOL     OW57782   8.163   8.460   7.742 -0.0799  0.3081 -0.3332
18617SOL    HW157783   8.191   8.526   7.678 -0.7186  0.5251 -0.3977
18617SOL    HW257784   8.212   8.482   7.822  0.5381  0.1842 -0.6724
18618SOL     OW57785   8.452   5.818   5.017 -0.0878 -0.1935 -0.7811
18618SOL    HW157786   8.544   5.827   5.039  0.2810 -1.7612 -1.5998
18618SOL    HW257787   8.409   5.889   5.065  1.2677 -0.6673  1.2461
18619SOL     OW57788   1.522   0.401   7.595  0.6413 -0.3439  0.2608
18619SOL    HW157789   1.449   0.339   7.586 -0.4244  0.8640  0.3260
18619SOL    HW257790   1.550   0.392   7.686 -0.9090  0.7306  0.8921
18620SOL     OW57791   0.333   7.882   1.151  0.0317  0.0386 -0.9201
18620SOL    HW157792   0.402   7.835   1.104 -0.1616 -0.8871 -0.3037
18620SOL    HW257793   0.255   7.868   1.097 -0.4556 -2.0321  0.2011
18621SOL     OW57794   5.732   4.040   6.677  0.6492  0.5272  0.3413
18621SOL    HW157795   5.761   3.956   6.642  0.6184  0.4919  0.4005
18621SOL    HW257796   5.782   4.105   6.628 -2.4764  0.7352 -2.9391
18622SOL     OW57797   6.557   4.555   8.248  0.4006 -0.1792  0.2239
18622SOL    HW157798   6.509   4.475   8.226 -0.4187  0.0696  1.0505
18622SOL    HW257799   6.649   4.530   8.241  0.1854 -0.5861 -1.6987
18623SOL     OW57800   6.738   6.727   0.610  0.8703 -0.1729 -0.2040
18623SOL    HW157801   6.741   6.821   0.629 -0.4853  0.0214 -0.8231
18623SOL    HW257802   6.702   6.722   0.522 -0.9230 -1.3119  0.5356
18624SOL     OW57803   4.046   8.805   8.653 -0.2949 -0.0099 -0.4588
18624SOL    HW157804   4.094   8.753   8.589 -1.5180  0.1358 -1.5296
18624SOL    HW257805   3.955   8.797   8.627 -0.8799 -0.2260  1.4771
18625SOL     OW57806   4.808   3.029   5.957  0.5723  0.3321 -0.4180
18625SOL    HW157807   4.780   3.054   5.870  0.4811 -1.1103 -0.8364
18625SOL    HW257808   4.728   3.033   6.010  0.7840  2.0157 -0.1713
18626SOL     OW57809   3.069   8.616   7.437  0.1654 -0.3664 -0.1321
18626SOL    HW157810   3.044   8.651   7.522  1.6701 -1.0871  0.6461
18626SOL    HW257811   2.997   8.558   7.413 -0.8299  0.7370  0.0631
18627SOL     OW57812   0.619   7.595   5.079 -0.4178 -0.2219 -0.6888
18627SOL    HW157813   0.628   7.670   5.139 -0.5064  0.0424 -1.0011
18627SOL    HW257814   0.528   7.566   5.091 -0.1255 -0.8560  0.0949
18628SOL     OW57815   4.147   8.839   1.909 -0.7031 -0.5775 -0.5859
18628SOL    HW157816   4.221   8.877   1.861 -1.0122  1.2848  0.2795
18628SOL    HW257817   4.174   8.844   2.001 -1.2823 -1.3221 -0.3712
18629SOL     OW57818   7.713   3.211   0.101 -0.0882  0.2459  0.5158
18629SOL    HW157819   7.757   3.219   0.017  1.2083 -2.1761  0.8908
18629SOL    HW257820   7.643   3.147   0.085  0.0709 -0.1111  1.2317
18630SOL     OW57821   4.313   1.723   7.391  0.1213 -0.0642  0.9277
18630SOL    HW157822   4.348   1.638   7.417 -1.8015 -1.4976 -0.8198
18630SOL    HW257823   4.221   1.721   7.420  0.3735  2.0432  2.1064
18631SOL     OW57824   0.695   3.948   3.832 -0.4405 -0.1176 -0.3317
18631SOL    HW157825   0.652   3.874   3.875 -1.4497  0.8945  0.4770
18631SOL    HW257826   0.693   4.018   3.897  1.9720  0.1539 -0.4902
18632SOL     OW57827   0.008   8.676   2.496 -0.0566 -0.4251  0.0985
18632SOL    HW157828   0.059   8.609   2.450 -0.0756 -1.0575  0.9723
18632SOL    HW257829   0.031   8.758   2.452  0.1730 -0.9636 -0.8151
18633SOL     OW57830   8.174   1.760   8.763  0.0133 -0.2238 -0.5394
18633SOL    HW157831   8.212   1.719   8.841  1.1099 -2.1280 -1.9802
18633SOL    HW257832   8.087   1.722   8.756 -0.6878  1.1128  0.5605
18634SOL     OW57833   2.769   7.705   0.239 -0.6367 -0.4694 -0.0997
18634SOL    HW157834   2.815   7.625   0.264  1.0695  0.1696 -1.0310
18634SOL    HW257835   2.836   7.773   0.241 -1.5475  0.5255 -1.4465
18635SOL     OW57836   1.403   2.758   7.024  0.4798 -0.2423 -0.4020
18635SOL    HW157837   1.469   2.703   7.065  1.7061 -0.3582 -2.3904
18635SOL    HW257838   1.452   2.813   6.963 -1.1424  0.4710 -1.1276
18636SOL     OW57839   1.533   7.561   3.559 -0.5662  0.2300 -0.6659
18636SOL    HW157840   1.469   7.625   3.588 -2.3234 -0.9613 -1.7059
18636SOL    HW257841   1.609   7.575   3.615 -2.5759  0.1439  2.3097
18637SOL     OW57842   5.813   4.334   5.951 -0.1082  0.6505 -0.0955
18637SOL    HW157843   5.727   4.339   5.992  1.0731  0.8865  2.5344
18637SOL    HW257844   5.803   4.385   5.870 -3.3680 -2.3386 -1.8704
18638SOL     OW57845   7.803   8.846   4.886 -0.4444  0.2349 -0.0431
18638SOL    HW157846   7.846   8.762   4.903 -0.4442 -0.3451 -2.4829
18638SOL    HW257847   7.837   8.905   4.954  0.5431 -1.4074  0.9450
18639SOL     OW57848   1.206   3.442   7.038 -0.1942 -0.1626  0.1171
18639SOL    HW157849   1.141   3.375   7.018  1.7846 -1.9064 -0.9104
18639SOL    HW257850   1.179   3.519   6.989 -2.2874 -0.2993  0.9662
18640SOL     OW57851   8.631   6.327   7.375 -0.1856  0.0156  0.1311
18640SOL    HW157852   8.610   6.249   7.324  0.0669 -1.4281  2.0871
18640SOL    HW257853   8.576   6.320   7.453 -0.2644  1.8984  0.2829
18641SOL     OW57854   2.416   5.542   7.618 -0.0304  0.3257 -0.0382
18641SOL    HW157855   2.355   5.508   7.553 -0.6627  1.1653  0.0929
18641SOL    HW257856   2.499   5.548   7.572 -0.1731 -0.2838 -0.3896
18642SOL     OW57857   2.298   4.425   2.645  0.0329 -0.5207  0.5709
18642SOL    HW157858   2.318   4.374   2.566 -0.4459  1.4994 -0.9151
18642SOL    HW257859   2.205   4.444   2.638  0.4404  1.5927  0.4088
18643SOL     OW57860   8.128   8.003   3.161  0.1138  0.0618 -0.2462
18643SOL    HW157861   8.038   8.028   3.182 -0.2131 -2.0209  1.1405
18643SOL    HW257862   8.125   7.979   3.068 -0.9640 -0.7238 -0.0274
18644SOL     OW57863   4.139   5.003   5.567 -0.2618  0.1560  0.1423
18644SOL    HW157864   4.210   5.029   5.626 -0.7856  0.0337  0.8383
18644SOL    HW257865   4.135   4.908   5.574 -1.0723  0.2215  0.8093
18645SOL     OW57866   3.922   6.746   8.008  0.6491  0.4029  0.2036
18645SOL    HW157867   3.870   6.690   7.950 -0.6877  0.0963  1.6312
18645SOL    HW257868   3.986   6.686   8.048 -1.0817 -0.2917  2.0832
18646SOL     OW57869   2.654   3.789   1.988 -0.3139  0.3159  0.4818
18646SOL    HW157870   2.614   3.821   2.069 -0.4054 -0.4354  0.7447
18646SOL    HW257871   2.675   3.698   2.007  0.6934  0.4501  0.0264
18647SOL     OW57872   4.497   2.075   2.776  0.2620  0.3104  0.4939
18647SOL    HW157873   4.553   2.001   2.800  0.5193  0.5883  0.7562
18647SOL    HW257874   4.551   2.152   2.793 -0.5154  0.6199  1.6148
18648SOL     OW57875   1.822   4.669   5.440 -0.1226  0.2231 -0.1807
18648SOL    HW157876   1.861   4.582   5.434 -0.2491  0.2676 -3.2652
18648SOL    HW257877   1.890   4.728   5.409 -1.0705  0.8288 -1.1832
18649SOL     OW57878   8.766   4.587   4.363  0.2074 -0.1329 -0.0386
18649SOL    HW157879   8.802   4.502   4.339  0.2196 -0.0223 -0.4112
18649SOL    HW257880   8.794   4.600   4.454 -1.0056 -1.1668  0.5157
18650SOL     OW57881   6.505   1.766   8.714  0.1539 -0.3218  0.5330
18650SOL    HW157882   6.537   1.854   8.696 -3.3513  1.3687  1.5287
18650SOL    HW257883   6.447   1.746   8.641  0.0380 -1.3342  0.8898
18651SOL     OW57884   8.112   0.037   0.545 -0.1291 -0.2106  0.0150
18651SOL    HW157885   8.195  -0.010   0.554 -2.0891 -3.8999  1.3737
18651SOL    HW257886   8.068  -0.006   0.472 -0.9499  1.5051 -0.5420
18652SOL     OW57887   6.800   6.706   8.593  0.0824 -0.2550  0.4204
18652SOL    HW157888   6.745   6.728   8.517  0.7159 -0.1552 -0.0167
18652SOL    HW257889   6.824   6.615   8.580  0.9284  0.0135  0.0233
18653SOL     OW57890   4.088   8.596   1.119  0.3692  0.0965  0.6662
18653SOL    HW157891   4.099   8.563   1.208  0.0666 -0.0151  0.6643
18653SOL    HW257892   4.176   8.620   1.091  0.8492 -2.0715  0.1213
18654SOL     OW57893   1.420   8.472   6.192  0.4185 -0.0162 -0.3349
18654SOL    HW157894   1.356   8.508   6.132  0.4150  1.0089  0.2580
18654SOL    HW257895   1.499   8.461   6.139  0.2809  0.4278 -0.6376
18655SOL     OW57896   6.139   3.538   4.855  0.3325  0.0211 -0.4677
18655SOL    HW157897   6.146   3.480   4.779 -0.0387 -0.2212 -0.3236
18655SOL    HW257898   6.187   3.617   4.830  1.1853 -0.5000 -0.5136
18656SOL     OW57899   1.413   4.333   2.705  0.0372  0.2779  0.0801
18656SOL    HW157900   1.330   4.333   2.658 -0.9700 -0.9198  1.7568
18656SOL    HW257901   1.421   4.421   2.740 -0.3158  0.5198 -0.4411
18657SOL     OW57902   4.492   0.096   0.321 -0.1212  0.6763 -0.6065
18657SOL    HW157903   4.583   0.082   0.348 -0.6219 -0.4890  0.5583
18657SOL    HW257904   4.458   0.158   0.385 -0.5546 -0.0291 -0.1449
18658SOL     OW57905   6.149   7.303   6.915  0.0007  0.2347 -0.2175
18658SOL    HW157906   6.104   7.251   6.982 -2.4016  0.8166 -1.2495
18658SOL    HW257907   6.178   7.382   6.961  0.2018 -0.2644  0.5359
18659SOL     OW57908   3.095   4.770   3.302 -0.5098  0.1458  0.0547
18659SOL    HW157909   3.110   4.864   3.292 -0.0403  0.2015  1.1856
18659SOL    HW257910   3.132   4.732   3.222  1.0915  0.7577  0.4585
18660SOL     OW57911   5.309   0.882   0.398  0.0696 -0.0127  0.4686
18660SOL    HW157912   5.245   0.813   0.414  0.1455 -0.1186  0.3269
18660SOL    HW257913   5.339   0.909   0.485  0.7097 -0.7973  0.5050
18661SOL     OW57914   1.847   0.280   0.086 -0.2763 -0.2539 -0.4865
18661SOL    HW157915   1.917   0.229   0.046  0.6499  1.5193 -1.2117
18661SOL    HW257916   1.828   0.234   0.168  1.9365 -0.6248 -0.1187
18662SOL     OW57917   3.694   2.144   7.126  0.3480  0.9074 -0.1349
18662SOL    HW157918   3.679   2.108   7.213  1.4454 -0.1044 -0.3337
18662SOL    HW257919   3.607   2.163   7.092 -0.0674  2.1316  1.4915
18663SOL     OW57920   2.875   4.535   2.753  0.0015 -0.1756  0.6358
18663SOL    HW157921   2.882   4.630   2.767 -1.9398  0.1733 -0.3436
18663SOL    HW257922   2.864   4.499   2.841 -1.5716  0.8062  0.8961
18664SOL     OW57923   5.535   6.999   4.006 -0.0116  0.5147 -0.0804
18664SOL    HW157924   5.590   7.029   4.077 -1.2222  1.0406  0.6685
18664SOL    HW257925   5.451   6.979   4.048 -1.3891  2.6940 -1.6097
18665SOL     OW57926   3.753   8.467   8.093 -0.1226 -0.0653 -0.0334
18665SOL    HW157927   3.805   8.508   8.162  0.5494  0.4613 -0.8321
18665SOL    HW257928   3.688   8.533   8.069 -0.1079 -0.1000 -0.1720
18666SOL     OW57929   5.352   3.308   6.250 -0.4712  0.1409  0.1774
18666SOL    HW157930   5.426   3.364   6.273 -1.1702  0.2619  2.3476
18666SOL    HW257931   5.391   3.236   6.199  0.9352  0.8258  0.2492
18667SOL     OW57932   4.165   2.971   6.311 -0.2221 -0.2554  0.3160
18667SOL    HW157933   4.241   2.977   6.253  0.5287  1.7126  1.4014
18667SOL    HW257934   4.175   2.886   6.354  0.7531 -0.5043 -0.3631
18668SOL     OW57935   2.512   4.066   3.833  0.0439 -0.4029  0.1205
18668SOL    HW157936   2.503   3.971   3.835  0.1258 -0.4063  0.3180
18668SOL    HW257937   2.426   4.097   3.806 -0.2347 -0.4944  0.8852
18669SOL     OW57938   2.448   1.011   5.333 -0.4490 -0.1312 -0.7326
18669SOL    HW157939   2.387   1.084   5.350  1.0822  1.3817 -1.4740
18669SOL    HW257940   2.479   1.026   5.244 -0.5794 -2.1168 -1.1651
18670SOL     OW57941   4.521   7.812   3.217  0.0429  0.0382 -0.1603
18670SOL    HW157942   4.594   7.783   3.271  0.5933  0.4546 -0.6667
18670SOL    HW257943   4.549   7.795   3.127 -0.0415  1.1618 -0.4121
18671SOL     OW57944   8.440   8.741   8.569 -0.7320  0.0731  0.1523
18671SOL    HW157945   8.502   8.680   8.528  0.6161  1.2909  0.3432
18671SOL    HW257946   8.486   8.775   8.645 -2.0928  0.1404  0.9788
18672SOL     OW57947   5.159   7.239   1.083 -0.0049  0.6524  0.6487
18672SOL    HW157948   5.095   7.193   1.137  0.2865  2.0541  2.2906
18672SOL    HW257949   5.243   7.205   1.113  0.1118 -0.4096 -0.7647
18673SOL     OW57950   3.566   0.300   5.943  0.4086  0.4502  0.3974
18673SOL    HW157951   3.581   0.259   6.028  0.9282  1.1098  0.6315
18673SOL    HW257952   3.529   0.386   5.964 -1.5628 -0.2153 -0.1079
18674SOL     OW57953   7.064   7.467   7.287  0.0151  0.5740 -0.0223
18674SOL    HW157954   7.114   7.471   7.369 -0.2338  0.6225  0.1277
18674SOL    HW257955   7.094   7.386   7.246 -0.9469 -0.2406  0.8309
18675SOL     OW57956   1.557   8.200   8.734 -0.3008 -0.0663 -0.1996
18675SOL    HW157957   1.550   8.258   8.658 -0.6692 -1.5984 -1.3777
18675SOL    HW257958   1.531   8.114   8.701  2.6365 -1.4871  0.8578
18676SOL     OW57959   2.646   2.230   1.628  0.5279 -0.0799  0.2874
18676SOL    HW157960   2.664   2.324   1.633  1.1634 -0.1966  0.2091
18676SOL    HW257961   2.579   2.222   1.560  0.3958  0.3226  0.3670
18677SOL     OW57962   0.092   3.094   7.369  0.5312  0.2995  0.2762
18677SOL    HW157963   0.100   3.182   7.331  1.6275  0.2745  0.4251
18677SOL    HW257964   0.013   3.058   7.328 -0.9557  1.9762  1.5133
18678SOL     OW57965   6.732   8.318   3.922  0.3586  0.5178 -0.3226
18678SOL    HW157966   6.699   8.245   3.973 -1.2376  1.7501  0.4939
18678SOL    HW257967   6.748   8.282   3.835 -0.1527 -0.8383  0.1269
18679SOL     OW57968   3.054   4.277   0.289 -0.3914 -0.6428 -0.3535
18679SOL    HW157969   3.054   4.367   0.323  0.3366 -0.1853 -1.4975
18679SOL    HW257970   3.107   4.228   0.351 -1.8731 -0.6082  1.0168
18680SOL     OW57971   8.193   2.972   3.005 -0.6058  0.3459  0.0955
18680SOL    HW157972   8.101   2.990   2.984 -1.3819 -1.6806  1.4134
18680SOL    HW257973   8.202   3.001   3.096 -0.7258 -1.7797  0.8408
18681SOL     OW57974   6.470   7.200   4.077  1.1161 -0.0945 -0.5280
18681SOL    HW157975   6.375   7.217   4.080  1.0655 -0.4864  0.2942
18681SOL    HW257976   6.488   7.186   3.984  0.2774 -0.4597 -0.6549
18682SOL     OW57977   5.760   3.210   0.893  0.1814 -0.6667  0.2483
18682SOL    HW157978   5.820   3.160   0.948 -0.7040 -2.3199 -0.2222
18682SOL    HW257979   5.803   3.294   0.881  1.0232 -0.7456  2.3347
18683SOL     OW57980   2.017   5.028   3.216  1.3349  0.0134 -0.3605
18683SOL    HW157981   1.977   5.063   3.136  2.4934  2.2447 -0.0402
18683SOL    HW257982   2.103   4.996   3.187  2.4024  2.1991  0.1232
18684SOL     OW57983   1.739   7.063   0.617 -0.4433  0.1606  0.3424
18684SOL    HW157984   1.815   7.062   0.675 -0.8244 -0.6167  0.8324
18684SOL    HW257985   1.776   7.055   0.529 -0.0417 -2.3692  0.6800
18685SOL     OW57986   3.852   1.239   8.127  0.0146  0.3156 -0.0992
18685SOL    HW157987   3.938   1.278   8.112 -0.1320  0.5369 -0.3780
18685SOL    HW257988   3.832   1.191   8.046 -0.3254  0.6498 -0.2174
18686SOL     OW57989   0.958   7.532   2.025 -0.1614  0.9007  0.3804
18686SOL    HW157990   1.028   7.482   1.983 -0.1197  0.7160  0.6722
18686SOL    HW257991   0.997   7.564   2.107 -0.3228  1.0544  0.3986
18687SOL     OW57992   1.880   1.054   5.918  0.4156 -0.1090 -0.1087
18687SOL    HW157993   1.938   0.981   5.898  1.3584  1.2460 -2.7348
18687SOL    HW257994   1.933   1.132   5.906 -0.9597  1.0938  1.1723
18688SOL     OW57995   4.180   4.982   6.098  0.3799  0.7291 -0.7479
18688SOL    HW157996   4.259   4.996   6.150 -0.3255 -0.6080  0.7747
18688SOL    HW257997   4.108   5.000   6.159 -0.4817  0.4555 -1.6699
18689SOL     OW57998   8.607   6.238   3.941  0.4723  0.4527  0.0496
18689SOL    HW157999   8.684   6.183   3.953  0.1526 -0.0689 -0.2624
18689SOL    HW258000   8.537   6.193   3.987 -0.0631 -0.0233 -1.1798
18690SOL     OW58001   8.075   8.175   5.171 -0.3193  0.3807 -0.3176
18690SOL    HW158002   7.989   8.160   5.133 -1.6305 -0.1825  2.6103
18690SOL    HW258003   8.064   8.156   5.264  3.4017 -1.5377 -0.0597
18691SOL     OW58004   4.498   8.868   6.569  0.2061  0.1040 -0.0916
18691SOL    HW158005   4.418   8.911   6.601  1.1880 -0.1206  3.0604
18691SOL    HW258006   4.569   8.924   6.601  1.3675 -1.1361 -0.4175
18692SOL     OW58007   6.926   1.901   6.505  0.3625  0.2530 -0.3312
18692SOL    HW158008   6.847   1.936   6.465 -0.7954  0.7816  2.1901
18692SOL    HW258009   6.957   1.970   6.563  1.8052 -0.5076 -0.1404
18693SOL     OW58010   5.907   1.734   8.386 -0.0007  0.3473 -0.2333
18693SOL    HW158011   5.908   1.807   8.448 -0.5494 -0.2519  0.5008
18693SOL    HW258012   5.924   1.657   8.439  3.3143  0.1311 -1.3792
18694SOL     OW58013   5.150   4.739   2.135  0.4515  0.0854  0.7760
18694SOL    HW158014   5.172   4.831   2.122 -0.7154  0.4714  1.3551
18694SOL    HW258015   5.234   4.694   2.132  1.1022  1.2326  0.9921
18695SOL     OW58016   7.182   7.618   2.352  0.2656  0.2519 -0.3128
18695SOL    HW158017   7.261   7.595   2.400 -0.1090  1.9687  1.2516
18695SOL    HW258018   7.167   7.710   2.373 -1.6500  0.2198 -1.2948
18696SOL     OW58019   4.334   4.330   1.277  0.1060 -0.9370  0.0565
18696SOL    HW158020   4.413   4.379   1.253 -0.4175  0.3647  0.8730
18696SOL    HW258021   4.267   4.397   1.288 -0.6867 -1.8567  1.0516
18697SOL     OW58022   3.632   5.343   0.137  0.1137 -0.1682  0.0719
18697SOL    HW158023   3.551   5.377   0.174  0.3778  2.2926 -1.4046
18697SOL    HW258024   3.695   5.347   0.208 -0.1299  1.5611  0.2204
18698SOL     OW58025   1.849   2.171   5.805  0.4240 -0.3199  0.1488
18698SOL    HW158026   1.849   2.237   5.875 -0.1251  0.3974 -0.5083
18698SOL    HW258027   1.872   2.089   5.849  1.1360  0.3047  0.9882
18699SOL     OW58028   8.600   0.779   4.524  0.4772  0.3132  0.8337
18699SOL    HW158029   8.654   0.844   4.479 -0.0877  0.2390  0.0408
18699SOL    HW258030   8.657   0.703   4.532  0.8987  0.6503  1.1138
18700SOL     OW58031   2.489   6.075   1.189 -0.4777 -0.3157  0.0054
18700SOL    HW158032   2.468   6.063   1.282 -0.7365  0.6742  0.0788
18700SOL    HW258033   2.503   6.169   1.179 -1.7525 -0.2249 -1.2134
18701SOL     OW58034   8.437   8.791   3.916 -0.5605 -0.1575 -0.5724
18701SOL    HW158035   8.512   8.766   3.970 -0.0771  2.2084 -0.0303
18701SOL    HW258036   8.466   8.778   3.826  0.1012 -0.3449 -0.3331
18702SOL     OW58037   5.309   5.091   5.578 -1.2343  0.4631  0.0865
18702SOL    HW158038   5.272   5.027   5.517 -1.8857 -0.4296  1.3725
18702SOL    HW258039   5.334   5.165   5.522 -2.6135  0.0506 -1.1586
18703SOL     OW58040   1.881   6.838   7.262 -0.1769  0.1934  0.7362
18703SOL    HW158041   1.931   6.757   7.248 -0.5383 -0.0242  0.6918
18703SOL    HW258042   1.840   6.826   7.347 -0.9340 -0.0461  0.3486
18704SOL     OW58043   2.638   6.635   8.306 -0.1173  0.2247 -0.4253
18704SOL    HW158044   2.700   6.595   8.244 -0.2503  0.2650 -0.5854
18704SOL    HW258045   2.693   6.685   8.366  0.1014 -0.6251  0.0992
18705SOL     OW58046   4.853   5.819   6.554 -0.2126  0.2233 -0.2207
18705SOL    HW158047   4.836   5.814   6.648  0.7367  1.6474  0.0664
18705SOL    HW258048   4.949   5.816   6.547 -0.3028 -1.0013 -1.2443
18706SOL     OW58049   3.920   3.054   3.055 -0.0427  0.3761 -0.3880
18706SOL    HW158050   3.971   3.128   3.020 -2.4207  1.1163 -2.6086
18706SOL    HW258051   3.857   3.095   3.114  0.1580 -0.2111  0.2433
18707SOL     OW58052   7.503   2.484   0.023 -0.1650  0.0150 -0.5454
18707SOL    HW158053   7.549   2.511   0.102  0.4758 -1.0938 -0.5113
18707SOL    HW258054   7.508   2.560  -0.035  0.6420  0.3309 -0.0777
18708SOL     OW58055   0.453   4.149   4.586  0.0126  1.0554  0.0849
18708SOL    HW158056   0.398   4.091   4.638 -0.0945  0.5142 -0.6165
18708SOL    HW258057   0.423   4.137   4.496  2.7619 -1.0505 -0.6928
18709SOL     OW58058   8.202   5.073   0.001 -0.0156 -0.0112  0.5728
18709SOL    HW158059   8.239   5.147   0.049  1.3658  0.0684 -0.5581
18709SOL    HW258060   8.146   5.114  -0.066 -0.1363 -0.0336  0.6604
18710SOL     OW58061   6.249   6.960   6.818 -0.4413  0.1964  0.0130
18710SOL    HW158062   6.291   6.874   6.821 -1.0760 -0.1071  0.3336
18710SOL    HW258063   6.168   6.946   6.769 -0.2083  0.7641 -0.5532
18711SOL     OW58064   2.070   8.386   6.301 -0.3547 -0.6991 -0.1930
18711SOL    HW158065   2.165   8.398   6.292 -0.0886 -2.1392  0.3414
18711SOL    HW258066   2.057   8.371   6.394 -1.3050  0.7636 -0.0617
18712SOL     OW58067   1.112   2.204   4.496  0.0535 -0.0334  0.0315
18712SOL    HW158068   1.056   2.180   4.422 -0.6423 -0.7128  0.7563
18712SOL    HW258069   1.199   2.174   4.471 -0.5320 -2.1782  0.3193
18713SOL     OW58070   1.945   7.865   5.771 -0.4291 -0.3770 -0.1738
18713SOL    HW158071   1.926   7.959   5.775  1.0231 -0.0568 -0.0633
18713SOL    HW258072   1.987   7.852   5.686 -0.2075 -0.8338  0.0015
18714SOL     OW58073   5.273   6.887   4.075  0.0148 -1.0644  0.4402
18714SOL    HW158074   5.194   6.941   4.063 -0.3479 -1.6702  0.0199
18714SOL    HW258075   5.287   6.884   4.169  0.7000  0.6902  0.4323
18715SOL     OW58076   3.520   4.718   4.830 -0.2756 -0.1280 -0.3406
18715SOL    HW158077   3.428   4.728   4.804 -0.5896  0.2652  0.8505
18715SOL    HW258078   3.529   4.625   4.850 -0.5327 -0.0996 -0.0754
18716SOL     OW58079   7.298   3.505   2.583 -0.5561 -0.4599  0.6469
18716SOL    HW158080   7.245   3.491   2.505 -0.7999  1.4004  0.4364
18716SOL    HW258081   7.238   3.491   2.657 -0.5579 -1.2947  0.4982
18717SOL     OW58082   5.847   0.754   5.852  0.0851 -0.7139  0.1306
18717SOL    HW158083   5.797   0.753   5.770 -3.1567 -1.7312  1.9151
18717SOL    HW258084   5.839   0.665   5.885  2.5140 -0.6795  0.9749
18718SOL     OW58085   4.202   7.905   6.181  0.2175 -0.7665  0.4546
18718SOL    HW158086   4.269   7.853   6.137  0.6888  1.3920 -1.5725
18718SOL    HW258087   4.120   7.879   6.139 -0.0608 -2.1830  1.7679
18719SOL     OW58088   4.076   4.670   7.212  0.1808  0.1150 -0.2531
18719SOL    HW158089   3.981   4.660   7.204  0.2923 -0.2403 -1.2977
18719SOL    HW258090   4.088   4.747   7.267 -0.7088  0.2909 -0.3001
18720SOL     OW58091   1.541   3.806   4.483  0.0629  0.2556 -0.0774
18720SOL    HW158092   1.503   3.871   4.424 -0.5225  2.1731  2.2564
18720SOL    HW258093   1.613   3.767   4.433 -0.9971  1.0627 -2.3597
18721SOL     OW58094   3.559   4.028   5.123 -0.1183 -0.6145 -0.0494
18721SOL    HW158095   3.548   3.948   5.173 -1.1718 -2.0122 -2.3645
18721SOL    HW258096   3.484   4.082   5.148  0.6399 -0.2276  1.5786
18722SOL     OW58097   8.771   4.785   4.734 -0.5269 -0.0079 -0.1608
18722SOL    HW158098   8.692   4.749   4.693 -1.7202 -1.1690  2.8463
18722SOL    HW258099   8.839   4.720   4.715 -0.7265  0.0829 -1.2487
18723SOL     OW58100   4.815   0.741   4.592  0.4170 -0.2544 -0.2661
18723SOL    HW158101   4.785   0.652   4.608 -0.6692  0.0703 -0.4668
18723SOL    HW258102   4.911   0.735   4.599  0.3628 -1.4422 -0.3619
18724SOL     OW58103   6.955   6.486   5.843 -0.2782  0.0550 -0.3238
18724SOL    HW158104   6.976   6.552   5.777 -0.4483 -0.7356 -1.1936
18724SOL    HW258105   6.940   6.406   5.793 -2.7761 -0.0421  0.4603
18725SOL     OW58106   2.282   0.631   8.692  0.1874 -0.4518 -0.3461
18725SOL    HW158107   2.239   0.558   8.735 -1.7357  0.4977 -0.5539
18725SOL    HW258108   2.337   0.670   8.760  0.9914 -1.8728 -0.1559
18726SOL     OW58109   1.050   2.527   6.693  0.1063 -1.1168 -0.5516
18726SOL    HW158110   1.118   2.528   6.761  0.4929 -3.8424 -0.8104
18726SOL    HW258111   0.992   2.456   6.717 -1.1760 -0.5348 -1.7827
18727SOL     OW58112   6.784   2.540   0.097 -0.0844  0.5267  0.1218
18727SOL    HW158113   6.880   2.532   0.097 -0.1026 -0.0161 -1.0678
18727SOL    HW258114   6.768   2.633   0.080  0.2289  0.6178  0.3062
18728SOL     OW58115   6.487   1.162   2.634 -0.7163  0.4120  0.0706
18728SOL    HW158116   6.457   1.101   2.566  0.2100 -0.7502  0.6714
18728SOL    HW258117   6.407   1.185   2.682 -1.2674  0.6750 -0.9418
18729SOL     OW58118   2.573   8.451   5.677  0.7062 -0.3884  0.1521
18729SOL    HW158119   2.569   8.436   5.583 -0.3824  0.6655  0.0086
18729SOL    HW258120   2.566   8.364   5.716  0.6381 -0.7806 -0.7253
18730SOL     OW58121   8.515   6.537   6.499  0.1254  0.1529 -0.0901
18730SOL    HW158122   8.578   6.508   6.566  0.0960  1.4162  0.5070
18730SOL    HW258123   8.433   6.494   6.523  0.1395  0.5152  0.6387
18731SOL     OW58124   2.085   7.392   7.816  0.0087 -0.9301 -0.1430
18731SOL    HW158125   2.107   7.328   7.749  0.2949  0.2918 -1.2480
18731SOL    HW258126   2.168   7.438   7.833 -0.4058 -0.1711 -0.1233
18732SOL     OW58127   8.072   1.897   3.525 -0.3173  0.0492 -0.0582
18732SOL    HW158128   8.118   1.840   3.588 -0.1110 -0.2772 -0.4951
18732SOL    HW258129   7.981   1.898   3.555 -0.2041 -0.0360  0.2928
18733SOL     OW58130   8.118   4.021   1.693  0.7426  0.3202  0.2449
18733SOL    HW158131   8.164   3.977   1.765  1.9049 -0.4406 -0.9288
18733SOL    HW258132   8.025   4.002   1.709  1.0538 -0.5898  1.0515
18734SOL     OW58133   7.715   5.681   1.868  0.2128  0.4361  0.0978
18734SOL    HW158134   7.648   5.625   1.906  0.3239  0.2496  0.0210
18734SOL    HW258135   7.722   5.652   1.777 -0.6663  1.4554 -0.3176
18735SOL     OW58136   6.051   5.416   5.671  0.6828 -0.4661 -0.5558
18735SOL    HW158137   6.086   5.375   5.591 -0.0108  0.7859 -1.5370
18735SOL    HW258138   5.976   5.467   5.641 -0.6018 -1.2643  1.1686
18736SOL     OW58139   4.132   8.233   6.521 -0.3344 -0.4147  0.4565
18736SOL    HW158140   4.126   8.328   6.516 -1.4623 -0.3743  1.9133
18736SOL    HW258141   4.222   8.213   6.496 -0.4760  0.8985 -1.2520
18737SOL     OW58142   8.701   2.703   5.289 -0.2683  0.2504  0.4382
18737SOL    HW158143   8.738   2.615   5.296  1.7178  0.8930 -1.0963
18737SOL    HW258144   8.653   2.702   5.206 -0.5375  0.5162  0.5896
18738SOL     OW58145   4.122   4.494   1.275  0.0197  0.0491  0.5898
18738SOL    HW158146   4.150   4.557   1.341  0.7590  0.4446 -0.0861
18738SOL    HW258147   4.052   4.444   1.317  0.1216  0.6459  1.4809
18739SOL     OW58148   1.529   1.409   6.068 -0.4569  0.3029  0.8451
18739SOL    HW158149   1.592   1.340   6.087  0.9959  1.0267 -0.9776
18739SOL    HW258150   1.567   1.488   6.107  0.0692  0.8265 -0.6280
18740SOL     OW58151   2.782   6.702   3.539 -0.2853 -0.5896 -0.2866
18740SOL    HW158152   2.750   6.612   3.534  1.0358 -1.0758 -0.3470
18740SOL    HW258153   2.877   6.695   3.532 -0.1910  0.8731 -0.9383
18741SOL     OW58154   3.829   6.373   4.424 -0.3675 -0.3877 -0.3251
18741SOL    HW158155   3.898   6.336   4.479  1.1873  0.9563 -1.2736
18741SOL    HW258156   3.871   6.386   4.339 -1.3232  1.9514 -0.4917
18742SOL     OW58157   7.648   5.116   7.813 -0.0283 -0.7256  0.2067
18742SOL    HW158158   7.710   5.179   7.778  0.0905 -0.3235  1.1193
18742SOL    HW258159   7.652   5.042   7.753 -0.1627  0.1261 -0.8703
18743SOL     OW58160   2.462   8.007   1.538 -0.7749 -0.2276 -0.5953
18743SOL    HW158161   2.534   8.064   1.510 -0.4851  0.2189  0.9865
18743SOL    HW258162   2.498   7.956   1.610 -1.6000 -1.0976 -0.7763
18744SOL     OW58163   1.114   3.593   1.490  0.0420  0.3345 -0.1348
18744SOL    HW158164   1.127   3.518   1.549  0.1738  0.4310 -0.0393
18744SOL    HW258165   1.194   3.645   1.500 -0.0133  0.4452 -0.2640
18745SOL     OW58166   7.412   7.047   7.696  0.0627  0.0609 -0.0231
18745SOL    HW158167   7.454   7.128   7.724 -0.0090 -0.1446  0.6857
18745SOL    HW258168   7.340   7.034   7.757 -0.3997 -0.1422 -0.5945
18746SOL     OW58169   7.047   4.731   0.163 -0.3063  0.0092  0.5611
18746SOL    HW158170   7.079   4.806   0.113  0.5660  0.5314  1.8607
18746SOL    HW258171   6.982   4.768   0.223 -1.4887 -0.6431 -0.2688
18747SOL     OW58172   1.401   0.842   8.355  0.4671  0.1215  0.2668
18747SOL    HW158173   1.373   0.925   8.316 -0.6322 -0.4496 -0.1669
18747SOL    HW258174   1.326   0.784   8.346  1.1102 -0.8277  0.8805
18748SOL     OW58175   6.369   6.372   0.547 -0.7550  0.0433  0.1282
18748SOL    HW158176   6.438   6.410   0.601  0.8017 -1.2565 -0.8723
18748SOL    HW258177   6.315   6.447   0.522  1.2866  1.4258 -0.4431
18749SOL     OW58178   4.867   1.158   0.906 -0.0195  0.6603  0.2148
18749SOL    HW158179   4.780   1.160   0.947  0.3855 -0.1783  1.1516
18749SOL    HW258180   4.912   1.234   0.943  0.2143  0.1261  1.0342
18750SOL     OW58181   8.446   5.975   3.315  0.1359 -0.0785 -0.6327
18750SOL    HW158182   8.373   6.011   3.265  0.8077  1.9007 -0.3058
18750SOL    HW258183   8.406   5.937   3.393 -0.6889 -0.7909 -1.3839
18751SOL     OW58184   3.484   2.302   4.356 -0.0471 -0.2469 -0.1690
18751SOL    HW158185   3.412   2.240   4.366 -0.6435  0.3761 -0.4782
18751SOL    HW258186   3.518   2.315   4.444 -1.0641  0.3154  0.1586
18752SOL     OW58187   1.234   5.859   7.463  0.1855 -0.1921 -0.0161
18752SOL    HW158188   1.286   5.939   7.453  1.5862 -1.1793 -1.0167
18752SOL    HW258189   1.216   5.855   7.557  1.0500  0.7238  0.2102
18753SOL     OW58190   0.742   3.147   0.613  0.1810  0.5945  0.1239
18753SOL    HW158191   0.785   3.089   0.675  1.6785  0.3991 -1.0408
18753SOL    HW258192   0.788   3.231   0.622  1.5769  0.1007 -1.8476
18754SOL     OW58193   3.218   8.123   4.283 -0.0674  0.1638  0.1146
18754SOL    HW158194   3.191   8.211   4.310  2.4045  0.3451  2.4310
18754SOL    HW258195   3.268   8.090   4.357 -0.1802 -2.8949 -1.0444
18755SOL     OW58196   1.224   3.142   5.891  0.4395  0.0847 -0.1686
18755SOL    HW158197   1.229   3.229   5.931 -1.8788 -0.7107  2.1141
18755SOL    HW258198   1.135   3.136   5.856  0.8243 -1.0848 -1.0103
18756SOL     OW58199   2.747   4.709   6.911 -0.3587 -0.0149  0.5031
18756SOL    HW158200   2.807   4.711   6.985  0.2965  1.1710 -0.0352
18756SOL    HW258201   2.660   4.702   6.950 -0.1339  1.9970  1.4744
18757SOL     OW58202   0.735   3.010   5.845  0.2060 -0.0604 -0.2490
18757SOL    HW158203   0.674   2.972   5.782 -1.1522  0.4085  0.7388
18757SOL    HW258204   0.683   3.024   5.924  2.2002 -2.0816  1.5624
18758SOL     OW58205   4.878   6.221   0.235  0.2909 -0.6793 -0.0347
18758SOL    HW158206   4.818   6.290   0.263  1.4106 -0.1760  1.2438
18758SOL    HW258207   4.845   6.142   0.277 -0.7763 -0.8780 -1.1962
18759SOL     OW58208   6.202   5.257   0.008  0.3230  0.1246  0.2439
18759SOL    HW158209   6.153   5.179   0.032  0.5691 -0.1465 -0.1333
18759SOL    HW258210   6.282   5.224  -0.034  0.7178  0.5621  0.6262
18760SOL     OW58211   8.736   6.487   1.292  0.4058  0.0397 -0.3971
18760SOL    HW158212   8.725   6.393   1.279  0.2895 -0.1346  0.8213
18760SOL    HW258213   8.687   6.528   1.220 -1.1111 -0.8164  0.1154
18761SOL     OW58214   7.400   1.593   2.131 -0.1789  0.1532  0.2198
18761SOL    HW158215   7.397   1.612   2.225 -1.3178 -2.2875  0.7491
18761SOL    HW258216   7.469   1.527   2.122  2.0501  2.4798 -1.1898
18762SOL     OW58217   0.787   4.023   5.792  0.2397  0.2385  0.0237
18762SOL    HW158218   0.768   4.068   5.710 -0.5191  1.0738  0.6215
18762SOL    HW258219   0.878   3.995   5.785  0.2417  0.4742 -1.0116
18763SOL     OW58220   0.819   7.618   0.933 -0.4482 -0.2867 -0.2199
18763SOL    HW158221   0.756   7.555   0.899  1.0724 -1.1454 -1.5727
18763SOL    HW258222   0.872   7.569   0.995  0.7229 -0.3940 -1.2554
18764SOL     OW58223   6.357   6.146   6.258 -0.4828 -0.3611 -0.5044
18764SOL    HW158224   6.422   6.080   6.283 -0.8366 -0.4479  0.1938
18764SOL    HW258225   6.301   6.101   6.194  0.3758 -0.1583 -1.4416
18765SOL     OW58226   2.039   3.571   6.913 -0.2347  0.1455  0.0915
18765SOL    HW158227   1.953   3.606   6.887 -0.1918  1.3344  1.4162
18765SOL    HW258228   2.076   3.639   6.970  2.0945  0.1751 -1.3440
18766SOL     OW58229   3.773   7.223   2.666 -0.1087 -0.3263 -0.0960
18766SOL    HW158230   3.809   7.219   2.577  1.4290 -0.9787  0.5234
18766SOL    HW258231   3.829   7.286   2.711 -2.1672  1.6345 -0.1048
18767SOL     OW58232   3.473   8.647   1.079  0.2156  0.5388 -0.1270
18767SOL    HW158233   3.488   8.735   1.111 -1.2986  1.1806 -1.0751
18767SOL    HW258234   3.394   8.618   1.124 -0.5402  0.5195 -1.4249
18768SOL     OW58235   5.009   2.634   0.540 -0.2701  0.4024 -0.1165
18768SOL    HW158236   5.029   2.625   0.633 -0.6516 -1.0115 -0.1404
18768SOL    HW258237   4.978   2.547   0.514 -1.8490  1.2320 -1.1649
18769SOL     OW58238   5.540   0.177   2.554  0.0198 -0.4513  0.0413
18769SOL    HW158239   5.617   0.228   2.579 -1.4313  1.4747  0.7797
18769SOL    HW258240   5.465   0.231   2.579 -1.6020 -2.0401 -1.0946
18770SOL     OW58241   0.631   0.158   4.597  0.4553 -0.1405 -0.0096
18770SOL    HW158242   0.598   0.239   4.637 -0.7452 -1.1683  1.1559
18770SOL    HW258243   0.615   0.169   4.504 -1.9989 -0.0150  0.3684
18771SOL     OW58244   5.595   2.123   2.891 -1.0237  0.0195 -0.5246
18771SOL    HW158245   5.512   2.075   2.896 -1.4841  0.8928  0.5047
18771SOL    HW258246   5.635   2.092   2.810 -2.3117 -0.4984 -0.9921
18772SOL     OW58247   8.680   7.939   0.203 -0.6374  0.3954  0.1286
18772SOL    HW158248   8.651   7.984   0.124  0.0959 -1.2913 -1.1596
18772SOL    HW258249   8.775   7.947   0.202 -0.6083  0.1883  0.7509
18773SOL     OW58250   0.329   7.662   0.905  0.0503 -0.0930  0.5724
18773SOL    HW158251   0.310   7.577   0.944  0.5845 -0.2980  0.3869
18773SOL    HW258252   0.399   7.698   0.959 -0.4381  0.4044  0.8900
18774SOL     OW58253   4.137   3.568   2.810  0.3802  0.0918 -0.5284
18774SOL    HW158254   4.181   3.639   2.764 -0.6918  0.2471 -1.3392
18774SOL    HW258255   4.102   3.608   2.889  1.1614  0.0998 -0.1809
18775SOL     OW58256   7.003   5.983   2.821 -0.1311  0.0261  0.1968
18775SOL    HW158257   7.041   5.896   2.806 -1.7644 -1.0291  1.7303
18775SOL    HW258258   6.928   5.986   2.762 -0.6220  0.0014  0.8118
18776SOL     OW58259   3.703   2.995   4.532  0.2098 -0.2207  0.4594
18776SOL    HW158260   3.732   2.914   4.574  0.0581 -0.8971 -0.7091
18776SOL    HW258261   3.684   3.054   4.605  0.3755 -1.2156  1.3304
18777SOL     OW58262   5.159   4.301   2.841  0.2868  0.0004 -0.1695
18777SOL    HW158263   5.108   4.377   2.869 -0.4596 -0.8183  0.7528
18777SOL    HW258264   5.135   4.289   2.749  0.1754  0.6877 -0.2356
18778SOL     OW58265   3.580   2.587   2.594 -0.2349 -0.6282 -0.1239
18778SOL    HW158266   3.572   2.682   2.597  2.6429 -0.2772  2.6297
18778SOL    HW258267   3.611   2.568   2.505 -0.9449  0.9759 -0.7432
18779SOL     OW58268   5.741   8.798   2.375  0.1693 -0.2230  0.1524
18779SOL    HW158269   5.653   8.799   2.335 -0.4598 -0.9911  1.4635
18779SOL    HW258270   5.730   8.846   2.457  1.4311  1.2641 -0.4876
18780SOL     OW58271   8.339   2.485   8.139  0.0996 -0.0657 -0.9834
18780SOL    HW158272   8.410   2.456   8.082  1.2418 -0.3488  0.5472
18780SOL    HW258273   8.347   2.432   8.217 -0.0441  1.8168  0.3897
18781SOL     OW58274   7.088   7.496   6.946 -0.4928 -0.0389 -0.0451
18781SOL    HW158275   7.008   7.445   6.958  0.1750 -1.2398 -0.4510
18781SOL    HW258276   7.076   7.573   7.000 -0.5917 -1.7627  2.5640
18782SOL     OW58277   8.225   7.482   1.581 -0.7374  0.3441  0.5496
18782SOL    HW158278   8.196   7.550   1.521 -1.6219 -0.1001  0.4580
18782SOL    HW258279   8.299   7.440   1.536 -0.6616  0.7622  0.2844
18783SOL     OW58280   8.172   6.570   0.571  0.0183 -0.3237  0.2752
18783SOL    HW158281   8.214   6.501   0.520  0.0961  0.6743 -1.0530
18783SOL    HW258282   8.194   6.549   0.662  1.8805 -0.8249 -0.2501
18784SOL     OW58283   4.575   2.786   0.101  0.2121  0.0489 -0.3186
18784SOL    HW158284   4.527   2.807   0.181  0.5683 -1.1597  0.2300
18784SOL    HW258285   4.649   2.848   0.101  0.9850 -0.8164  1.0253
18785SOL     OW58286   1.176   7.426   1.925  0.3887 -0.4578  0.3131
18785SOL    HW158287   1.250   7.464   1.877  0.2925  0.5219  0.9256
18785SOL    HW258288   1.196   7.332   1.927  2.7575 -0.0254  2.3285
18786SOL     OW58289   7.154   4.169   3.904  0.1028  0.2854  0.4403
18786SOL    HW158290   7.149   4.255   3.862 -1.0713  1.1444  2.2225
18786SOL    HW258291   7.128   4.185   3.995 -1.8626 -2.2058  0.4366
18787SOL     OW58292   2.357   0.825   3.999  0.9260  0.2382 -0.2282
18787SOL    HW158293   2.338   0.732   3.987 -0.3760  0.1908  1.7626
18787SOL    HW258294   2.272   0.868   3.987  0.8581  0.8015  1.9609
18788SOL     OW58295   1.019   4.022   3.962  0.1237 -0.1480 -0.5564
18788SOL    HW158296   1.070   4.094   3.998 -0.7823 -0.4040  1.3640
18788SOL    HW258297   0.968   3.989   4.036 -1.6601 -0.8966 -2.0388
18789SOL     OW58298   6.862   5.780   7.879 -0.0172  0.5539  0.2113
18789SOL    HW158299   6.879   5.686   7.872  0.3367  0.6929 -1.0310
18789SOL    HW258300   6.866   5.812   7.789 -2.2096  1.4260  0.3696
18790SOL     OW58301   5.448   8.644   5.676 -0.2556 -0.4136 -0.6268
18790SOL    HW158302   5.409   8.595   5.748  0.0351 -0.3068 -0.3930
18790SOL    HW258303   5.403   8.613   5.598 -0.2024 -0.9121 -0.4583
18791SOL     OW58304   1.213   2.153   7.228  0.3012  0.4762  0.0547
18791SOL    HW158305   1.202   2.131   7.136  0.5069  0.3358  0.0648
18791SOL    HW258306   1.279   2.223   7.229 -1.2948  2.0737 -0.0986
18792SOL     OW58307   5.245   2.255   4.207 -0.4305 -0.0172 -0.1666
18792SOL    HW158308   5.291   2.174   4.228  2.0886  0.8750 -1.7261
18792SOL    HW258309   5.180   2.265   4.276  1.0072 -1.9564  1.5919
18793SOL     OW58310   3.891   4.829   4.945 -0.1928  0.1046  0.0709
18793SOL    HW158311   3.863   4.740   4.965  0.7924  0.1415  1.8521
18793SOL    HW258312   3.839   4.885   5.003 -1.3845  0.8027 -1.5997
18794SOL     OW58313   2.508   4.691   7.531  0.4635  0.1142  0.2860
18794SOL    HW158314   2.466   4.653   7.454  0.7406  2.2711 -1.0318
18794SOL    HW258315   2.537   4.778   7.502  3.2155 -0.1138  1.9772
18795SOL     OW58316   6.250   5.614   6.119  0.8775  0.0331  0.8114
18795SOL    HW158317   6.216   5.699   6.147 -1.5886 -1.4200  2.6192
18795SOL    HW258318   6.193   5.587   6.048 -0.3414 -1.3712  2.2574
18796SOL     OW58319   8.565   4.303   5.607  0.0825 -0.2392 -0.2011
18796SOL    HW158320   8.542   4.387   5.648 -0.1844 -0.9662  1.1934
18796SOL    HW258321   8.660   4.296   5.618  0.2524  0.2942 -1.1756
18797SOL     OW58322   0.373   4.060   0.502  0.4369 -0.0224  0.4214
18797SOL    HW158323   0.295   4.097   0.461  0.0431 -2.2427 -0.9727
18797SOL    HW258324   0.341   3.986   0.553  1.4412  0.1792  1.3892
18798SOL     OW58325   4.799   1.205   4.889  0.6706  0.3455  0.4657
18798SOL    HW158326   4.745   1.140   4.845  2.5320 -0.3489 -0.8960
18798SOL    HW258327   4.871   1.222   4.829  2.0695  1.1063  2.2424
18799SOL     OW58328   5.475   3.802   2.694  0.0634  0.0980 -0.5458
18799SOL    HW158329   5.477   3.751   2.775 -0.2852 -0.8985 -1.1415
18799SOL    HW258330   5.446   3.740   2.627 -0.4657  1.1083 -1.2882
18800SOL     OW58331   0.021   4.438   5.977  0.0220 -0.4253  0.5721
18800SOL    HW158332   0.025   4.343   5.988  0.1082 -0.6499 -1.1875
18800SOL    HW258333  -0.026   4.451   5.895 -1.7512  1.1331  1.7469
18801SOL     OW58334   6.606   4.936   3.134 -0.3297  0.0218  0.1844
18801SOL    HW158335   6.555   4.905   3.209 -1.0872  1.1633  0.1780
18801SOL    HW258336   6.541   4.978   3.077  0.7167  2.6197  0.7431
18802SOL     OW58337   8.466   5.668   1.002  0.2628  0.4393  0.7584
18802SOL    HW158338   8.402   5.602   1.029  0.2716  0.4361  0.7703
18802SOL    HW258339   8.467   5.731   1.074  2.0196 -0.7931  1.8959
18803SOL     OW58340   0.898   3.641   3.825 -0.6860  0.7033 -0.4873
18803SOL    HW158341   0.908   3.606   3.913 -1.1338 -0.2436 -0.7951
18803SOL    HW258342   0.810   3.678   3.823 -1.3417 -0.8067 -1.0205
18804SOL     OW58343   2.911   4.838   4.590 -0.4569 -0.1015 -0.1134
18804SOL    HW158344   2.941   4.769   4.650 -1.5286  0.3039  0.9372
18804SOL    HW258345   2.856   4.894   4.645 -0.9156  0.6780 -1.3406
18805SOL     OW58346   5.651   7.241   5.043 -0.3972 -0.2050 -0.6183
18805SOL    HW158347   5.694   7.200   4.968 -1.2173 -1.5508 -0.3948
18805SOL    HW258348   5.583   7.179   5.069  0.1723 -0.0275  1.5566
18806SOL     OW58349   1.732   0.464   4.609  0.3946 -0.5171 -0.1887
18806SOL    HW158350   1.698   0.376   4.627  1.7927 -1.2313 -0.8268
18806SOL    HW258351   1.742   0.467   4.514  2.8993 -0.7313 -0.0171
18807SOL     OW58352   0.191   6.031   2.210 -0.8126  0.4036 -0.0055
18807SOL    HW158353   0.132   6.072   2.147 -0.6103  0.1657 -0.3520
18807SOL    HW258354   0.270   6.086   2.208  0.0076 -0.7500 -1.4910
18808SOL     OW58355   0.697   2.951   4.770 -0.1835  0.0230 -0.1531
18808SOL    HW158356   0.648   2.924   4.849 -1.3680 -2.0439 -1.4842
18808SOL    HW258357   0.672   2.887   4.704  1.1092  1.4425 -2.1269
18809SOL     OW58358   2.635   2.224   2.938  0.5367 -0.0577 -0.1315
18809SOL    HW158359   2.553   2.209   2.892  0.6054  2.7676 -1.3849
18809SOL    HW258360   2.703   2.209   2.872  0.9145 -0.3777  0.3240
18810SOL     OW58361   5.254   6.637   1.968 -0.2188 -0.0144 -0.3720
18810SOL    HW158362   5.263   6.672   1.879  1.1958  0.3066 -0.1401
18810SOL    HW258363   5.241   6.714   2.023 -1.5405 -0.2485 -0.3290
18811SOL     OW58364   1.475   6.924   7.403 -0.4751  0.3553  0.2582
18811SOL    HW158365   1.472   6.829   7.413 -1.1372  0.4911  1.4447
18811SOL    HW258366   1.476   6.958   7.492 -1.3240  1.4938 -0.1465
18812SOL     OW58367   7.425   2.845   4.286  0.3469 -0.3467 -0.1256
18812SOL    HW158368   7.365   2.901   4.336  0.9720 -1.1449  1.6048
18812SOL    HW258369   7.378   2.762   4.276  0.3448 -0.2882 -0.6051
18813SOL     OW58370   2.862   7.246   8.545  0.1536  0.1858  0.4119
18813SOL    HW158371   2.848   7.230   8.638 -1.3869  0.3495  0.2332
18813SOL    HW258372   2.949   7.284   8.540 -1.2269  4.0444  2.2671
18814SOL     OW58373   2.248   2.202   8.346  0.2371  0.2542 -0.0545
18814SOL    HW158374   2.218   2.131   8.290 -0.1654 -0.7067  1.3405
18814SOL    HW258375   2.335   2.174   8.377 -0.1878  0.0491  0.9972
18815SOL     OW58376   0.800   3.143   4.484  0.0619  0.2354 -0.6131
18815SOL    HW158377   0.788   3.129   4.390  2.0491  1.6348 -1.1373
18815SOL    HW258378   0.712   3.140   4.520 -0.8249  0.3697 -2.6344
18816SOL     OW58379   7.261   0.206   3.776  0.2310 -0.5587  0.1362
18816SOL    HW158380   7.300   0.211   3.689 -1.4987  1.1080 -0.6315
18816SOL    HW258381   7.296   0.282   3.823 -0.6019 -0.0985  0.0508
18817SOL     OW58382   3.074   5.114   3.829 -0.0711  0.1998  0.1911
18817SOL    HW158383   3.043   5.067   3.751 -0.2049  0.5526  0.0289
18817SOL    HW258384   3.010   5.184   3.842 -0.1686  0.0143  0.7480
18818SOL     OW58385   0.565   4.320   8.289  0.4509  0.4669  0.1074
18818SOL    HW158386   0.637   4.266   8.321  0.9014  0.8296 -0.2858
18818SOL    HW258387   0.564   4.306   8.195  0.6601  1.2355 -0.0183
18819SOL     OW58388   4.953   7.929   4.550  0.3750  0.1550 -0.5076
18819SOL    HW158389   4.994   7.984   4.616 -1.0331 -0.5658  1.0447
18819SOL    HW258390   4.919   7.854   4.598  0.4392 -1.0809 -2.2589
18820SOL     OW58391   7.187   5.958   0.581 -0.7768  0.4014  0.1549
18820SOL    HW158392   7.174   5.867   0.607 -1.3130  0.1218 -0.9969
18820SOL    HW258393   7.154   6.009   0.654 -0.1651 -0.3253  0.9536
18821SOL     OW58394   8.720   6.893   8.174  0.5011 -0.1477  0.3316
18821SOL    HW158395   8.765   6.921   8.254  2.4663  1.1653 -1.1387
18821SOL    HW258396   8.683   6.973   8.138 -1.2101 -0.8885  0.3715
18822SOL     OW58397   3.576   3.036   5.264 -0.2693  0.3127 -0.0811
18822SOL    HW158398   3.525   3.075   5.335 -0.7287  2.7435 -1.5928
18822SOL    HW258399   3.664   3.026   5.299 -0.3335  2.0587  0.6912
18823SOL     OW58400   0.538   8.206   8.287 -0.1390  0.6378  0.0398
18823SOL    HW158401   0.453   8.240   8.259 -0.8797 -0.4101  0.9029
18823SOL    HW258402   0.541   8.225   8.381  0.5073  0.5231  0.0459
18824SOL     OW58403   1.535   3.120   1.182  0.0116 -0.7075  0.3579
18824SOL    HW158404   1.555   3.124   1.089  0.7293  0.4045  0.5491
18824SOL    HW258405   1.463   3.056   1.189  0.6402 -1.5668 -0.8276
18825SOL     OW58406   3.516   6.709   3.631 -0.3574  0.0965  0.1373
18825SOL    HW158407   3.593   6.756   3.598  0.2336 -0.1798  1.0833
18825SOL    HW258408   3.528   6.619   3.599 -1.1347  0.4097 -1.0887
18826SOL     OW58409   2.569   7.004   6.011 -0.0783 -0.2509 -0.3079
18826SOL    HW158410   2.568   7.094   6.043  1.7255 -0.1179 -0.5489
18826SOL    HW258411   2.661   6.986   5.991 -0.6690 -1.4798 -2.1666
18827SOL     OW58412   8.088   8.084   4.870 -0.0254  1.0350 -0.2513
18827SOL    HW158413   8.060   8.107   4.782  0.1168 -0.5434 -0.7352
18827SOL    HW258414   8.131   8.163   4.903  0.6817  1.3744 -1.8974
18828SOL     OW58415   8.001   1.017   6.089  0.4014  0.5042  0.1869
18828SOL    HW158416   7.989   0.947   6.152 -1.2355  0.5402 -0.0229
18828SOL    HW258417   8.071   0.987   6.032  1.0565 -0.0688  1.2708
18829SOL     OW58418   1.851   1.667   6.102 -0.1224 -0.7131  0.1858
18829SOL    HW158419   1.829   1.669   6.008  0.5499 -2.0667 -0.0181
18829SOL    HW258420   1.927   1.609   6.107  0.2211 -0.1679  1.5083
18830SOL     OW58421   6.020   4.748   6.782 -0.1194  0.5959  0.2890
18830SOL    HW158422   5.968   4.828   6.770  0.2479  0.8916  0.6289
18830SOL    HW258423   6.103   4.766   6.737 -0.4351 -0.0077 -0.5479
18831SOL     OW58424   2.212   0.304   6.475  0.3339 -0.4197 -0.2232
18831SOL    HW158425   2.270   0.257   6.415  1.7910  0.4769  0.4340
18831SOL    HW258426   2.232   0.396   6.460 -0.0889 -0.1465  0.8469
18832SOL     OW58427   2.998   4.062   6.425 -0.2251  0.8655  0.1294
18832SOL    HW158428   2.993   4.155   6.403 -0.7673  1.2056  1.5655
18832SOL    HW258429   2.914   4.026   6.397 -1.1473  1.4151  2.0233
18833SOL     OW58430   0.968   8.643   2.118  0.2796 -0.2691 -0.3666
18833SOL    HW158431   0.949   8.737   2.128 -0.1034 -0.3491 -0.3536
18833SOL    HW258432   1.023   8.638   2.040 -0.1922 -0.0989 -0.7092
18834SOL     OW58433   6.846   3.961   7.160  0.5811 -0.1329 -0.0262
18834SOL    HW158434   6.757   3.995   7.158 -0.1007 -1.5801  1.8559
18834SOL    HW258435   6.842   3.880   7.110  0.5993 -0.6234  0.7401
18835SOL     OW58436   7.949   4.402   3.515  0.1263 -0.0583  0.2501
18835SOL    HW158437   7.859   4.384   3.487  0.1956 -0.7617  0.4457
18835SOL    HW258438   7.962   4.346   3.592  1.1984 -1.0850 -0.6303
18836SOL     OW58439   1.869   0.647   5.199  0.0132  0.2944  0.1186
18836SOL    HW158440   1.832   0.585   5.262 -0.2059  0.1473 -0.1546
18836SOL    HW258441   1.865   0.732   5.243 -2.2099  0.5832 -0.5402
18837SOL     OW58442   5.268   2.654   7.486  0.0014 -0.0603  0.1341
18837SOL    HW158443   5.354   2.619   7.508  0.5032 -0.2632 -1.9180
18837SOL    HW258444   5.209   2.580   7.497 -0.4547  0.6907  4.0258
18838SOL     OW58445   4.633   1.833   0.303  1.1352  0.8116  0.3449
18838SOL    HW158446   4.557   1.866   0.256 -0.0321 -0.5837  1.1966
18838SOL    HW258447   4.695   1.808   0.234 -0.3667 -0.7962 -0.4995
18839SOL     OW58448   7.053   2.809   0.412 -0.2920 -0.1516 -0.2422
18839SOL    HW158449   7.115   2.841   0.477 -0.1790  1.3156 -1.0177
18839SOL    HW258450   7.101   2.813   0.329 -2.2663  4.5296 -1.5209
18840SOL     OW58451   4.483   3.985   8.085  0.6664  0.2675  0.4965
18840SOL    HW158452   4.405   4.040   8.090  1.2243  0.9728  1.8816
18840SOL    HW258453   4.556   4.047   8.075  1.0531 -0.3947 -1.3045
18841SOL     OW58454   6.049   6.541   7.167  0.0575  0.4874  0.3099
18841SOL    HW158455   6.022   6.457   7.131 -1.3280  0.5694  1.1072
18841SOL    HW258456   6.113   6.518   7.234 -1.0592 -0.0282  1.2251
18842SOL     OW58457   2.012   3.603   2.305 -0.0454 -0.0187  0.2014
18842SOL    HW158458   2.095   3.589   2.260 -0.8561 -2.2767 -0.7376
18842SOL    HW258459   1.971   3.675   2.256  0.8063  0.2746 -0.1014
18843SOL     OW58460   2.177   4.762   6.631 -0.1884 -0.2710 -0.5046
18843SOL    HW158461   2.225   4.715   6.563 -0.0848  0.4183 -0.9223
18843SOL    HW258462   2.088   4.770   6.597  0.1262  1.0598 -1.0939
18844SOL     OW58463   0.967   2.130   4.736  0.2799 -0.0706 -0.5954
18844SOL    HW158464   0.937   2.040   4.729 -0.7360  0.2198 -0.0475
18844SOL    HW258465   1.036   2.137   4.670  2.7434 -2.1749  1.5315
18845SOL     OW58466   0.719   2.970   1.067  0.7767 -0.8237 -0.9063
18845SOL    HW158467   0.650   3.027   1.103 -0.0760 -1.0290 -2.1281
18845SOL    HW258468   0.731   2.902   1.133  0.0465 -0.5812 -0.5092
18846SOL     OW58469   0.225   0.370   7.130  0.3112  0.3715 -0.0584
18846SOL    HW158470   0.222   0.416   7.046 -0.0660  1.7229  0.6681
18846SOL    HW258471   0.269   0.431   7.189  0.4239 -0.4934  0.7774
18847SOL     OW58472   7.975   8.686   7.293 -0.0087 -0.1625  0.1022
18847SOL    HW158473   8.038   8.675   7.364  1.4275  0.7101 -0.9767
18847SOL    HW258474   8.016   8.749   7.234 -0.9919 -1.1026 -1.6714
18848SOL     OW58475   6.100   8.828   1.025 -0.0012 -0.5145  0.5436
18848SOL    HW158476   6.133   8.741   1.003 -0.7201 -0.1450 -2.4176
18848SOL    HW258477   6.005   8.821   1.015 -0.0557  0.6602  0.0698
18849SOL     OW58478   5.487   8.032   6.004  0.1655  0.1772 -0.3198
18849SOL    HW158479   5.465   8.013   6.095  0.9415 -0.4514 -0.2533
18849SOL    HW258480   5.583   8.028   6.001  0.1482  0.2618 -1.1491
18850SOL     OW58481   1.571   7.010   0.116 -0.1598 -0.6016  0.1829
18850SOL    HW158482   1.639   7.077   0.111  0.6512 -1.1950  2.3095
18850SOL    HW258483   1.602   6.940   0.059 -1.3000  0.9223 -2.5610
18851SOL     OW58484   0.011   0.021   5.174  0.0222  0.1900  0.4225
18851SOL    HW158485   0.085   0.082   5.175 -0.9827  1.4775 -0.2443
18851SOL    HW258486   0.012  -0.020   5.261  2.5250 -1.1469 -0.1368
18852SOL     OW58487   2.028   4.730   6.284  0.1235 -0.0213 -0.3676
18852SOL    HW158488   1.964   4.793   6.319  1.0272  0.6502  0.1299
18852SOL    HW258489   2.000   4.714   6.194 -1.2848 -0.4720  0.1269
18853SOL     OW58490   6.903   7.019   0.655  0.1880 -0.3813 -0.1428
18853SOL    HW158491   6.981   6.987   0.701  0.4803 -2.1327 -1.7285
18853SOL    HW258492   6.922   7.003   0.562 -1.1268  1.3315 -0.7498
18854SOL     OW58493   8.228   0.572   6.438 -0.4624 -0.2365  0.1494
18854SOL    HW158494   8.177   0.624   6.376  1.5204  2.5156  0.6205
18854SOL    HW258495   8.164   0.545   6.504 -2.2912 -1.8316 -2.1344
18855SOL     OW58496   7.094   7.905   7.822 -0.3747  0.1339 -0.0492
18855SOL    HW158497   7.152   7.950   7.760 -1.4328  0.3881 -0.8912
18855SOL    HW258498   7.100   7.957   7.902  0.3331  0.3144 -0.2068
18856SOL     OW58499   6.890   1.104   2.320 -0.1880 -0.0445  0.0110
18856SOL    HW158500   6.835   1.030   2.297  0.8264 -0.7435 -0.2277
18856SOL    HW258501   6.938   1.076   2.397 -2.3768  1.6901  2.1751
18857SOL     OW58502   0.288   4.630   8.828 -0.0130 -0.2443  0.3686
18857SOL    HW158503   0.202   4.589   8.837 -1.2859  1.9741 -0.7999
18857SOL    HW258504   0.289   4.699   8.894  0.4830  0.3538 -0.2479
18858SOL     OW58505   3.223   5.834   5.849  0.3307  0.3403 -0.0813
18858SOL    HW158506   3.305   5.820   5.896 -0.0132 -0.0992  0.4048
18858SOL    HW258507   3.223   5.768   5.780 -0.9581 -1.7383  1.7650
18859SOL     OW58508   4.018   2.337   0.196 -0.7292 -0.7650  0.5441
18859SOL    HW158509   3.966   2.329   0.276 -0.5068 -0.2006  0.7499
18859SOL    HW258510   3.953   2.350   0.126 -0.8666  0.2706  0.8432
18860SOL     OW58511   3.947   3.076   7.906  0.0911  0.3211  0.4170
18860SOL    HW158512   3.896   2.995   7.912  0.4306  0.1007  0.3423
18860SOL    HW258513   3.938   3.116   7.993 -0.0826  0.2086  0.4515
18861SOL     OW58514   4.788   5.219   1.526  0.1728 -0.9048 -0.0089
18861SOL    HW158515   4.715   5.234   1.466 -0.3456 -1.8545  0.3582
18861SOL    HW258516   4.846   5.294   1.513 -1.1164  0.1300  0.0624
18862SOL     OW58517   8.055   1.674   4.074  0.1252  0.2644  0.5365
18862SOL    HW158518   8.150   1.682   4.080  0.5686 -0.2701 -3.2709
18862SOL    HW258519   8.039   1.581   4.058 -0.9402  0.4940  0.1662
18863SOL     OW58520   4.661   5.479   6.705  0.2941  0.0559 -0.1364
18863SOL    HW158521   4.673   5.393   6.665 -0.0758  0.4336 -1.0857
18863SOL    HW258522   4.614   5.462   6.787 -1.6190 -0.4790 -1.2990
18864SOL     OW58523   4.964   8.285   0.515  0.1065  0.6317  0.3742
18864SOL    HW158524   5.040   8.235   0.486 -1.5955 -1.6151 -0.5127
18864SOL    HW258525   4.891   8.251   0.463 -2.5290 -1.1249  4.6514
18865SOL     OW58526   1.354   0.180   7.580 -0.1365 -0.7754  0.0089
18865SOL    HW158527   1.263   0.188   7.551  0.0251  0.8139 -0.1508
18865SOL    HW258528   1.404   0.163   7.500 -0.0473  0.6135 -0.2553
18866SOL     OW58529   4.771   4.139   0.045 -0.3934  0.7698 -0.2719
18866SOL    HW158530   4.770   4.190  -0.035  1.0499 -0.0905 -0.8913
18866SOL    HW258531   4.863   4.140   0.073 -0.1689 -1.9138 -0.6457
18867SOL     OW58532   1.718   3.385   5.441 -0.0273  1.0129 -0.1195
18867SOL    HW158533   1.662   3.317   5.477 -0.4623  1.3967 -0.0549
18867SOL    HW258534   1.790   3.338   5.399 -0.5749  0.4939 -0.5006
18868SOL     OW58535   7.082   5.274   7.523  0.6959  0.1293  1.0460
18868SOL    HW158536   7.154   5.228   7.481  1.2861  1.5889  0.4034
18868SOL    HW258537   7.016   5.284   7.454  0.1874 -0.5095  1.4221
18869SOL     OW58538   3.872   5.922   5.673 -0.8996 -0.1059 -0.6247
18869SOL    HW158539   3.935   5.893   5.608 -1.5363  0.2557 -1.4148
18869SOL    HW258540   3.906   5.889   5.756  0.7044  0.6860 -0.9246
18870SOL     OW58541   0.209   2.085   8.850  0.9856  0.6304  0.3234
18870SOL    HW158542   0.251   2.000   8.834 -1.6546 -0.4503 -1.6870
18870SOL    HW258543   0.237   2.109   8.939  0.4033 -3.3042  1.8072
18871SOL     OW58544   7.931   1.585   5.024  0.3216 -0.2615 -0.6238
18871SOL    HW158545   7.858   1.528   5.000 -0.9267  0.7097  0.7038
18871SOL    HW258546   7.988   1.529   5.078 -1.6207  0.0207  1.8987
18872SOL     OW58547   4.564   4.663   8.438  0.3433 -0.4223 -0.5991
18872SOL    HW158548   4.559   4.662   8.534 -0.6960 -2.7234 -0.6161
18872SOL    HW258549   4.657   4.678   8.419  0.2084  2.7157  0.6553
18873SOL     OW58550   4.236   1.484   7.766 -0.2083  0.2326 -0.0885
18873SOL    HW158551   4.151   1.518   7.737 -0.3443  0.7697  0.8622
18873SOL    HW258552   4.213   1.412   7.826  0.0274 -0.1328 -0.4404
18874SOL     OW58553   1.858   5.318   3.625  0.0802  0.1621 -0.6291
18874SOL    HW158554   1.828   5.231   3.652 -0.4544  0.0177 -1.6342
18874SOL    HW258555   1.889   5.306   3.535  0.9449  0.8108 -0.4338
18875SOL     OW58556   5.848   0.578   0.942  0.4061  0.2329 -0.2486
18875SOL    HW158557   5.938   0.609   0.951  0.5774  0.1655 -1.5462
18875SOL    HW258558   5.795   0.653   0.969  0.8405  1.1353 -1.7315
18876SOL     OW58559   8.203   7.099   1.110 -0.3047  0.4548  0.9747
18876SOL    HW158560   8.171   7.021   1.155  0.3576  0.8659  2.2074
18876SOL    HW258561   8.290   7.114   1.148  0.1587  0.9799 -0.2630
18877SOL     OW58562   8.704   4.179   5.347  0.0723 -0.5146 -0.2101
18877SOL    HW158563   8.707   4.089   5.379 -0.1054 -0.2478  0.5809
18877SOL    HW258564   8.615   4.208   5.363  0.3003  0.0127  0.1591
18878SOL     OW58565   6.924   6.117   2.060  0.2499  0.1251  0.0165
18878SOL    HW158566   6.937   6.086   2.150 -0.2633 -1.0449 -0.2978
18878SOL    HW258567   6.841   6.166   2.064  0.1389 -0.0721  0.1419
18879SOL     OW58568   3.068   4.323   6.226  0.1970  0.3963 -0.3821
18879SOL    HW158569   3.156   4.298   6.201  0.0280 -1.4241  0.6592
18879SOL    HW258570   3.079   4.401   6.281  1.1453  0.1718 -0.2459
18880SOL     OW58571   2.501   1.629   5.253 -0.4221  0.4361 -0.0840
18880SOL    HW158572   2.500   1.609   5.347  0.6163 -1.1276 -0.3794
18880SOL    HW258573   2.411   1.658   5.234 -1.1516 -0.9740  1.0401
18881SOL     OW58574   8.112   4.552   3.087  0.0377  0.2447  0.1628
18881SOL    HW158575   8.072   4.468   3.063  0.9599  0.4832 -2.5595
18881SOL    HW258576   8.203   4.544   3.060  0.1545  2.0776 -0.1059
18882SOL     OW58577   3.388   7.282   3.871  0.0746  0.2400  0.4417
18882SOL    HW158578   3.349   7.266   3.957 -0.4219 -0.6958  0.0631
18882SOL    HW258579   3.442   7.361   3.882  0.7197 -0.3686  1.8325
18883SOL     OW58580   5.449   7.323   4.804 -0.1246 -0.2116 -0.3488
18883SOL    HW158581   5.496   7.390   4.855  0.8273 -0.7414 -0.5005
18883SOL    HW258582   5.470   7.241   4.848  1.5357 -0.8166 -2.1165
18884SOL     OW58583   1.043   7.003   6.773 -0.5579 -0.1995 -0.3355
18884SOL    HW158584   1.131   6.997   6.809  1.0886  0.5733 -3.7795
18884SOL    HW258585   1.017   7.094   6.788 -0.6553 -0.3380  0.3779
18885SOL     OW58586   6.497   3.069   5.507 -0.3737  0.4759  0.4961
18885SOL    HW158587   6.432   3.114   5.562 -0.6103 -1.4590  1.9144
18885SOL    HW258588   6.548   3.016   5.568 -1.3111 -2.6019 -1.1592
18886SOL     OW58589   0.675   2.138   0.461  0.1266 -0.4163 -0.4470
18886SOL    HW158590   0.652   2.077   0.391 -0.7863  0.0972 -0.6031
18886SOL    HW258591   0.728   2.205   0.417  0.8036 -0.8816 -0.3503
18887SOL     OW58592   5.417   7.493   4.529 -0.6402  0.3811 -0.0968
18887SOL    HW158593   5.432   7.475   4.436 -1.2889  0.7278 -0.2760
18887SOL    HW258594   5.490   7.548   4.555  0.0369 -0.4696 -0.1689
18888SOL     OW58595   4.616   2.235   7.485  0.0209  0.1949  0.2019
18888SOL    HW158596   4.640   2.228   7.577 -3.7491  0.6168  1.3952
18888SOL    HW258597   4.589   2.146   7.460 -3.9280  0.8860  1.2838
18889SOL     OW58598   5.905   8.419   7.425 -0.1243  0.1522  0.1004
18889SOL    HW158599   5.842   8.391   7.358  2.8148 -2.9709 -1.6108
18889SOL    HW258600   5.910   8.514   7.414 -3.8083  0.4615 -0.2027
18890SOL     OW58601   6.201   8.338   0.323 -0.2480  0.4723  0.0573
18890SOL    HW158602   6.163   8.284   0.392  0.3330  0.8699  0.6963
18890SOL    HW258603   6.276   8.288   0.292  1.2700  1.6071  1.7678
18891SOL     OW58604   2.167   3.192   5.396  0.2372 -0.3153 -0.6930
18891SOL    HW158605   2.211   3.213   5.479  1.0190 -1.7012 -0.7151
18891SOL    HW258606   2.239   3.174   5.336 -0.2216  2.8433 -2.3679
18892SOL     OW58607   3.927   7.809   2.912 -0.3514 -0.2069 -0.1219
18892SOL    HW158608   3.897   7.720   2.928 -0.4551 -0.3913 -1.2741
18892SOL    HW258609   4.005   7.819   2.967 -0.1487 -1.1210 -0.2364
18893SOL     OW58610   5.329   8.725   5.218  0.1963 -0.9438  0.3608
18893SOL    HW158611   5.419   8.700   5.199  0.6070  0.4418  0.3469
18893SOL    HW258612   5.330   8.821   5.219 -1.5199 -0.8665 -0.8116
18894SOL     OW58613   4.271   8.777   2.996 -0.1434  0.1420 -0.0913
18894SOL    HW158614   4.327   8.746   2.925  1.6028 -1.1725  1.7274
18894SOL    HW258615   4.186   8.737   2.979 -0.4418  1.5743 -2.5178
18895SOL     OW58616   7.321   6.174   0.306  0.0781 -0.0859 -0.0833
18895SOL    HW158617   7.326   6.081   0.330  0.7361  0.3285  1.4799
18895SOL    HW258618   7.409   6.196   0.276 -0.4626 -0.3201 -1.9836
18896SOL     OW58619   2.617   8.116   8.436 -0.0584  0.2640  0.2592
18896SOL    HW158620   2.648   8.206   8.430 -0.9973  0.5677 -0.2033
18896SOL    HW258621   2.607   8.087   8.345  0.4524 -0.3833  0.4018
18897SOL     OW58622   5.986   8.472   1.854 -0.0152 -0.1720  0.0842
18897SOL    HW158623   5.901   8.428   1.865  0.2456 -0.4987  0.8634
18897SOL    HW258624   5.975   8.525   1.775 -1.1204  0.1917  0.4589
18898SOL     OW58625   7.788   3.815   7.530  0.6926 -0.5515 -0.3644
18898SOL    HW158626   7.719   3.822   7.596  0.6162  1.1270 -0.5825
18898SOL    HW258627   7.761   3.742   7.474  0.0377 -1.0778  0.6077
18899SOL     OW58628   8.686   8.148   7.733 -0.0498  0.1875 -0.1757
18899SOL    HW158629   8.720   8.108   7.653  0.9043 -0.8244  0.6962
18899SOL    HW258630   8.629   8.081   7.771 -1.1537  0.9710 -0.4015
18900SOL     OW58631   8.126   1.567   7.067 -0.3263 -0.2009 -0.0157
18900SOL    HW158632   8.105   1.657   7.090 -3.0192 -0.8372  0.3553
18900SOL    HW258633   8.220   1.568   7.048 -0.1142  2.4730  0.8110
18901SOL     OW58634   5.343   1.689   2.582 -0.1861 -0.4326 -0.2984
18901SOL    HW158635   5.436   1.691   2.562 -0.0750 -0.1697  0.2247
18901SOL    HW258636   5.315   1.780   2.579 -0.4990 -0.5442 -0.7848
18902SOL     OW58637   6.725   2.769   5.074 -0.5246 -0.3390  0.5111
18902SOL    HW158638   6.688   2.714   5.005 -0.0903  0.0099 -0.0046
18902SOL    HW258639   6.665   2.758   5.148 -0.4741 -1.4760  0.4058
18903SOL     OW58640   2.594   0.956   8.161  0.3200  0.4895  0.7925
18903SOL    HW158641   2.500   0.938   8.161  0.2986  0.4796 -0.5714
18903SOL    HW258642   2.628   0.904   8.233 -0.4525 -1.0821  0.0879
18904SOL     OW58643   1.526   2.956   2.227 -0.7052  0.3745  0.1217
18904SOL    HW158644   1.534   2.890   2.296  0.1919  0.0835 -0.2512
18904SOL    HW258645   1.571   2.919   2.152 -1.3223  0.8670 -0.5116
18905SOL     OW58646   8.159   2.727   5.119 -0.0655 -0.5329 -0.8702
18905SOL    HW158647   8.110   2.723   5.201 -1.4847  0.5129 -1.6147
18905SOL    HW258648   8.213   2.648   5.119 -0.6444 -0.9681  0.6812
18906SOL     OW58649   7.939   4.308   4.185  0.0398  0.1533  0.1709
18906SOL    HW158650   7.899   4.377   4.239  0.0832  1.2817 -1.1777
18906SOL    HW258651   7.865   4.257   4.152 -0.3489  1.8169 -1.7614
18907SOL     OW58652   0.065   8.003   3.929  0.5728 -0.3076 -0.2535
18907SOL    HW158653   0.098   8.000   4.018 -3.6941 -2.9431  1.6082
18907SOL    HW258654   0.041   8.094   3.914  2.4226  0.3810  0.7887
18908SOL     OW58655   1.342   8.368   8.803  0.9708 -0.5768 -0.3899
18908SOL    HW158656   1.338   8.375   8.898  2.8519  0.5025 -0.3388
18908SOL    HW258657   1.393   8.289   8.787  0.2460 -1.0282 -0.5411
18909SOL     OW58658   2.930   3.180   4.817 -0.3248  0.2451  0.0072
18909SOL    HW158659   2.967   3.147   4.735  0.2358  0.6343  0.1011
18909SOL    HW258660   2.988   3.147   4.885 -0.1138  0.9118  0.1513
18910SOL     OW58661   3.480   6.970   3.378 -0.5639 -0.3974  0.8391
18910SOL    HW158662   3.567   6.929   3.383  0.2491  0.9423 -1.1140
18910SOL    HW258663   3.496   7.061   3.403 -1.1604  0.1446 -0.6860
18911SOL     OW58664   7.414   6.060   1.601  0.4913 -0.0775 -0.4649
18911SOL    HW158665   7.329   6.016   1.595  1.1760 -1.5142 -0.1636
18911SOL    HW258666   7.396   6.142   1.646 -0.4989 -1.1573  1.2144
18912SOL     OW58667   3.625   6.401   0.093 -0.4991 -0.0720  0.1207
18912SOL    HW158668   3.569   6.344   0.146  0.1894 -0.6860  0.2122
18912SOL    HW258669   3.653   6.346   0.020 -1.0853  0.6388 -0.6645
18913SOL     OW58670   4.073   6.772   0.221 -0.3304 -0.0933  0.4416
18913SOL    HW158671   4.006   6.709   0.196 -0.4917 -0.1632  1.0343
18913SOL    HW258672   4.035   6.821   0.294 -0.0274  0.3752  0.2910
18914SOL     OW58673   2.897   6.156   0.002  0.5374  0.2237 -0.2577
18914SOL    HW158674   2.894   6.062  -0.013 -1.1366 -0.0401  1.3422
18914SOL    HW258675   2.834   6.192  -0.060  0.1032  0.1266  0.1271
18915SOL     OW58676   6.903   0.053   6.538 -0.0555 -0.3967  0.4565
18915SOL    HW158677   6.832   0.091   6.589 -0.7499 -0.2603 -0.5638
18915SOL    HW258678   6.926  -0.028   6.584 -0.5914 -0.2351  1.0224
18916SOL     OW58679   5.416   4.727   0.061  0.0870 -0.2541  0.7199
18916SOL    HW158680   5.452   4.693  -0.021  0.2723  0.7995  0.3454
18916SOL    HW258681   5.479   4.702   0.128 -0.1492 -1.2657  0.5779
18917SOL     OW58682   6.243   2.073   3.905  0.3737 -0.3261  0.2363
18917SOL    HW158683   6.180   2.073   3.833  1.3331  0.7261 -0.6420
18917SOL    HW258684   6.214   2.145   3.962  0.0945 -0.6201  0.4675
18918SOL     OW58685   6.114   0.462   7.851 -0.4400  0.1484  0.8787
18918SOL    HW158686   6.052   0.430   7.916  1.6564 -1.4814  2.1737
18918SOL    HW258687   6.161   0.384   7.821  0.9714  1.3032 -0.0864
18919SOL     OW58688   2.674   3.176   1.178 -0.0011 -0.1474  0.9118
18919SOL    HW158689   2.656   3.235   1.105  1.2084 -0.9196 -0.0609
18919SOL    HW258690   2.628   3.095   1.155  1.2095 -0.7370  0.4601
18920SOL     OW58691   5.483   1.172   1.529  0.5090 -0.2572  0.0351
18920SOL    HW158692   5.423   1.144   1.460  0.4803  0.9036 -0.4272
18920SOL    HW258693   5.560   1.204   1.482  0.8946 -0.3737  0.5808
18921SOL     OW58694   8.528   1.937   3.903  0.1460  0.5657  0.2076
18921SOL    HW158695   8.453   1.997   3.894 -0.6905 -0.4445  0.1816
18921SOL    HW258696   8.579   1.950   3.824  0.1761  1.4970  0.3646
18922SOL     OW58697   7.131   8.090   6.435 -0.3198  0.1855  0.2261
18922SOL    HW158698   7.095   8.077   6.523  1.0125  1.8910  1.0840
18922SOL    HW258699   7.065   8.143   6.390 -0.2081  0.8460  0.8200
18923SOL     OW58700   4.653   0.935   0.901 -0.0342 -0.0895  0.4029
18923SOL    HW158701   4.617   0.966   0.818  1.0583  0.5565  0.1622
18923SOL    HW258702   4.733   0.888   0.877 -0.4601 -1.1549  0.9730
18924SOL     OW58703   8.435   2.649   1.067  0.2981  0.6565 -0.1344
18924SOL    HW158704   8.509   2.624   1.122  0.3729 -0.8279 -0.8491
18924SOL    HW258705   8.358   2.637   1.123  0.4541  0.1995 -0.0100
18925SOL     OW58706   6.467   0.641   5.953 -0.4172 -0.4250 -0.2219
18925SOL    HW158707   6.520   0.690   5.891 -0.2919  1.2511  1.1340
18925SOL    HW258708   6.400   0.703   5.982  0.1010 -0.8166  2.0066
18926SOL     OW58709   8.177   7.237   3.298  1.0977  0.5742  0.5201
18926SOL    HW158710   8.159   7.196   3.213  1.4086  0.6273  0.4269
18926SOL    HW258711   8.110   7.202   3.356  0.2620  1.3114  0.0159
18927SOL     OW58712   5.330   3.169   1.664 -0.0511 -0.0055 -0.3476
18927SOL    HW158713   5.260   3.143   1.603  0.9088 -0.3973 -1.3079
18927SOL    HW258714   5.403   3.194   1.608  0.2276  1.4660  0.6311
18928SOL     OW58715   0.416   3.621   4.806 -0.4110 -0.4177  0.0794
18928SOL    HW158716   0.470   3.618   4.885  0.4418  1.0353 -0.4081
18928SOL    HW258717   0.338   3.569   4.828  0.2982 -0.9359  1.4800
18929SOL     OW58718   7.516   1.182   4.634  0.2152 -0.2877  0.5076
18929SOL    HW158719   7.544   1.129   4.559  0.4214 -0.3790  0.6486
18929SOL    HW258720   7.515   1.120   4.708  2.0005  0.2315  1.0226
18930SOL     OW58721   2.168   2.990   1.052  0.2029 -0.6356  0.1312
18930SOL    HW158722   2.098   2.969   1.114  0.9121  2.3095  2.1464
18930SOL    HW258723   2.245   2.947   1.087  0.3480  0.0192  0.6335
18931SOL     OW58724   4.037   8.100   2.233 -0.6020  0.7334 -0.2189
18931SOL    HW158725   3.957   8.114   2.182 -0.4902  1.0115 -0.3177
18931SOL    HW258726   4.015   8.130   2.321 -1.0075 -0.3487  0.0724
18932SOL     OW58727   5.806   8.027   7.770  0.1641 -0.3459  0.0563
18932SOL    HW158728   5.785   8.107   7.724  2.0578  0.4467  0.4838
18932SOL    HW258729   5.902   8.021   7.768  0.0889 -2.7651 -0.2405
18933SOL     OW58730   2.551   7.643   7.569 -0.4890  0.7474  0.3806
18933SOL    HW158731   2.636   7.598   7.570 -0.8870 -0.0115  1.2455
18933SOL    HW258732   2.487   7.572   7.565 -1.0957  1.3097 -0.0786
18934SOL     OW58733   1.538   3.630   7.383  0.4531  0.7979  0.0533
18934SOL    HW158734   1.522   3.721   7.359 -0.5628  0.6799  0.2157
18934SOL    HW258735   1.461   3.605   7.434  0.6833 -0.1757 -0.0530
18935SOL     OW58736   7.526   6.817   7.390  0.2091  0.0226 -0.0081
18935SOL    HW158737   7.596   6.766   7.430  0.6222  0.2411 -0.4377
18935SOL    HW258738   7.556   6.832   7.300 -0.1599  0.5338 -0.0501
18936SOL     OW58739   7.335   7.540   1.761 -0.1005  0.5867 -0.2189
18936SOL    HW158740   7.410   7.488   1.791 -0.6629 -1.4120 -2.0415
18936SOL    HW258741   7.263   7.515   1.819 -0.3514 -0.7086 -1.0423
18937SOL     OW58742   6.492   5.277   3.906 -0.2410  0.0865 -0.5610
18937SOL    HW158743   6.452   5.207   3.956 -0.6547 -0.3991 -1.5489
18937SOL    HW258744   6.419   5.320   3.861  0.0131  1.0987 -0.0559
18938SOL     OW58745   3.540   5.250   3.704 -0.1582  0.1354  0.2936
18938SOL    HW158746   3.482   5.286   3.637  0.3538 -0.6321 -0.5856
18938SOL    HW258747   3.509   5.160   3.716  0.8840 -0.3115 -0.2461
18939SOL     OW58748   1.349   4.226   5.639 -0.5377 -0.4938 -0.9453
18939SOL    HW158749   1.318   4.192   5.555  0.3232  0.2290 -1.5720
18939SOL    HW258750   1.419   4.167   5.665 -1.4728 -1.3024 -0.2288
18940SOL     OW58751   6.516   2.100   5.174  0.0300  0.7395  0.0868
18940SOL    HW158752   6.506   2.023   5.230 -0.9577  0.5688 -0.3128
18940SOL    HW258753   6.453   2.163   5.209  1.4232  1.7235  0.9622
18941SOL     OW58754   8.251   1.525   5.399  0.1996 -0.7467 -0.3408
18941SOL    HW158755   8.220   1.497   5.485 -1.1943  0.9362 -0.2466
18941SOL    HW258756   8.265   1.619   5.407  0.6934 -0.6568 -1.7851
18942SOL     OW58757   4.441   1.108   7.909  0.4786 -0.5731  0.1478
18942SOL    HW158758   4.473   1.021   7.886  2.9205 -0.5500  2.8650
18942SOL    HW258759   4.446   1.158   7.827 -1.4679 -3.0174 -1.5933
18943SOL     OW58760   4.584   2.329   8.759  0.2692  0.1924 -0.1366
18943SOL    HW158761   4.596   2.402   8.819 -0.6113  0.0096  0.2625
18943SOL    HW258762   4.497   2.296   8.777 -1.5512  2.2915 -3.8310
18944SOL     OW58763   4.825   1.741   0.598 -0.0063  0.0550 -0.0248
18944SOL    HW158764   4.903   1.736   0.653 -0.9678 -1.3078  1.2980
18944SOL    HW258765   4.753   1.749   0.660 -0.9039  2.0755 -1.2438
18945SOL     OW58766   5.670   8.144   6.680 -0.1970  0.6933  0.2486
18945SOL    HW158767   5.654   8.174   6.770 -0.8139  1.0415  0.0318
18945SOL    HW258768   5.720   8.215   6.640 -0.1617  0.6600  0.2336
18946SOL     OW58769   2.224   8.402   7.585  0.4246  0.9182  0.0411
18946SOL    HW158770   2.317   8.420   7.570  0.4618  2.0833  1.4493
18946SOL    HW258771   2.209   8.318   7.541  2.3686  0.2314  0.5548
18947SOL     OW58772   8.289   5.226   0.617 -0.2994  0.2521  0.1652
18947SOL    HW158773   8.310   5.132   0.618  0.0304  0.3123 -0.4206
18947SOL    HW258774   8.223   5.235   0.549 -1.2080  0.2785  1.0391
18948SOL     OW58775   2.901   8.449   3.974 -0.1310  0.1997  0.2419
18948SOL    HW158776   2.811   8.415   3.981 -0.5056  1.2009  0.5228
18948SOL    HW258777   2.906   8.515   4.043  0.4651  0.9205 -0.4771
18949SOL     OW58778   0.556   7.879   5.743  0.2477 -0.0441 -0.7213
18949SOL    HW158779   0.638   7.829   5.743  0.3841  0.1701 -1.1102
18949SOL    HW258780   0.577   7.958   5.794  0.1555 -0.1920 -0.4552
18950SOL     OW58781   3.326   4.975   0.932 -0.3046 -0.0673 -0.3530
18950SOL    HW158782   3.284   5.061   0.939 -1.3187 -0.5060 -0.8749
18950SOL    HW258783   3.322   4.939   1.021 -2.5219 -0.7610 -0.6781
18951SOL     OW58784   0.290   2.153   2.913  0.5682  0.3170  0.4300
18951SOL    HW158785   0.201   2.185   2.928  0.8418  1.5301 -0.3973
18951SOL    HW258786   0.281   2.083   2.848  0.3957  1.9576 -1.4085
18952SOL     OW58787   3.009   5.764   7.661  0.0059  0.4101 -0.4362
18952SOL    HW158788   2.932   5.717   7.628 -0.8589  0.9448  0.7390
18952SOL    HW258789   3.068   5.696   7.692 -0.5199  0.0311 -0.2548
18953SOL     OW58790   2.802   8.299   6.537 -0.4628  0.0177  0.4443
18953SOL    HW158791   2.742   8.287   6.464 -0.0243  0.7060 -0.0410
18953SOL    HW258792   2.771   8.237   6.604 -1.5679  0.2044  0.1262
18954SOL     OW58793   8.597   5.455   6.943 -0.0874 -0.0809 -0.3131
18954SOL    HW158794   8.642   5.539   6.932  1.7370 -0.7752  1.2682
18954SOL    HW258795   8.614   5.408   6.861 -0.7851  0.9005 -1.0520
18955SOL     OW58796   1.021   5.435   7.308 -0.0808 -0.1225 -0.4529
18955SOL    HW158797   1.071   5.474   7.380  0.5465 -0.7312 -0.5506
18955SOL    HW258798   1.040   5.342   7.313 -1.0784 -0.3534 -0.6041
18956SOL     OW58799   6.981   1.648   5.462  0.2589 -0.1702 -0.5848
18956SOL    HW158800   6.966   1.604   5.546 -1.4948 -0.7346 -1.1305
18956SOL    HW258801   7.041   1.719   5.482 -1.5579  0.9012  1.5887
18957SOL     OW58802   1.997   4.469   2.510 -0.4450  0.6794  1.0016
18957SOL    HW158803   1.998   4.400   2.576 -0.4640  0.4484  0.7616
18957SOL    HW258804   1.980   4.423   2.428  0.5750  0.8469  0.6920
18958SOL     OW58805   2.385   0.841   4.640  0.4008 -0.4704  0.2777
18958SOL    HW158806   2.306   0.792   4.618  0.1615 -0.4897  1.1594
18958SOL    HW258807   2.353   0.924   4.674  0.7180 -0.9122  1.6921
18959SOL     OW58808   6.070   2.333   1.810 -0.0939 -0.8297  0.4852
18959SOL    HW158809   6.117   2.417   1.808 -0.0600 -0.8279 -1.8312
18959SOL    HW258810   5.978   2.356   1.811 -0.0798 -0.7660  0.3138
18960SOL     OW58811   2.584   0.002   6.823 -0.1724 -0.1727 -0.2579
18960SOL    HW158812   2.677  -0.020   6.828 -0.2910 -0.4649  1.0202
18960SOL    HW258813   2.582   0.098   6.817  0.2877 -0.2513 -4.1844
18961SOL     OW58814   6.285   6.012   5.464  0.3258  0.1909  0.2346
18961SOL    HW158815   6.311   5.935   5.414  0.4943  1.0460 -1.0379
18961SOL    HW258816   6.336   6.006   5.545  0.4430 -0.9437  0.0863
18962SOL     OW58817   3.657   1.454   6.516 -0.0186  0.2662  0.4517
18962SOL    HW158818   3.597   1.525   6.492  0.4609  1.0688  1.5614
18962SOL    HW258819   3.600   1.378   6.530 -0.4151 -0.0380 -2.2465
18963SOL     OW58820   0.989   5.535   1.716 -0.1243 -0.3593 -0.7111
18963SOL    HW158821   0.997   5.587   1.636  2.1707 -2.1060 -1.7166
18963SOL    HW258822   0.915   5.477   1.700 -1.0923  0.7925 -0.5992
18964SOL     OW58823   7.454   4.185   7.823  0.0009  0.5674  0.1717
18964SOL    HW158824   7.376   4.239   7.806 -1.4913 -0.7375  2.2964
18964SOL    HW258825   7.514   4.245   7.868 -0.8844  0.9605  0.8816
18965SOL     OW58826   7.031   6.294   0.989 -0.1256 -0.3683  0.5254
18965SOL    HW158827   7.067   6.270   1.075  2.5439  0.7650 -0.1498
18965SOL    HW258828   7.041   6.389   0.986 -2.3894 -0.1202 -0.1697
18966SOL     OW58829   3.632   1.905   8.847  0.3408 -0.1915  0.1870
18966SOL    HW158830   3.709   1.923   8.900 -1.1542  0.5327  2.2296
18966SOL    HW258831   3.612   1.813   8.864  1.6318 -0.8727 -1.6443
18967SOL     OW58832   0.873   6.045   6.456 -0.0285  0.7415  0.2013
18967SOL    HW158833   0.825   6.085   6.529 -0.1666 -0.3190  0.7088
18967SOL    HW258834   0.804   6.008   6.400  0.1585 -0.3138  0.6532
18968SOL     OW58835   8.623   7.474   4.189 -0.0894  0.1245 -0.0130
18968SOL    HW158836   8.674   7.413   4.242 -0.8352 -0.5813 -0.0999
18968SOL    HW258837   8.562   7.419   4.140 -0.2536  0.8701 -0.6731
18969SOL     OW58838   4.284   0.724   8.299 -0.0124  0.0817 -0.1781
18969SOL    HW158839   4.331   0.806   8.313  0.0545 -0.2069  1.5129
18969SOL    HW258840   4.353   0.658   8.295 -0.1718 -0.2314  1.4276
18970SOL     OW58841   0.629   0.196   8.834  0.1215  0.5865  0.5610
18970SOL    HW158842   0.606   0.288   8.845  0.3120  0.7456 -0.2721
18970SOL    HW258843   0.717   0.198   8.797 -0.6340  0.1512 -1.3946
18971SOL     OW58844   2.961   0.654   3.715 -0.2471 -0.0830 -0.4413
18971SOL    HW158845   2.983   0.722   3.779 -1.4358 -0.0150 -0.0827
18971SOL    HW258846   3.021   0.582   3.734  2.1167  1.3833 -1.8105
18972SOL     OW58847   6.576   6.846   3.115 -0.2361 -0.1927  0.3972
18972SOL    HW158848   6.489   6.808   3.128  0.0058 -0.4536  1.3523
18972SOL    HW258849   6.635   6.788   3.164  0.4545  0.0948 -0.0717
18973SOL     OW58850   0.681   1.917   0.258  0.4750  0.4970 -0.1227
18973SOL    HW158851   0.689   1.994   0.201 -1.3817  0.7157 -0.1391
18973SOL    HW258852   0.746   1.856   0.224 -0.1637  0.8523 -2.1311
18974SOL     OW58853   5.290   3.268   6.696 -0.3402  0.7429 -0.2774
18974SOL    HW158854   5.277   3.173   6.696  2.5885  0.1883 -2.4732
18974SOL    HW258855   5.224   3.302   6.636 -0.5019 -0.0906 -0.5840
18975SOL     OW58856   1.406   5.726   4.587  0.2972  0.5451  0.2840
18975SOL    HW158857   1.369   5.660   4.645  0.9811 -0.0191  0.0953
18975SOL    HW258858   1.334   5.751   4.530  0.6390 -1.9467 -1.3754
18976SOL     OW58859   4.442   3.451   8.455 -0.1435 -0.0692 -0.8480
18976SOL    HW158860   4.412   3.362   8.476 -0.9382  0.7392  1.7899
18976SOL    HW258861   4.430   3.458   8.360 -1.4627 -2.2708 -0.9219
18977SOL     OW58862   2.132   1.204   1.215  0.3740  0.6193  0.3265
18977SOL    HW158863   2.074   1.230   1.143  1.3405 -0.4642 -0.8966
18977SOL    HW258864   2.200   1.272   1.217  0.7300  0.2915 -0.2670
18978SOL     OW58865   2.179   5.567   6.471 -0.4623 -0.6077 -0.5143
18978SOL    HW158866   2.086   5.588   6.484 -0.1446  1.0545 -0.6868
18978SOL    HW258867   2.226   5.637   6.515  0.7993 -2.6886  1.6764
18979SOL     OW58868   8.681   0.710   0.475 -0.1325 -0.2138 -0.3214
18979SOL    HW158869   8.763   0.749   0.445 -0.3609  1.0056  0.5572
18979SOL    HW258870   8.617   0.731   0.407  0.3180 -1.4465 -1.1672
18980SOL     OW58871   4.139   7.823   0.359  0.4309  0.8452  0.0754
18980SOL    HW158872   4.123   7.827   0.264  0.1545 -0.0259  0.0780
18980SOL    HW258873   4.084   7.892   0.395 -0.8447  0.0374 -0.2398
18981SOL     OW58874   5.528   0.574   8.293 -0.4960 -0.2468 -0.2171
18981SOL    HW158875   5.598   0.630   8.329  0.4063 -0.8419 -0.9938
18981SOL    HW258876   5.575   0.501   8.252 -1.5942 -0.7427 -0.6162
18982SOL     OW58877   2.838   1.799   4.922 -0.3751  0.0763  0.2008
18982SOL    HW158878   2.891   1.816   4.999 -1.5600 -1.7264  1.4928
18982SOL    HW258879   2.867   1.713   4.891 -0.4459  0.4353 -0.9231
18983SOL     OW58880   2.006   0.193   4.747  0.1966  0.5278 -0.7815
18983SOL    HW158881   2.047   0.272   4.711  0.6030 -0.3007 -2.2378
18983SOL    HW258882   1.981   0.217   4.836  2.6472  1.5200 -0.2699
18984SOL     OW58883   8.797   6.890   5.165  0.0719  0.1717  0.9129
18984SOL    HW158884   8.768   6.978   5.187 -1.0340  0.4727 -1.5088
18984SOL    HW258885   8.735   6.859   5.100  0.4991 -2.3989  1.6061
18985SOL     OW58886   4.403   7.584   3.558  0.0730 -0.1579 -0.1019
18985SOL    HW158887   4.458   7.663   3.552 -0.4000  0.2601  0.9242
18985SOL    HW258888   4.401   7.563   3.651  0.5117 -1.6341 -0.4009
18986SOL     OW58889   2.680   3.962   1.408 -0.3113 -0.1699 -0.3486
18986SOL    HW158890   2.765   3.935   1.442 -0.8190 -2.7002 -0.9189
18986SOL    HW258891   2.643   3.883   1.369 -2.6050  1.0437 -0.8135
18987SOL     OW58892   6.271   3.810   6.952  0.0498  0.4715  0.0485
18987SOL    HW158893   6.208   3.828   6.881  0.6693  0.9828 -0.3843
18987SOL    HW258894   6.355   3.838   6.916  0.6499 -0.8582  0.3555
18988SOL     OW58895   0.048   3.911   0.981 -0.2312  0.0559 -0.7007
18988SOL    HW158896   0.103   3.833   0.995 -1.2370 -0.5178  0.2524
18988SOL    HW258897   0.058   3.962   1.061 -2.2564 -0.8312  0.1821
18989SOL     OW58898   1.387   6.467   1.760  0.0687 -0.1804  0.8063
18989SOL    HW158899   1.419   6.384   1.724 -0.5908  0.5419 -1.6820
18989SOL    HW258900   1.294   6.453   1.776 -0.2061  0.2448 -0.3116
18990SOL     OW58901   5.598   0.005   1.356  0.1363  0.2806  0.2205
18990SOL    HW158902   5.532   0.046   1.300  0.4593  0.3260 -0.1332
18990SOL    HW258903   5.557  -0.001   1.442  0.5236  2.5023  0.6198
18991SOL     OW58904   4.314   1.531   2.629  0.0189 -0.2518 -0.3743
18991SOL    HW158905   4.222   1.515   2.607 -0.1220  0.9755 -0.7329
18991SOL    HW258906   4.343   1.597   2.567  0.6604  0.5937  0.7852
18992SOL     OW58907   3.450   8.754   2.943  0.4844  0.1260 -0.1392
18992SOL    HW158908   3.357   8.732   2.948  0.3572  0.8464  2.2602
18992SOL    HW258909   3.495   8.674   2.971  0.2519  1.0805  3.5498
18993SOL     OW58910   5.032   0.136   1.362  0.3283 -0.0315 -0.0333
18993SOL    HW158911   5.040   0.083   1.441 -0.2327 -0.4933 -0.2737
18993SOL    HW258912   4.977   0.210   1.388 -0.5098 -0.5880 -0.1736
18994SOL     OW58913   2.591   3.015   5.505  0.5003  0.0524 -0.1459
18994SOL    HW158914   2.661   2.975   5.454  0.4528  0.1659 -0.3020
18994SOL    HW258915   2.635   3.080   5.560  0.3481  1.2520 -1.3880
18995SOL     OW58916   6.107   4.261   4.676 -0.1139 -0.1206  0.0710
18995SOL    HW158917   6.055   4.295   4.603  1.0909  0.1270 -0.7094
18995SOL    HW258918   6.194   4.298   4.662 -0.0686  0.6724  2.1696
18996SOL     OW58919   8.034   4.495   7.519  0.1089 -0.1570 -0.1657
18996SOL    HW158920   8.099   4.562   7.500  1.2371 -1.1104  0.2733
18996SOL    HW258921   7.955   4.526   7.474  1.0869  0.5679 -1.4718
18997SOL     OW58922   4.499   7.249   8.422  0.1075 -0.4558 -0.2784
18997SOL    HW158923   4.427   7.297   8.463  0.9636  0.3556  0.3188
18997SOL    HW258924   4.563   7.237   8.492 -0.3237 -3.0880 -0.2216
18998SOL     OW58925   4.778   2.465   7.540 -0.7572  0.4253 -0.0914
18998SOL    HW158926   4.718   2.531   7.574 -0.0225 -0.0654  2.4132
18998SOL    HW258927   4.723   2.389   7.521 -1.0138 -0.2769  2.8772
18999SOL     OW58928   2.963   2.365   3.606 -0.2838 -0.3289  0.3963
18999SOL    HW158929   2.969   2.270   3.613  2.6453 -0.1959  0.9072
18999SOL    HW258930   3.030   2.389   3.542  1.9364  1.5987  3.1909
19000SOL     OW58931   4.456   8.812   4.256  0.1836 -0.1765 -0.1684
19000SOL    HW158932   4.400   8.734   4.264 -1.4294  0.9401 -0.0252
19000SOL    HW258933   4.466   8.824   4.162 -1.9349  0.9841 -0.3159
19001SOL     OW58934   3.180   0.697   1.462 -0.5154 -0.2471 -0.0248
19001SOL    HW158935   3.173   0.658   1.549  0.1655  0.6566  0.4333
19001SOL    HW258936   3.136   0.781   1.469  0.0993  0.1084 -0.3909
19002SOL     OW58937   4.805   0.466   1.970 -0.0780 -0.4108  0.2441
19002SOL    HW158938   4.778   0.374   1.972  0.5566 -0.8499 -3.7273
19002SOL    HW258939   4.723   0.514   1.956 -0.2093 -0.5334  0.5773
19003SOL     OW58940   0.890   0.330   7.118 -0.7564  0.1589 -0.8014
19003SOL    HW158941   0.914   0.407   7.066 -0.5931 -0.2324 -1.3147
19003SOL    HW258942   0.968   0.273   7.114 -1.3529 -0.6383 -1.5815
19004SOL     OW58943   4.350   1.642   1.808  0.1963  0.2669  0.4546
19004SOL    HW158944   4.274   1.598   1.848 -0.2325 -1.7417 -2.2425
19004SOL    HW258945   4.314   1.723   1.773 -0.8367 -0.6991 -0.8672
19005SOL     OW58946   8.633   1.861   2.520 -0.1346  0.2226  0.3414
19005SOL    HW158947   8.573   1.788   2.506  0.1539 -0.0278  0.4041
19005SOL    HW258948   8.579   1.939   2.509 -0.2889  0.0155 -0.4563
19006SOL     OW58949   1.923   0.562   5.706  0.2593 -0.2480 -0.1272
19006SOL    HW158950   2.005   0.524   5.672  0.3453 -0.1003 -0.0840
19006SOL    HW258951   1.859   0.491   5.696  0.0896  0.0459 -1.3598
19007SOL     OW58952   3.402   1.795   1.467  0.0778 -0.1249 -0.1757
19007SOL    HW158953   3.434   1.795   1.557  2.9652 -2.0678 -1.0446
19007SOL    HW258954   3.367   1.883   1.453  2.1489  1.1521  1.9989
19008SOL     OW58955   6.447   0.295   2.136  0.3409  0.2176 -0.2541
19008SOL    HW158956   6.479   0.308   2.226  2.2648 -0.0081 -0.8706
19008SOL    HW258957   6.457   0.381   2.095  0.2209  0.1118 -0.5049
19009SOL     OW58958   3.423   1.553   6.866 -0.3238  0.3591 -0.8759
19009SOL    HW158959   3.369   1.506   6.802 -1.2485 -0.3160  0.3365
19009SOL    HW258960   3.456   1.629   6.819 -0.4362 -0.4438 -2.3270
19010SOL     OW58961   5.683   6.485   5.112 -0.2945  0.0024  0.0284
19010SOL    HW158962   5.645   6.405   5.078 -0.8701  1.2456 -2.4617
19010SOL    HW258963   5.775   6.482   5.084 -0.3111  0.1956 -0.0513
19011SOL     OW58964   2.961   5.240   4.848  0.2482 -0.3205 -0.4220
19011SOL    HW158965   3.037   5.201   4.891  0.1947 -0.9389 -0.8829
19011SOL    HW258966   2.999   5.296   4.780  0.3305  0.5954  0.3578
19012SOL     OW58967   1.219   0.881   0.558 -0.6393 -0.2112 -0.0239
19012SOL    HW158968   1.177   0.859   0.641 -0.3845 -0.3991  0.0576
19012SOL    HW258969   1.263   0.800   0.531  1.5066  0.5229  0.9879
19013SOL     OW58970   6.225   1.284   3.173  0.1573  0.3938 -0.0640
19013SOL    HW158971   6.284   1.282   3.249 -1.5191  0.3515  1.3210
19013SOL    HW258972   6.149   1.334   3.205 -0.9874 -0.4228 -1.4226
19014SOL     OW58973   5.890   1.970   8.530 -0.2917  0.2184  0.2290
19014SOL    HW158974   5.950   2.039   8.502  0.0287 -0.2432 -0.2491
19014SOL    HW258975   5.920   1.945   8.618  0.5129 -0.3237 -0.1862
19015SOL     OW58976   0.987   8.269   6.430  0.2660  0.2840 -0.3416
19015SOL    HW158977   0.893   8.290   6.428  0.0435 -0.7325 -1.5727
19015SOL    HW258978   1.017   8.288   6.341  1.1267  0.1103 -0.0925
19016SOL     OW58979   6.706   6.560   1.516  0.9271  0.1673  0.0981
19016SOL    HW158980   6.635   6.608   1.558  1.2758  0.0890  0.7928
19016SOL    HW258981   6.683   6.468   1.526  1.2169  0.1371  0.4856
19017SOL     OW58982   5.867   5.515   4.076  0.3241 -0.5347 -0.2422
19017SOL    HW158983   5.798   5.474   4.128  0.4936  0.1571  0.5510
19017SOL    HW258984   5.865   5.468   3.992 -0.0209 -1.6045  0.3448
19018SOL     OW58985   5.015   0.700   7.069 -0.0832  0.1342 -0.1011
19018SOL    HW158986   5.082   0.670   7.130 -1.0252 -2.8519 -0.3956
19018SOL    HW258987   4.932   0.670   7.106 -1.2529  2.8834 -0.2417
19019SOL     OW58988   3.056   0.350   3.489  0.9205 -0.4914  0.4376
19019SOL    HW158989   3.042   0.314   3.577 -0.1732 -0.3146  0.3493
19019SOL    HW258990   3.143   0.391   3.494  0.4721  0.3781  1.7422
19020SOL     OW58991   7.081   0.745   3.265  0.6457 -0.4207  0.4609
19020SOL    HW158992   7.109   0.798   3.191  0.9204  0.2431  1.0261
19020SOL    HW258993   7.078   0.807   3.338 -0.2244 -0.9287  0.8669
19021SOL     OW58994   2.339   5.068   5.218  0.0382  0.4476  0.0230
19021SOL    HW158995   2.415   5.079   5.274  0.8129 -1.2004 -0.6358
19021SOL    HW258996   2.265   5.064   5.278  0.6647  0.3435  0.8033
19022SOL     OW58997   7.174   7.004   3.033  0.3790  0.5936 -0.3678
19022SOL    HW158998   7.250   7.052   3.002  1.7364 -1.7457 -0.9368
19022SOL    HW258999   7.187   6.997   3.128  0.5875  0.7071 -0.3877
19023SOL     OW59000   3.627   3.951   2.786 -0.6232 -0.1399 -0.5197
19023SOL    HW159001   3.671   4.036   2.788 -0.1095 -0.3903  2.0195
19023SOL    HW259002   3.537   3.970   2.810 -0.9508 -0.1398 -1.6770
19024SOL     OW59003   7.844   0.903   5.578 -0.5370  0.1531  0.0611
19024SOL    HW159004   7.856   0.959   5.655  0.9670 -4.1234  3.3338
19024SOL    HW259005   7.759   0.862   5.591 -0.7332  0.1229 -1.1990
19025SOL     OW59006   1.142   5.326   0.872  0.0624  0.1895  0.2969
19025SOL    HW159007   1.133   5.421   0.881  0.6819  0.1850  1.0395
19025SOL    HW259008   1.226   5.314   0.827 -0.9760  0.0476 -1.7045
19026SOL     OW59009   7.068   7.229   2.236 -0.2338 -0.6824  0.4422
19026SOL    HW159010   7.021   7.303   2.275 -0.0610  0.6337 -1.6591
19026SOL    HW259011   7.161   7.251   2.246 -0.1864 -0.2275 -0.7939
19027SOL     OW59012   5.544   3.963   2.986 -0.0039 -0.3349 -0.2577
19027SOL    HW159013   5.466   4.010   2.958 -0.3116  0.6784  2.0754
19027SOL    HW259014   5.611   4.030   2.994  0.3001 -0.7146  0.5026
19028SOL     OW59015   3.411   4.949   5.897 -0.0524 -0.2228 -0.0948
19028SOL    HW159016   3.384   4.979   5.810  1.3284  0.9507 -0.1483
19028SOL    HW259017   3.334   4.904   5.931 -0.9574  0.1612 -1.5262
19029SOL     OW59018   5.324   0.280   8.018 -0.2225 -0.2724 -0.3548
19029SOL    HW159019   5.318   0.371   7.990 -0.0016 -0.6994 -1.8581
19029SOL    HW259020   5.242   0.240   7.988 -1.0774 -0.2288  1.7432
19030SOL     OW59021   8.072   6.550   7.821 -0.6067  0.4041 -0.3821
19030SOL    HW159022   8.029   6.636   7.822 -2.3047 -0.3348 -2.3476
19030SOL    HW259023   8.152   6.565   7.770 -0.4603  0.9963  0.0150
19031SOL     OW59024   6.875   7.652   1.722  0.2106 -0.0257 -0.2211
19031SOL    HW159025   6.920   7.646   1.806 -2.2662 -1.7510  1.1205
19031SOL    HW259026   6.930   7.604   1.661  1.6646  0.5825  0.5768
19032SOL     OW59027   0.676   0.333   0.449  0.0586 -0.4762 -0.1110
19032SOL    HW159028   0.628   0.381   0.516 -0.8543  0.5854 -1.4808
19032SOL    HW259029   0.755   0.301   0.494 -1.0615 -0.7729  1.7310
19033SOL     OW59030   8.141   7.890   6.555  0.1070  0.4305  0.1775
19033SOL    HW159031   8.062   7.854   6.595  0.0675 -1.5397 -1.5021
19033SOL    HW259032   8.118   7.981   6.535 -0.8445  0.6159  1.9124
19034SOL     OW59033   4.942   5.016   4.802 -0.2457  0.8598 -0.0527
19034SOL    HW159034   4.926   4.934   4.754  1.0366 -0.4046  1.5573
19034SOL    HW259035   4.956   5.081   4.734 -2.6831  0.0906 -1.4100
19035SOL     OW59036   0.341   2.903   5.364 -0.2327 -0.1475  0.2116
19035SOL    HW159037   0.380   2.822   5.330  0.2581  0.7512 -1.4894
19035SOL    HW259038   0.414   2.965   5.366 -0.9374  0.7141 -0.1173
19036SOL     OW59039   0.901   6.709   4.317  0.2707 -0.0287 -0.0550
19036SOL    HW159040   0.889   6.734   4.409  1.7032  1.8486 -0.3231
19036SOL    HW259041   0.813   6.689   4.286 -0.1663 -1.5771  1.9130
19037SOL     OW59042   2.684   2.123   4.111 -0.5087  0.0486 -0.3943
19037SOL    HW159043   2.700   2.096   4.202  1.2220  0.8154 -0.4376
19037SOL    HW259044   2.668   2.217   4.117 -3.4857 -0.3326 -0.5912
19038SOL     OW59045   3.757   2.548   0.086  0.7516 -0.2606 -0.4044
19038SOL    HW159046   3.825   2.582   0.145 -0.1196  1.2121 -0.2077
19038SOL    HW259047   3.735   2.462   0.122 -0.2854  0.8866  1.9503
19039SOL     OW59048   8.134   3.420   3.565 -0.3978  0.1116 -0.3705
19039SOL    HW159049   8.137   3.333   3.604  1.3422  0.2493 -0.1353
19039SOL    HW259050   8.050   3.423   3.520  0.5903 -2.7219 -2.7088
19040SOL     OW59051   7.543   6.396   0.404 -0.4687 -0.6901 -0.2165
19040SOL    HW159052   7.514   6.469   0.351 -0.7856  2.2228  3.5769
19040SOL    HW259053   7.556   6.324   0.341 -1.9240  1.9905 -3.9164
19041SOL     OW59054   1.777   2.948   6.077  0.5352 -0.3266  0.0779
19041SOL    HW159055   1.795   2.949   6.170  1.7543 -1.0290 -0.1325
19041SOL    HW259056   1.846   2.893   6.039  1.0561  1.2869 -1.4394
19042SOL     OW59057   6.169   6.827   4.083  0.4219  0.1111 -0.8761
19042SOL    HW159058   6.120   6.908   4.090  0.5912  0.1941 -0.6321
19042SOL    HW259059   6.258   6.850   4.110  0.1396 -0.4731  0.6491
19043SOL     OW59060   2.330   6.175   3.276  0.0709  0.1675  0.0384
19043SOL    HW159061   2.412   6.144   3.314  0.3119  0.5055 -0.1974
19043SOL    HW259062   2.263   6.117   3.312  0.3760  0.0757  0.4648
19044SOL     OW59063   7.824   2.643   4.922  0.4000 -0.2560  0.3116
19044SOL    HW159064   7.885   2.713   4.945  0.6692 -0.2712 -0.3473
19044SOL    HW259065   7.836   2.577   4.991  0.2158  0.2941  0.8794
19045SOL     OW59066   1.965   2.377   0.961  0.0755  0.1537 -0.0873
19045SOL    HW159067   1.987   2.424   0.880  1.8631  0.7858  0.7033
19045SOL    HW259068   1.871   2.359   0.954  0.3157 -0.4128 -2.5877
19046SOL     OW59069   3.397   0.621   2.985 -0.2200  0.6123  0.4465
19046SOL    HW159070   3.449   0.575   2.920 -1.2476 -0.1099  0.0971
19046SOL    HW259071   3.437   0.708   2.992  0.9614  0.1041  0.1520
19047SOL     OW59072   3.907   7.719   1.755 -0.2828  0.0149 -0.4157
19047SOL    HW159073   3.843   7.662   1.798 -0.2612 -0.6626 -1.2661
19047SOL    HW259074   3.871   7.734   1.668  1.6064 -1.9532 -1.6168
19048SOL     OW59075   6.221   7.964   3.826 -0.3752  0.6511 -0.2647
19048SOL    HW159076   6.153   7.919   3.876 -0.5464  2.0451  0.8220
19048SOL    HW259077   6.178   7.991   3.745 -0.7662  0.4775 -0.1153
19049SOL     OW59078   4.213   3.538   8.814 -0.4381 -0.1026 -0.5993
19049SOL    HW159079   4.207   3.604   8.745  0.7811  1.8469  1.0579
19049SOL    HW259080   4.298   3.496   8.799  0.6662  1.5598  0.6814
19050SOL     OW59081   6.703   4.693   5.100 -0.1333 -0.0650 -0.2913
19050SOL    HW159082   6.750   4.652   5.027 -0.9018 -1.2551 -0.1469
19050SOL    HW259083   6.611   4.691   5.073 -0.4880 -0.9397  0.8787
19051SOL     OW59084   8.432   0.886   1.421  0.0687 -0.0792 -0.0035
19051SOL    HW159085   8.522   0.917   1.433 -0.5805  1.7651  0.5098
19051SOL    HW259086   8.427   0.806   1.473  1.6733 -0.7596 -0.8582
19052SOL     OW59087   4.097   1.047   4.207  0.1738 -0.4040  0.4779
19052SOL    HW159088   4.077   1.004   4.124  0.6811 -0.3630  0.3316
19052SOL    HW259089   4.149   0.982   4.255  0.8286 -0.0181  0.3102
19053SOL     OW59090   1.048   3.173   8.214 -0.1420  0.6350  0.1207
19053SOL    HW159091   1.064   3.225   8.293 -2.1404 -1.0583  1.7394
19053SOL    HW259092   1.130   3.125   8.200 -0.2433 -0.1937  2.1001
19054SOL     OW59093   1.975   4.470   1.315 -0.0359 -0.1382  0.1173
19054SOL    HW159094   2.017   4.408   1.374  2.5037  0.7197 -0.6520
19054SOL    HW259095   1.966   4.550   1.366  0.5676  0.0881 -0.1229
19055SOL     OW59096   4.008   2.348   7.976  0.2846 -0.3758  0.0449
19055SOL    HW159097   4.034   2.270   8.023 -0.1688  1.4330  3.6102
19055SOL    HW259098   4.085   2.373   7.925  1.5095 -1.4147  1.3340
19056SOL     OW59099   1.834   2.259   0.416 -0.0930 -0.3024  0.3452
19056SOL    HW159100   1.819   2.353   0.405 -0.3783 -0.2391  1.1873
19056SOL    HW259101   1.906   2.239   0.357 -0.7727  0.2169 -0.6987
19057SOL     OW59102   3.139   5.752   5.275  0.0626  0.7162  0.0315
19057SOL    HW159103   3.057   5.759   5.226  0.9415  1.8998 -1.3299
19057SOL    HW259104   3.181   5.837   5.264  1.2566  0.2920  1.1250
19058SOL     OW59105   5.130   5.622   7.859  0.3202  0.0266 -0.0061
19058SOL    HW159106   5.153   5.545   7.807 -1.3847  0.2738 -1.2263
19058SOL    HW259107   5.041   5.603   7.891  0.1729  1.1716  0.2967
19059SOL     OW59108   4.521   7.079   8.198 -0.7053 -0.2523 -0.2120
19059SOL    HW159109   4.523   7.130   8.279  0.6781 -1.2205  0.4000
19059SOL    HW259110   4.494   7.142   8.131  1.5129  1.4651  0.3918
19060SOL     OW59111   0.742   0.086   3.213 -0.0527 -0.1514 -0.5053
19060SOL    HW159112   0.765   0.107   3.122 -1.1184 -0.2647 -0.8160
19060SOL    HW259113   0.800   0.014   3.236  1.9028  1.4333 -0.2672
19061SOL     OW59114   1.626   4.063   1.364 -0.1101  0.5376  0.1939
19061SOL    HW159115   1.667   4.149   1.379  1.0667  0.1236 -0.5257
19061SOL    HW259116   1.563   4.079   1.293 -2.6312  1.5738  2.4959
19062SOL     OW59117   5.178   0.941   7.800 -0.2728  0.3225  0.2198
19062SOL    HW159118   5.131   1.024   7.792 -0.7719  0.2906  2.2287
19062SOL    HW259119   5.267   0.966   7.824 -0.6313  0.3297  1.6998
19063SOL     OW59120   5.841   6.473   6.125 -0.8532 -0.5787 -0.5566
19063SOL    HW159121   5.880   6.424   6.198  0.8864  0.2727 -0.8638
19063SOL    HW259122   5.846   6.412   6.051  1.7571  0.0958 -1.0585
19064SOL     OW59123   5.864   2.440   6.642  0.1821  0.2657 -0.0934
19064SOL    HW159124   5.947   2.394   6.643 -0.1217 -0.2842  0.2409
19064SOL    HW259125   5.873   2.509   6.708 -0.1398 -0.7282  1.0156
19065SOL     OW59126   4.061   5.013   2.021  0.3716 -0.3131 -0.4041
19065SOL    HW159127   4.058   4.924   2.056  0.1055 -0.1166  0.0847
19065SOL    HW259128   4.154   5.032   2.009  0.6558  0.4205  2.3069
19066SOL     OW59129   5.680   5.099   3.937 -0.4452 -0.0520  0.0198
19066SOL    HW159130   5.699   5.191   3.919  0.4147  0.0232  1.1973
19066SOL    HW259131   5.584   5.094   3.935 -0.5167  0.9289  0.2094
19067SOL     OW59132   1.510   1.072   1.123 -0.3169  0.5631  0.0019
19067SOL    HW159133   1.603   1.079   1.144 -0.6341  0.6912  1.4573
19067SOL    HW259134   1.499   1.125   1.044  0.3512  2.9110  1.3792
19068SOL     OW59135   6.849   7.261   4.324 -0.3061  0.3618 -0.3301
19068SOL    HW159136   6.879   7.283   4.412 -0.5354  0.6937 -0.3307
19068SOL    HW259137   6.762   7.300   4.318  0.1422  1.3028 -1.0843
19069SOL     OW59138   2.986   2.474   7.301 -0.1513 -0.3386 -0.0535
19069SOL    HW159139   2.943   2.515   7.376  1.2639 -0.8974  1.0963
19069SOL    HW259140   3.080   2.481   7.320  0.2983  0.2832 -2.1841
19070SOL     OW59141   7.312   1.328   4.344 -0.2636 -0.5152  0.6605
19070SOL    HW159142   7.291   1.242   4.306  0.0672 -1.1098  1.7662
19070SOL    HW259143   7.406   1.338   4.330 -0.0970 -0.8355  1.4653
19071SOL     OW59144   1.146   4.000   3.715  0.5733 -0.2985  0.3566
19071SOL    HW159145   1.069   3.958   3.677  0.4705 -0.3442  0.6181
19071SOL    HW259146   1.114   4.041   3.795  1.2501 -2.1339  1.6231
19072SOL     OW59147   6.412   3.088   7.035 -0.2732  0.0468 -0.2343
19072SOL    HW159148   6.420   3.181   7.013 -1.2869  0.5185  1.2559
19072SOL    HW259149   6.428   3.084   7.129 -1.6630 -1.0783 -0.0163
19073SOL     OW59150   5.105   0.504   3.164  0.0342 -0.1115 -0.0013
19073SOL    HW159151   5.193   0.532   3.136 -0.3128  1.7748  0.6228
19073SOL    HW259152   5.120   0.453   3.243  0.5530  0.8459  0.5396
19074SOL     OW59153   1.870   4.884   3.404  0.7130 -0.0780 -0.5224
19074SOL    HW159154   1.924   4.931   3.341  0.6517  0.1698 -0.3937
19074SOL    HW259155   1.819   4.953   3.447  0.3202 -0.3033 -0.6210
19075SOL     OW59156   0.479   0.305   7.516  0.3575 -0.6384  0.6701
19075SOL    HW159157   0.564   0.295   7.474 -0.9239  0.1036 -2.3561
19075SOL    HW259158   0.416   0.273   7.451 -1.9151  2.0671  1.3669
19076SOL     OW59159   6.174   1.216   2.474 -0.0094 -0.2504  0.4179
19076SOL    HW159160   6.177   1.225   2.569  1.2489 -0.3457  0.4069
19076SOL    HW259161   6.263   1.239   2.445 -0.5953  0.5893 -0.8079
19077SOL     OW59162   3.233   2.837   0.240  0.1301  0.2273 -0.1451
19077SOL    HW159163   3.191   2.757   0.271  0.9618  0.4798  1.7229
19077SOL    HW259164   3.280   2.871   0.316 -0.3085  2.5691 -0.8508
19078SOL     OW59165   0.566   5.292   7.832 -0.3979  0.7675  0.0398
19078SOL    HW159166   0.538   5.215   7.881 -0.5713 -0.3680 -1.7472
19078SOL    HW259167   0.650   5.266   7.793 -0.3945  1.5396 -0.4873
19079SOL     OW59168   0.846   5.189   2.129 -0.2239 -0.1978 -0.3371
19079SOL    HW159169   0.817   5.117   2.073 -1.1658  0.6351 -0.9686
19079SOL    HW259170   0.789   5.262   2.104 -0.4883  0.2832  1.5214
19080SOL     OW59171   1.563   6.047   7.693 -0.4117 -0.2719 -0.1295
19080SOL    HW159172   1.551   5.952   7.696  0.4173 -0.4543 -1.7672
19080SOL    HW259173   1.476   6.083   7.711 -0.8780 -1.3520 -0.1615
19081SOL     OW59174   1.352   3.657   5.419 -0.2348 -0.3799  0.0451
19081SOL    HW159175   1.445   3.642   5.434 -0.2582  0.7681  1.6497
19081SOL    HW259176   1.307   3.605   5.486 -0.7105 -0.3950 -0.2776
19082SOL     OW59177   5.240   0.597   8.029 -0.3600  0.6854 -0.5820
19082SOL    HW159178   5.300   0.666   8.057 -1.2031  1.0620  0.3466
19082SOL    HW259179   5.183   0.582   8.105  0.0427 -1.2985 -0.6382
19083SOL     OW59180   0.282   1.337   4.412 -0.6658 -0.4469 -0.5001
19083SOL    HW159181   0.365   1.289   4.408  0.6982  1.7999 -0.8781
19083SOL    HW259182   0.253   1.327   4.503  0.4760 -0.5731 -0.1348
19084SOL     OW59183   5.664   3.952   8.833 -0.5805 -0.4489  0.3365
19084SOL    HW159184   5.624   4.037   8.811  0.0670  0.0022  0.8479
19084SOL    HW259185   5.590   3.891   8.836 -1.4625  0.5967  2.3946
19085SOL     OW59186   8.368   8.019   1.926 -0.0604 -0.0323  0.0511
19085SOL    HW159187   8.390   7.926   1.919  0.5683  0.1948 -1.4222
19085SOL    HW259188   8.276   8.020   1.951  0.6966 -1.0140  3.4061
19086SOL     OW59189   3.251   1.782   4.901 -0.2009 -0.2541  0.4756
19086SOL    HW159190   3.218   1.739   4.822  0.0872  0.8012 -0.2327
19086SOL    HW259191   3.261   1.711   4.964 -0.2938 -1.1431 -0.4830
19087SOL     OW59192   4.348   3.407   2.927 -0.1810 -0.1671  0.2744
19087SOL    HW159193   4.367   3.449   3.011 -1.8611 -1.1682  1.2373
19087SOL    HW259194   4.277   3.458   2.889 -0.5574 -0.6728  0.2777
19088SOL     OW59195   2.990   5.396   8.642 -0.0350 -0.3018  0.1450
19088SOL    HW159196   2.972   5.489   8.638  0.2528 -0.2609 -0.2589
19088SOL    HW259197   3.001   5.369   8.551  0.5947 -0.5836  0.2941
19089SOL     OW59198   5.866   6.278   8.785  1.0836  0.0947  0.1228
19089SOL    HW159199   5.800   6.328   8.834  1.3822  0.0207  0.6053
19089SOL    HW259200   5.839   6.187   8.794  0.2964  0.1796 -1.1183
19090SOL     OW59201   8.430   6.293   2.963 -0.0127  0.5051  0.0222
19090SOL    HW159202   8.418   6.385   2.985  0.4368  0.7767 -0.8238
19090SOL    HW259203   8.343   6.263   2.937 -0.2526  0.5577  0.7434
19091SOL     OW59204   5.938   7.650   2.288 -0.0375  0.1290  0.2246
19091SOL    HW159205   5.844   7.666   2.294 -0.3778 -1.4349 -0.3531
19091SOL    HW259206   5.961   7.671   2.197  0.4032  1.4933  0.6270
19092SOL     OW59207   4.920   6.181   3.203  0.4502 -0.1745  0.5677
19092SOL    HW159208   5.009   6.150   3.217  0.0912 -0.9656  1.1546
19092SOL    HW259209   4.918   6.269   3.241  0.9719 -0.1611  0.5652
19093SOL     OW59210   6.993   2.899   6.187  0.2328  0.5825  0.0337
19093SOL    HW159211   6.915   2.955   6.181 -0.5710 -0.2808  1.8883
19093SOL    HW259212   7.064   2.955   6.155 -1.0586  1.4988 -1.3966
19094SOL     OW59213   3.269   6.598   5.491 -0.4611 -0.2311  0.3359
19094SOL    HW159214   3.360   6.570   5.500 -0.2623  0.0101 -0.7521
19094SOL    HW259215   3.218   6.519   5.509  0.0549 -1.0170 -1.3954
19095SOL     OW59216   6.334   8.483   4.427  0.6354 -0.3575 -0.2647
19095SOL    HW159217   6.277   8.420   4.384 -0.3700 -0.0606  0.6003
19095SOL    HW259218   6.329   8.561   4.372  0.6385 -0.5090 -0.4804
19096SOL     OW59219   3.526   1.980   5.401 -0.4921 -0.2434 -0.0628
19096SOL    HW159220   3.575   1.909   5.442  0.8950  0.5590 -0.2602
19096SOL    HW259221   3.469   1.937   5.338  1.4219 -1.1128 -1.2880
19097SOL     OW59222   0.317   4.965   2.033 -0.3260 -0.1965 -0.1641
19097SOL    HW159223   0.313   4.882   1.985  0.2254 -1.6091  2.0835
19097SOL    HW259224   0.407   4.969   2.065 -0.3397  1.3243 -0.2684
19098SOL     OW59225   7.783   6.602   0.104  0.7854 -0.2385 -0.4082
19098SOL    HW159226   7.854   6.631   0.046 -0.8750  2.0764 -1.4128
19098SOL    HW259227   7.827   6.584   0.188  2.7376 -0.2949 -1.3826
19099SOL     OW59228   2.404   6.310   0.827  0.3428  0.1192 -0.1084
19099SOL    HW159229   2.487   6.261   0.833 -0.2487 -1.0719 -1.0799
19099SOL    HW259230   2.406   6.349   0.740 -0.1656 -0.0322 -0.1922
19100SOL     OW59231   5.249   0.686   7.746 -0.8999 -0.0055 -0.0245
19100SOL    HW159232   5.271   0.649   7.832 -0.2048 -0.2511 -0.3045
19100SOL    HW259233   5.219   0.775   7.765  0.0960  0.2503  0.3896
19101SOL     OW59234   2.472   2.016   4.392 -0.4670 -0.5283 -0.6039
19101SOL    HW159235   2.516   2.101   4.393 -1.5598  0.0450  0.2331
19101SOL    HW259236   2.542   1.953   4.412  0.0435  0.3353  0.4348
19102SOL     OW59237   7.905   3.984   5.633  0.3095  0.0770 -0.4054
19102SOL    HW159238   7.995   4.012   5.650  0.1147  0.5477 -0.1284
19102SOL    HW259239   7.851   4.051   5.674 -0.1821 -1.1238  1.0243
19103SOL     OW59240   4.437   7.904   4.949 -0.7893 -0.3924  0.0655
19103SOL    HW159241   4.502   7.954   4.899  0.8972 -1.4567  1.0666
19103SOL    HW259242   4.414   7.830   4.893 -0.1110 -0.7237  0.2131
19104SOL     OW59243   2.369   3.598   8.197  0.4862 -0.2877  0.1308
19104SOL    HW159244   2.427   3.671   8.177  0.0955  0.0587  0.2331
19104SOL    HW259245   2.292   3.639   8.237  0.2012 -0.7413  0.0600
19105SOL     OW59246   0.436   4.664   3.193  0.4841  0.7552  0.4998
19105SOL    HW159247   0.417   4.657   3.287 -0.0933 -1.2153  0.2883
19105SOL    HW259248   0.478   4.580   3.171 -1.6158  0.1134 -1.4567
19106SOL     OW59249   4.564   0.045   4.770 -0.4176  0.0282  0.4228
19106SOL    HW159250   4.502   0.050   4.697 -1.0712  1.7927  1.0294
19106SOL    HW259251   4.510   0.027   4.847 -0.0882  0.7180  0.8297
19107SOL     OW59252   0.848   5.434   0.012 -0.2359  0.1350 -0.2753
19107SOL    HW159253   0.903   5.507  -0.017  2.1042 -1.3125  0.2554
19107SOL    HW259254   0.909   5.373   0.053 -2.1919 -1.8914 -0.2038
19108SOL     OW59255   4.986   4.092   4.519  0.6716 -0.3424 -0.1768
19108SOL    HW159256   4.938   4.116   4.439  0.8731 -1.5214 -0.6865
19108SOL    HW259257   5.055   4.033   4.488 -0.1261 -1.9802  0.9994
19109SOL     OW59258   7.756   0.214   2.577 -0.1928 -0.1783  0.2139
19109SOL    HW159259   7.844   0.176   2.586 -0.0633 -0.0248 -0.3513
19109SOL    HW259260   7.762   0.267   2.498 -1.2924 -1.5638 -0.8513
19110SOL     OW59261   7.295   7.027   4.903 -0.5851 -0.1285 -0.0502
19110SOL    HW159262   7.240   7.084   4.848 -0.8651 -0.7413 -0.4317
19110SOL    HW259263   7.329   6.962   4.841 -0.6731 -0.6594  0.4549
19111SOL     OW59264   1.852   3.208   0.348  0.0830  0.1922  0.0436
19111SOL    HW159265   1.769   3.187   0.390  0.5299 -1.4631  0.1957
19111SOL    HW259266   1.857   3.148   0.274  0.8305  0.7362 -0.3584
19112SOL     OW59267   7.038   6.696   0.322 -0.1214  0.2433  0.3786
19112SOL    HW159268   7.007   6.605   0.317  0.6309 -0.2296  2.7577
19112SOL    HW259269   7.133   6.688   0.331 -0.1833  1.1321  2.2130
19113SOL     OW59270   5.429   8.744   2.150 -0.2768 -0.4001 -0.4876
19113SOL    HW159271   5.352   8.754   2.094 -0.0098  0.7335 -0.6759
19113SOL    HW259272   5.432   8.824   2.202 -0.0585 -1.0820  0.5884
19114SOL     OW59273   5.964   5.110   2.252  0.0056 -0.5796 -0.6785
19114SOL    HW159274   5.981   5.029   2.301  1.8109  0.1128 -0.0687
19114SOL    HW259275   5.998   5.093   2.165 -2.0398 -1.3577 -1.3900
19115SOL     OW59276   2.289   4.201   1.384  0.1035  0.4656 -0.3089
19115SOL    HW159277   2.382   4.206   1.406  0.4732 -0.0402 -1.6951
19115SOL    HW259278   2.283   4.236   1.296 -0.7635 -1.0216 -0.8686
19116SOL     OW59279   7.694   8.719   2.387 -0.7619  0.1851 -0.1533
19116SOL    HW159280   7.621   8.754   2.337  1.2988  3.2630 -1.3455
19116SOL    HW259281   7.689   8.764   2.472 -0.4575  0.1305 -0.1045
19117SOL     OW59282   3.839   8.364   0.080 -0.0789  0.0796  0.2444
19117SOL    HW159283   3.898   8.433   0.050  0.2397 -0.4390 -0.3588
19117SOL    HW259284   3.881   8.327   0.158  0.4303 -0.3210 -0.2130
19118SOL     OW59285   5.127   8.757   0.221  0.2010  0.4032 -0.8461
19118SOL    HW159286   5.091   8.837   0.260 -0.1412 -0.5530  0.9214
19118SOL    HW259287   5.218   8.777   0.204 -0.1030  1.4653 -1.2871
19119SOL     OW59288   7.768   1.254   0.886  0.0122  0.0480 -0.5312
19119SOL    HW159289   7.800   1.303   0.961  0.2052  0.5569 -0.9368
19119SOL    HW259290   7.734   1.173   0.923 -1.3551  0.9609  0.2729
19120SOL     OW59291   3.555   4.136   0.477  0.2264  0.6051  0.0123
19120SOL    HW159292   3.560   4.059   0.421  1.9944  1.4581 -1.0907
19120SOL    HW259293   3.597   4.109   0.559 -2.4692 -0.6810  1.0756
19121SOL     OW59294   0.016   8.685   4.332 -0.0484 -0.4128  0.0403
19121SOL    HW159295   0.057   8.738   4.263  1.3415 -0.0664  1.0787
19121SOL    HW259296  -0.013   8.748   4.397  0.4479 -0.8357  0.6864
19122SOL     OW59297   1.034   0.001   8.479 -0.8611  0.0549 -0.0951
19122SOL    HW159298   1.026  -0.064   8.549 -1.1851  0.4185  0.2128
19122SOL    HW259299   1.064  -0.049   8.403 -1.4997 -0.5264  0.0218
19123SOL     OW59300   1.777   1.661   3.441 -0.2995  0.1476 -0.0960
19123SOL    HW159301   1.741   1.621   3.520  3.0167 -0.6209  1.1784
19123SOL    HW259302   1.783   1.589   3.378 -0.2672  0.0895 -0.0269
19124SOL     OW59303   0.561   3.917   2.984  0.4242  0.3679 -0.6399
19124SOL    HW159304   0.569   4.009   3.008 -1.3026  0.5269 -0.5595
19124SOL    HW259305   0.468   3.906   2.961 -0.2994 -2.1306  2.6833
19125SOL     OW59306   4.913   1.213   2.722  0.0636  0.1816  0.0164
19125SOL    HW159307   4.953   1.299   2.734 -0.4459  0.2060  2.0724
19125SOL    HW259308   4.889   1.209   2.630  0.6024  2.0072 -0.2327
19126SOL     OW59309   6.005   2.139   7.654 -0.0393 -0.0095 -0.2921
19126SOL    HW159310   5.912   2.160   7.661 -0.3644 -1.2357 -0.6051
19126SOL    HW259311   6.024   2.148   7.560 -0.1596 -0.9648 -0.4137
19127SOL     OW59312   2.577   5.931   3.353 -0.0436 -0.1824 -0.2628
19127SOL    HW159313   2.559   5.961   3.264  0.7612 -0.9695 -0.7041
19127SOL    HW259314   2.516   5.859   3.368  0.6306 -0.8509 -0.6426
19128SOL     OW59315   6.636   0.447   5.800  0.1038 -0.1366  0.5309
19128SOL    HW159316   6.568   0.492   5.849 -2.0202  0.7727 -2.8870
19128SOL    HW259317   6.713   0.503   5.809 -0.9695  1.3702  0.7385
19129SOL     OW59318   0.231   3.452   5.907 -0.1390 -0.3543 -0.0993
19129SOL    HW159319   0.173   3.376   5.910 -0.8598  0.1698 -0.4736
19129SOL    HW259320   0.319   3.415   5.910 -0.4817 -1.1729  0.2700
19130SOL     OW59321   6.540   2.824   5.264  0.0547 -0.2120 -0.1420
19130SOL    HW159322   6.593   2.859   5.335  0.6195  1.3395 -1.2834
19130SOL    HW259323   6.494   2.900   5.228 -0.3564 -0.9884 -1.3158
19131SOL     OW59324   0.386   2.405   4.887  0.7926 -0.2596  0.1205
19131SOL    HW159325   0.373   2.311   4.897 -0.0838 -0.1492  0.0684
19131SOL    HW259326   0.434   2.431   4.965  0.8822 -0.7127  0.2223
19132SOL     OW59327   2.615   1.993   1.788 -0.3501 -0.6864  0.5972
19132SOL    HW159328   2.611   2.059   1.718 -1.6360  1.0825  2.2329
19132SOL    HW259329   2.643   1.913   1.743 -1.2448  0.3201 -1.9723
19133SOL     OW59330   3.473   4.725   4.154 -1.1337  0.3105  0.4710
19133SOL    HW159331   3.461   4.637   4.118 -0.6682  0.5983 -0.3903
19133SOL    HW259332   3.562   4.749   4.131 -1.5803  1.4075 -0.1869
19134SOL     OW59333   5.345   0.979   8.268 -0.1430 -0.3448 -0.5496
19134SOL    HW159334   5.434   1.007   8.288 -0.7353  2.0278 -0.8559
19134SOL    HW259335   5.355   0.899   8.217  1.6813 -1.4121  1.3080
19135SOL     OW59336   7.828   0.787   2.008  0.0058  0.5595 -0.1347
19135SOL    HW159337   7.913   0.810   1.973  1.0594  0.1452  2.0107
19135SOL    HW259338   7.835   0.802   2.102 -2.3060  0.5400  0.1068
19136SOL     OW59339   3.167   6.459   7.336 -0.1326 -0.1716  0.7386
19136SOL    HW159340   3.232   6.401   7.377  0.1715  0.1944  0.7760
19136SOL    HW259341   3.212   6.542   7.326 -0.3914 -0.0996  0.1711
19137SOL     OW59342   5.834   0.680   8.857 -0.2160 -0.4848  0.0700
19137SOL    HW159343   5.795   0.743   8.796  0.9017  0.6565  0.4846
19137SOL    HW259344   5.760   0.649   8.909 -1.0273 -0.6962 -1.1530
19138SOL     OW59345   8.481   5.366   2.380  0.0038  0.2989 -0.1899
19138SOL    HW159346   8.561   5.415   2.361  0.7480 -0.5802  0.5316
19138SOL    HW259347   8.449   5.402   2.462 -0.1753  0.4560 -0.3291
19139SOL     OW59348   2.768   8.012   3.485 -0.9638 -0.0990 -0.3485
19139SOL    HW159349   2.855   8.046   3.464 -1.0374  0.3243  0.0314
19139SOL    HW259350   2.712   8.045   3.415 -1.4729  2.4073  1.1068
19140SOL     OW59351   5.542   4.220   0.772 -0.0394 -0.7620  0.1084
19140SOL    HW159352   5.589   4.215   0.689  0.4684  0.8769  0.2651
19140SOL    HW259353   5.611   4.230   0.838 -0.3739 -2.8240  0.8610
19141SOL     OW59354   1.046   1.328   0.864  0.2737 -0.0211 -0.2959
19141SOL    HW159355   1.028   1.421   0.853 -0.6377 -0.1002  0.4417
19141SOL    HW259356   1.107   1.307   0.793  1.8225  1.4962  0.5028
19142SOL     OW59357   0.637   2.836   0.224 -0.3700 -0.0269 -0.4778
19142SOL    HW159358   0.672   2.890   0.295 -1.4151 -0.9530  0.7930
19142SOL    HW259359   0.715   2.807   0.176  0.2897  1.5657 -0.4599
19143SOL     OW59360   0.986   2.972   3.668 -0.1390  0.4786  0.4337
19143SOL    HW159361   1.021   3.018   3.745 -2.2803  0.5828  1.4049
19143SOL    HW259362   1.063   2.957   3.613  2.1364 -2.3664  3.9171
19144SOL     OW59363   5.720   5.723   6.286  0.2458 -0.5338  0.1904
19144SOL    HW159364   5.701   5.632   6.305 -0.0349 -0.9559 -1.8334
19144SOL    HW259365   5.803   5.741   6.329  0.6708 -1.9782  0.0004
19145SOL     OW59366   3.635   2.440   5.272  0.0193  0.1716 -0.3065
19145SOL    HW159367   3.690   2.411   5.199  0.9250 -0.8301  0.7312
19145SOL    HW259368   3.546   2.417   5.246  0.5865 -2.9522  0.1065
19146SOL     OW59369   5.942   6.339   6.391 -0.0398  0.1567  0.3280
19146SOL    HW159370   6.001   6.271   6.424 -0.3800  0.4334  1.5454
19146SOL    HW259371   5.863   6.331   6.445 -0.6402  0.5819 -0.4742
19147SOL     OW59372   8.770   0.510   2.876  0.0035 -0.3439  0.2490
19147SOL    HW159373   8.759   0.552   2.791  2.9330 -1.2676 -0.6906
19147SOL    HW259374   8.767   0.416   2.858  0.0829 -0.5611  1.2615
19148SOL     OW59375   5.112   6.358   2.316  0.3002  0.1274  0.2640
19148SOL    HW159376   5.070   6.315   2.391 -0.1901  0.4585  0.1824
19148SOL    HW259377   5.078   6.447   2.317 -0.2733 -0.0705 -0.7778
19149SOL     OW59378   0.559   0.149   4.285 -0.3329  0.2685 -0.5021
19149SOL    HW159379   0.566   0.215   4.216  0.3801 -1.0460 -1.7568
19149SOL    HW259380   0.531   0.069   4.239 -2.4369 -0.0248  1.1634
19150SOL     OW59381   7.764   8.314   7.844  0.0924 -0.3045  0.0080
19150SOL    HW159382   7.797   8.388   7.895  1.3810 -0.9892  0.2200
19150SOL    HW259383   7.822   8.310   7.768 -1.5055  0.4027 -1.3006
19151SOL     OW59384   6.509   5.497   5.355  0.6812 -0.0839 -0.0814
19151SOL    HW159385   6.470   5.452   5.280  2.5691 -1.7886 -0.1402
19151SOL    HW259386   6.457   5.577   5.366 -0.8859 -0.7880 -1.9289
19152SOL     OW59387   6.067   6.979   5.366 -0.0255  0.0278  0.2067
19152SOL    HW159388   6.025   7.054   5.409  0.3267  0.4168 -0.1285
19152SOL    HW259389   6.087   7.010   5.278  1.3062 -0.0319  0.4709
19153SOL     OW59390   3.226   6.627   1.368  0.2212 -0.0853 -0.0955
19153SOL    HW159391   3.155   6.668   1.419 -1.4397 -0.9795 -1.5815
19153SOL    HW259392   3.303   6.680   1.388 -0.4214 -0.1264  2.9591
19154SOL     OW59393   0.711   8.746   0.187  0.2490 -0.4182  0.0485
19154SOL    HW159394   0.628   8.741   0.234  1.4583  1.2435  2.6183
19154SOL    HW259395   0.735   8.839   0.191  2.5408 -0.9466  0.0677
19155SOL     OW59396   0.468   5.088   2.256 -0.3183  0.1538  0.3171
19155SOL    HW159397   0.384   5.044   2.247 -0.2819  0.2191 -0.5009
19155SOL    HW259398   0.501   5.062   2.342 -0.1466 -1.6995 -0.2607
19156SOL     OW59399   5.769   1.355   3.854 -0.6777 -0.7841 -0.4724
19156SOL    HW159400   5.758   1.331   3.946  1.9119 -2.6670 -0.5470
19156SOL    HW259401   5.808   1.442   3.856 -0.4632 -0.8932  0.2180
19157SOL     OW59402   7.203   8.528   6.321  0.1212 -0.1569 -0.3902
19157SOL    HW159403   7.148   8.565   6.252  1.3510 -0.3352 -1.4974
19157SOL    HW259404   7.209   8.598   6.386 -0.0519  0.4802 -1.0434
19158SOL     OW59405   3.581   5.749   7.250  0.6875 -0.3873 -0.1032
19158SOL    HW159406   3.657   5.805   7.238  0.0341  0.5146 -0.1194
19158SOL    HW259407   3.516   5.784   7.189  0.2051 -1.0549  0.0143
19159SOL     OW59408   2.693   5.060   5.117  0.4855  0.3778  0.0853
19159SOL    HW159409   2.624   4.994   5.114 -0.8323  1.7151  0.0994
19159SOL    HW259410   2.762   5.026   5.060  0.0978 -1.2717  0.5569
19160SOL     OW59411   1.288   1.924   7.443 -0.6364  0.4151 -0.5315
19160SOL    HW159412   1.247   2.010   7.429 -0.0594  1.1314  1.6791
19160SOL    HW259413   1.368   1.927   7.391 -0.4265  1.4090 -0.1833
19161SOL     OW59414   5.498   2.558   3.173 -0.2655 -0.1419  0.0812
19161SOL    HW159415   5.438   2.621   3.212  1.5087  1.6783  0.0394
19161SOL    HW259416   5.585   2.590   3.196  0.7518 -1.6039 -1.4485
19162SOL     OW59417   8.406   1.486   8.422 -0.6776 -0.6600  0.5259
19162SOL    HW159418   8.438   1.574   8.406  0.5159 -0.8097  1.9246
19162SOL    HW259419   8.327   1.479   8.368  0.6821  0.2982 -1.7434
19163SOL     OW59420   1.233   5.783   0.695  0.2664  0.1689  0.1801
19163SOL    HW159421   1.329   5.782   0.687  0.1887  0.4193 -0.9381
19163SOL    HW259422   1.208   5.874   0.679 -0.1989 -0.0080 -0.1302
19164SOL     OW59423   7.317   1.512   0.838 -0.0301  0.4863  0.3184
19164SOL    HW159424   7.224   1.513   0.817 -0.2087  1.2747  1.0990
19164SOL    HW259425   7.322   1.474   0.926  0.3963  0.3582  0.2439
19165SOL     OW59426   6.093   6.991   3.508 -0.2392  0.4619  0.0900
19165SOL    HW159427   6.002   7.020   3.501 -0.3798 -0.0279 -0.1952
19165SOL    HW259428   6.091   6.900   3.477  0.4887  0.7021 -0.6956
19166SOL     OW59429   7.474   6.371   7.300  0.1082  0.1924 -0.8421
19166SOL    HW159430   7.425   6.414   7.370  1.0253 -1.1173  0.6693
19166SOL    HW259431   7.538   6.437   7.271 -0.1779  0.6892 -0.3522
19167SOL     OW59432   8.070   5.912   3.314  0.0304  0.0586 -0.4869
19167SOL    HW159433   8.121   5.842   3.273  0.9781  0.3808  0.1139
19167SOL    HW259434   8.013   5.866   3.375  2.6625 -0.0986  2.0737
19168SOL     OW59435   7.083   5.636   4.302  0.3064 -0.3146 -0.5087
19168SOL    HW159436   7.128   5.577   4.362  0.7702  0.8412  0.3179
19168SOL    HW259437   7.009   5.670   4.351 -0.3875 -0.7597 -1.2247
19169SOL     OW59438   0.996   3.514   6.282  0.2306 -0.5673 -0.2141
19169SOL    HW159439   1.085   3.545   6.296 -0.6944  2.0414  0.5213
19169SOL    HW259440   0.989   3.436   6.336  1.8978 -0.4950  0.1633
19170SOL     OW59441   0.411   7.001   0.598  0.4007  0.2328  0.1281
19170SOL    HW159442   0.402   7.096   0.609 -0.4623  0.1894 -0.1583
19170SOL    HW259443   0.461   6.992   0.517  1.1410  0.4454  0.5494
19171SOL     OW59444   0.650   1.533   7.650  0.3864  0.0109 -0.6023
19171SOL    HW159445   0.699   1.471   7.704  1.4947  0.0333 -1.5411
19171SOL    HW259446   0.585   1.479   7.605 -3.1565  0.4089  3.3277
19172SOL     OW59447   1.858   5.682   7.703  0.1716 -0.1112 -0.0074
19172SOL    HW159448   1.814   5.719   7.626  1.2364 -0.2031 -0.6845
19172SOL    HW259449   1.798   5.614   7.734 -0.7956  0.6914 -0.0621
19173SOL     OW59450   6.942   6.513   4.611  0.3614 -0.3625  0.0116
19173SOL    HW159451   6.906   6.594   4.647  0.9510 -0.1775  0.1812
19173SOL    HW259452   6.934   6.523   4.516 -0.0135 -0.3148  0.0459
19174SOL     OW59453   4.200   6.211   1.368 -0.3168  0.2137 -0.0395
19174SOL    HW159454   4.292   6.197   1.343 -0.4756 -0.3956 -0.2934
19174SOL    HW259455   4.159   6.248   1.290 -0.2835  0.4896  0.0755
19175SOL     OW59456   7.537   8.642   3.284  0.1213  0.4444  0.7353
19175SOL    HW159457   7.576   8.562   3.318  1.4056  0.7225 -0.0203
19175SOL    HW259458   7.599   8.674   3.219  0.0844  2.5216  1.6140
19176SOL     OW59459   4.801   6.915   1.343 -0.2409 -0.1241 -0.3023
19176SOL    HW159460   4.818   6.878   1.430 -0.1990  0.8671  0.1264
19176SOL    HW259461   4.730   6.862   1.308 -0.4240 -0.3796  0.4393
19177SOL     OW59462   3.581   7.078   0.834  0.3241 -0.0740 -0.5179
19177SOL    HW159463   3.607   7.141   0.902  1.3025 -2.0601  1.0793
19177SOL    HW259464   3.617   6.995   0.865 -0.1624 -1.2696 -2.9741
19178SOL     OW59465   5.407   4.769   8.033  0.4287  0.3630  0.1136
19178SOL    HW159466   5.378   4.788   8.122  0.2330 -1.7494  0.5501
19178SOL    HW259467   5.461   4.691   8.041  0.3205  0.0655 -1.6393
19179SOL     OW59468   6.760   4.435   5.263  0.7984  0.1353 -0.0518
19179SOL    HW159469   6.682   4.486   5.243  0.9911  0.4772  0.0590
19179SOL    HW259470   6.823   4.499   5.297  1.7324  0.1722 -1.7278
19180SOL     OW59471   8.200   0.253   7.948 -0.0215 -0.4481  0.0323
19180SOL    HW159472   8.261   0.244   7.875 -0.3823  0.0399 -0.3397
19180SOL    HW259473   8.249   0.222   8.024  1.3255  1.4666  0.0481
19181SOL     OW59474   8.430   4.299   4.804  0.3889 -0.3925 -0.2414
19181SOL    HW159475   8.360   4.321   4.744  1.0441 -2.3897 -1.8569
19181SOL    HW259476   8.388   4.248   4.873 -0.1665  0.8900  0.4036
19182SOL     OW59477   4.162   7.554   6.255 -0.0270  0.6201 -0.2158
19182SOL    HW159478   4.182   7.461   6.249 -1.3989  0.2307  0.7488
19182SOL    HW259479   4.239   7.598   6.218  1.7069 -0.8018  1.5025
19183SOL     OW59480   4.581   8.389   2.811 -0.2841 -0.2550 -0.6726
19183SOL    HW159481   4.539   8.470   2.839  1.1416  0.7572 -1.3721
19183SOL    HW259482   4.554   8.324   2.876 -2.0648  0.5688 -0.5300
19184SOL     OW59483   2.197   3.858   4.925  0.3187 -0.1869 -0.0203
19184SOL    HW159484   2.112   3.899   4.908  0.1709 -0.6823 -0.4966
19184SOL    HW259485   2.261   3.924   4.898  0.1072  0.5877  1.2856
19185SOL     OW59486   3.135   4.606   3.604  0.4101  0.6333 -0.4927
19185SOL    HW159487   3.145   4.692   3.646  0.9057  1.0425 -1.4352
19185SOL    HW259488   3.112   4.626   3.513 -1.9557 -0.2435 -0.1682
19186SOL     OW59489   0.502   6.175   8.683  0.0132 -0.3668  0.5479
19186SOL    HW159490   0.566   6.150   8.617  1.6887  0.3269  1.8387
19186SOL    HW259491   0.466   6.258   8.651 -1.9202 -1.7975 -1.2576
19187SOL     OW59492   7.832   6.408   2.798  0.6540  0.2785  0.1089
19187SOL    HW159493   7.809   6.361   2.878 -1.0704 -0.3605 -0.7111
19187SOL    HW259494   7.823   6.343   2.728  0.6389  1.1887 -0.7699
19188SOL     OW59495   7.195   8.743   0.157  0.0600 -0.3627 -0.2713
19188SOL    HW159496   7.251   8.808   0.113  0.3203 -0.3555  0.0711
19188SOL    HW259497   7.116   8.740   0.103 -0.1034  0.4969 -0.0896
19189SOL     OW59498   0.395   1.090   8.788 -0.0867 -0.4310 -0.0730
19189SOL    HW159499   0.476   1.045   8.766 -0.4230 -0.2648 -1.7531
19189SOL    HW259500   0.420   1.150   8.859  1.0597 -0.9698  0.0020
19190SOL     OW59501   6.596   4.866   0.321 -0.0320 -0.3536  0.5599
19190SOL    HW159502   6.603   4.913   0.404  0.2045 -1.3767  1.1366
19190SOL    HW259503   6.540   4.922   0.266  0.8205  0.9307  0.9577
19191SOL     OW59504   1.917   5.933   7.421 -0.3067  0.0608 -0.1383
19191SOL    HW159505   1.935   5.844   7.450 -0.1680 -1.2871 -3.8488
19191SOL    HW259506   1.989   5.985   7.457 -0.6030 -1.1569  2.4306
19192SOL     OW59507   3.031   4.633   0.735 -0.1322 -0.1629  0.6057
19192SOL    HW159508   3.116   4.619   0.776 -0.0455 -0.3979  0.3453
19192SOL    HW259509   2.973   4.658   0.808 -0.2759 -1.7829  1.0939
19193SOL     OW59510   0.613   3.551   4.611 -0.4614 -0.4243 -0.1406
19193SOL    HW159511   0.554   3.531   4.538 -0.3543  2.5968 -1.1867
19193SOL    HW259512   0.555   3.570   4.685 -1.0417  3.2754 -1.3577
19194SOL     OW59513   0.508   8.695   3.434 -0.2727  0.1015  0.0016
19194SOL    HW159514   0.535   8.719   3.523  1.0245 -0.1230 -0.3113
19194SOL    HW259515   0.435   8.753   3.415  0.5247  1.3519  0.5772
19195SOL     OW59516   0.307   4.636   6.011  0.3704 -0.1581  0.3410
19195SOL    HW159517   0.285   4.543   6.010 -0.0951 -0.0449 -0.6516
19195SOL    HW259518   0.325   4.655   6.103 -2.2831 -0.5926  1.0220
19196SOL     OW59519   6.478   3.105   3.340 -0.2977  0.1078  0.0688
19196SOL    HW159520   6.483   3.200   3.338  0.5330  0.0602 -0.1043
19196SOL    HW259521   6.384   3.087   3.352 -0.4737  0.9365  0.0091
19197SOL     OW59522   5.198   8.448   3.309 -0.5777 -0.2176  0.3532
19197SOL    HW159523   5.271   8.392   3.281 -1.6392 -0.0594 -3.1302
19197SOL    HW259524   5.211   8.530   3.261 -1.6250  0.8511  1.7850
19198SOL     OW59525   8.060   0.924   4.305  0.1502 -0.4212 -0.9327
19198SOL    HW159526   8.013   0.854   4.350  1.5945 -1.4732 -1.0089
19198SOL    HW259527   7.991   0.974   4.261 -1.0786 -0.6552  0.6484
19199SOL     OW59528   8.731   2.695   1.735  0.0828  0.2379 -0.4353
19199SOL    HW159529   8.672   2.750   1.682  1.1862  0.3249 -1.6374
19199SOL    HW259530   8.796   2.663   1.672 -0.8426 -2.9883  0.0610
19200SOL     OW59531   6.516   5.596   1.223 -0.1625  0.0828  0.1016
19200SOL    HW159532   6.501   5.673   1.167 -1.7176  0.5462  1.0774
19200SOL    HW259533   6.599   5.613   1.266  0.4911  0.2614 -1.1776
19201SOL     OW59534   8.139   3.161   3.612  0.6363 -0.2847  0.2564
19201SOL    HW159535   8.163   3.083   3.662  1.1188 -0.1094  0.3048
19201SOL    HW259536   8.049   3.180   3.639 -0.0843 -1.7499 -0.9494
19202SOL     OW59537   4.043   7.817   5.353 -0.0182  0.1195 -0.3820
19202SOL    HW159538   3.949   7.829   5.364  0.2517  1.6877  0.5185
19202SOL    HW259539   4.056   7.722   5.355 -1.6362 -0.1444 -1.1500
19203SOL     OW59540   7.956   4.260   1.851 -0.7257 -0.9253  0.6383
19203SOL    HW159541   7.950   4.172   1.814 -2.2626 -0.6082  0.0266
19203SOL    HW259542   7.881   4.306   1.814  0.6691  0.9960  0.0461
19204SOL     OW59543   0.466   2.426   4.392  0.7178 -0.7588 -0.2502
19204SOL    HW159544   0.457   2.361   4.323 -2.0096 -2.1791  1.2819
19204SOL    HW259545   0.495   2.376   4.469 -1.5268 -0.2970  0.9815
19205SOL     OW59546   3.985   4.759   5.243  0.3539 -0.1369 -0.0528
19205SOL    HW159547   4.037   4.793   5.170 -1.3777  0.2695 -1.1645
19205SOL    HW259548   3.903   4.807   5.238 -0.0093 -0.4900  1.8702
19206SOL     OW59549   7.665   1.314   4.912 -0.0204 -0.4204  0.1832
19206SOL    HW159550   7.735   1.355   4.860  0.5574  3.9711  3.7750
19206SOL    HW259551   7.712   1.258   4.974  0.0693  0.1982  0.6848
19207SOL     OW59552   7.093   1.612   3.821 -0.0113  0.2958  0.1892
19207SOL    HW159553   7.110   1.686   3.879 -2.2046 -0.7049  2.3000
19207SOL    HW259554   7.180   1.578   3.798  0.9632  1.4208  1.9989
19208SOL     OW59555   2.386   0.273   3.518  0.3062  0.2951  0.2545
19208SOL    HW159556   2.442   0.255   3.443  0.0852 -0.8200  0.3349
19208SOL    HW259557   2.443   0.318   3.581  1.0459 -0.5582  0.2165
19209SOL     OW59558   4.694   0.811   5.322 -0.2486 -0.4402  0.1329
19209SOL    HW159559   4.634   0.876   5.286  1.4074  1.0984  0.0545
19209SOL    HW259560   4.754   0.791   5.250 -0.1358 -1.3249  0.4590
19210SOL     OW59561   2.453   2.790   5.563 -0.3786 -0.9719 -0.1993
19210SOL    HW159562   2.366   2.798   5.604 -1.1666 -0.8255 -1.8385
19210SOL    HW259563   2.489   2.878   5.566 -0.4246 -0.9606  0.1562
19211SOL     OW59564   3.990   5.370   4.851 -0.5149 -0.2499 -0.6671
19211SOL    HW159565   3.929   5.396   4.782 -0.0215 -0.4418 -1.1774
19211SOL    HW259566   3.937   5.315   4.909 -0.8711 -0.2778 -1.0135
19212SOL     OW59567   2.278   3.808   5.191  0.1230  0.8887 -0.0080
19212SOL    HW159568   2.221   3.832   5.118 -0.0640  0.1137 -0.1238
19212SOL    HW259569   2.250   3.720   5.216  0.0825  1.1933  1.1013
19213SOL     OW59570   4.442   1.719   1.224  0.6596 -0.1122 -0.1298
19213SOL    HW159571   4.492   1.653   1.176  0.2520  0.1758 -0.9748
19213SOL    HW259572   4.505   1.756   1.286  0.4477 -2.5508  1.7112
19214SOL     OW59573   1.035   4.031   5.489  0.5662  0.3921  0.4686
19214SOL    HW159574   1.131   4.035   5.491  0.5920  0.1249 -0.1139
19214SOL    HW259575   1.015   3.937   5.489  0.3037  0.4474  0.6123
19215SOL     OW59576   6.248   4.383   7.854  0.1311 -0.8655  0.4036
19215SOL    HW159577   6.310   4.328   7.807  0.9983 -0.2418  0.7808
19215SOL    HW259578   6.285   4.471   7.848 -0.6920 -0.4862  0.6861
19216SOL     OW59579   5.051   6.590   5.364  0.4922  0.4573  0.2508
19216SOL    HW159580   5.131   6.549   5.398  0.6888  0.5182 -0.1328
19216SOL    HW259581   5.064   6.594   5.269  0.6332  1.7454  0.3043
19217SOL     OW59582   0.406   6.130   7.176  0.0796  0.1532 -0.0059
19217SOL    HW159583   0.468   6.152   7.245  0.5146 -0.6664 -0.1229
19217SOL    HW259584   0.327   6.101   7.222  0.3140 -0.2434  0.1553
19218SOL     OW59585   1.660   2.139   4.696 -0.5499  0.4172 -0.4472
19218SOL    HW159586   1.674   2.048   4.669  0.6366  0.5056 -0.2029
19218SOL    HW259587   1.689   2.142   4.787 -0.8682  0.9703 -0.3612
19219SOL     OW59588   1.073   6.769   6.596  0.0064 -0.6021 -0.7633
19219SOL    HW159589   1.013   6.717   6.650 -0.4410 -1.5625 -2.1344
19219SOL    HW259590   1.056   6.859   6.622 -1.3345 -0.9302 -0.4041
19220SOL     OW59591   2.775   5.074   1.382  0.2520 -0.0483  0.4402
19220SOL    HW159592   2.713   5.026   1.437 -1.2203  1.3685  0.0894
19220SOL    HW259593   2.808   5.009   1.320 -0.6790 -0.9031  0.8191
19221SOL     OW59594   2.626   5.280   6.617  0.4294 -0.0410  1.0645
19221SOL    HW159595   2.686   5.206   6.610 -0.1404 -0.3938 -0.4906
19221SOL    HW259596   2.677   5.355   6.589  0.0951 -0.3911 -0.5646
19222SOL     OW59597   1.254   8.296   4.606  0.1036 -0.3330  0.1085
19222SOL    HW159598   1.216   8.239   4.539 -1.8417  0.3776  0.5246
19222SOL    HW259599   1.275   8.377   4.559 -2.4568  0.6480  0.4846
19223SOL     OW59600   5.065   7.881   0.380 -0.2745 -0.2060 -0.0723
19223SOL    HW159601   5.066   7.848   0.290 -1.9180  2.2810 -1.1179
19223SOL    HW259602   4.975   7.870   0.408 -0.8064  2.7597 -0.3255
19224SOL     OW59603   5.579   0.599   1.814  0.5653 -0.0080 -0.0423
19224SOL    HW159604   5.633   0.550   1.752  0.9180 -0.9796  0.9855
19224SOL    HW259605   5.492   0.561   1.805  0.8182 -0.8083  0.6868
19225SOL     OW59606   3.215   0.423   7.149  0.2636 -0.1779 -0.0626
19225SOL    HW159607   3.152   0.474   7.198 -3.1170 -2.0745 -2.0757
19225SOL    HW259608   3.241   0.479   7.076 -1.3872 -0.3220 -0.7957
19226SOL     OW59609   4.558   7.733   4.360  0.1623  0.1286 -0.1171
19226SOL    HW159610   4.646   7.698   4.377  0.1580  0.1295 -0.0951
19226SOL    HW259611   4.548   7.804   4.423 -0.1139 -0.2940  0.3175
19227SOL     OW59612   4.984   6.436   3.632  0.0696  0.2482  0.4495
19227SOL    HW159613   4.960   6.521   3.670 -1.5079  0.1860 -0.3279
19227SOL    HW259614   5.033   6.458   3.553  2.2137  0.3814  1.7470
19228SOL     OW59615   7.212   3.948   7.777  0.2253  0.1733  0.1054
19228SOL    HW159616   7.216   4.004   7.855 -0.4345 -0.7384  0.8170
19228SOL    HW259617   7.299   3.907   7.774  0.4608  0.6678  0.0008
19229SOL     OW59618   3.832   4.056   3.444 -0.0447 -0.1902  0.5354
19229SOL    HW159619   3.820   4.143   3.406  0.4794  0.1681  1.1654
19229SOL    HW259620   3.866   4.072   3.532  2.3002 -1.0400 -0.1262
19230SOL     OW59621   3.106   4.472   4.381  0.2914 -0.0152 -0.1712
19230SOL    HW159622   3.124   4.442   4.470  2.5009 -0.2861 -0.6540
19230SOL    HW259623   3.126   4.396   4.325 -0.2679  0.4030 -0.9599
19231SOL     OW59624   1.235   8.671   0.433  0.1904  0.1667 -0.0847
19231SOL    HW159625   1.271   8.760   0.431  1.3575 -0.2652 -2.0834
19231SOL    HW259626   1.247   8.642   0.523  1.7899  1.2771  0.1036
19232SOL     OW59627   8.754   7.521   5.729 -0.2768  0.5331 -0.4989
19232SOL    HW159628   8.706   7.527   5.647 -0.3878  1.3001 -0.3801
19232SOL    HW259629   8.811   7.444   5.718 -1.1602 -0.0853 -0.8230
19233SOL     OW59630   1.512   7.208   1.380  0.9345 -0.7292 -0.3259
19233SOL    HW159631   1.504   7.268   1.305 -0.1287 -0.3087  0.1019
19233SOL    HW259632   1.490   7.261   1.456 -0.1420 -1.6688  0.0501
19234SOL     OW59633   1.856   7.877   3.330 -0.5815  0.3440 -0.2652
19234SOL    HW159634   1.896   7.960   3.303  1.6365 -0.3021  0.8789
19234SOL    HW259635   1.799   7.901   3.404 -2.3646  1.2421 -1.8207
19235SOL     OW59636   5.149   5.230   0.944  0.0316  0.0221  0.1435
19235SOL    HW159637   5.127   5.182   0.864 -0.0446 -1.0972  0.8104
19235SOL    HW259638   5.074   5.287   0.959  0.8452  1.6596 -1.5826
19236SOL     OW59639   0.747   5.770   1.119 -0.0475 -0.2612  0.1446
19236SOL    HW159640   0.660   5.734   1.102  1.0396 -2.4222 -1.4140
19236SOL    HW259641   0.746   5.795   1.211 -2.2823 -0.2662  0.1624
19237SOL     OW59642   3.482   0.670   6.835  0.0892 -0.3610 -0.1465
19237SOL    HW159643   3.559   0.726   6.848  0.3895 -0.4322 -1.4749
19237SOL    HW259644   3.425   0.690   6.909  1.6391 -0.7455  1.1892
19238SOL     OW59645   1.067   5.566   8.325  0.8682 -0.7994 -0.2998
19238SOL    HW159646   1.011   5.522   8.261  1.2335 -0.4559 -0.8579
19238SOL    HW259647   1.024   5.549   8.409  0.8065 -1.9295 -0.5333
19239SOL     OW59648   2.703   6.841   8.819  0.1002 -0.1878  0.0236
19239SOL    HW159649   2.659   6.896   8.753 -0.9362 -0.8391  0.1390
19239SOL    HW259650   2.634   6.784   8.851  0.7985 -0.4726  1.0637
19240SOL     OW59651   4.973   1.790   3.707 -0.1931 -0.0075 -0.0153
19240SOL    HW159652   5.033   1.862   3.728  0.4833 -0.6917  0.4592
19240SOL    HW259653   4.926   1.774   3.789 -0.3159 -0.1278 -0.1086
19241SOL     OW59654   4.084   0.804   8.013 -0.1048  0.2702 -0.3738
19241SOL    HW159655   4.024   0.794   7.939 -1.4914 -0.0096  0.7365
19241SOL    HW259656   4.099   0.898   8.020  0.4834  0.2581 -1.3304
19242SOL     OW59657   5.976   5.319   2.471  0.0082 -0.0979  0.3553
19242SOL    HW159658   6.039   5.255   2.440  2.2137 -0.7358  5.1623
19242SOL    HW259659   6.005   5.402   2.433  1.0590 -1.0110 -0.9158
19243SOL     OW59660   4.923   0.630   0.381  0.4223  0.4100  0.1271
19243SOL    HW159661   4.859   0.579   0.430 -0.2371  2.3329  1.3325
19243SOL    HW259662   4.876   0.662   0.304  0.8019 -0.6053 -0.5605
19244SOL     OW59663   1.282   3.577   7.517 -0.0825  0.1345  1.1136
19244SOL    HW159664   1.276   3.635   7.593  0.6648  0.4184  0.9711
19244SOL    HW259665   1.254   3.492   7.549 -0.9241  0.5098  1.4043
19245SOL     OW59666   5.246   1.068   6.664 -0.2326  0.2586  0.0809
19245SOL    HW159667   5.174   1.130   6.672  0.5132  1.3450 -1.1812
19245SOL    HW259668   5.249   1.024   6.749 -1.3514  1.3118  0.7052
19246SOL     OW59669   4.222   5.893   7.833 -0.2244  0.6885 -0.1576
19246SOL    HW159670   4.201   5.813   7.786  0.0199  0.5064  0.0442
19246SOL    HW259671   4.317   5.903   7.823 -0.0528  0.2740  0.8740
19247SOL     OW59672   8.004   5.341   6.843 -0.2791  0.1796 -0.5764
19247SOL    HW159673   8.066   5.407   6.812  0.8707 -0.3846  0.4185
19247SOL    HW259674   8.039   5.313   6.927  0.2564 -2.9482 -1.6966
19248SOL     OW59675   0.024   1.752   0.048 -0.1668  0.5235 -0.7954
19248SOL    HW159676   0.076   1.810   0.103  0.4964 -0.5546 -0.2562
19248SOL    HW259677   0.079   1.674   0.036 -1.3078 -0.2894 -0.9073
19249SOL     OW59678   4.047   4.015   3.299  0.0781  0.1457 -0.0466
19249SOL    HW159679   3.964   4.000   3.345  0.4680  0.8385  0.9181
19249SOL    HW259680   4.095   3.933   3.312  0.2691  0.4015  1.0048
19250SOL     OW59681   4.565   4.351   8.128  0.5540  0.0022 -0.1090
19250SOL    HW159682   4.635   4.294   8.096  0.3273  0.0156 -0.6402
19250SOL    HW259683   4.610   4.432   8.154  0.7466 -0.0303 -0.3373
19251SOL     OW59684   5.630   5.688   0.513  0.2033  0.3394 -0.3274
19251SOL    HW159685   5.667   5.751   0.451  1.6994 -0.3643 -0.2030
19251SOL    HW259686   5.700   5.674   0.577  0.6295 -2.7988 -1.3419
19252SOL     OW59687   3.139   4.501   0.448 -1.0484  0.0228 -0.3188
19252SOL    HW159688   3.214   4.491   0.506 -2.1990 -1.1473  1.0549
19252SOL    HW259689   3.066   4.524   0.507 -2.1262 -0.5636 -1.3775
19253SOL     OW59690   2.231   1.106   7.053  0.2131  0.3349 -0.1776
19253SOL    HW159691   2.233   1.134   6.962 -1.5319  0.4004 -0.2396
19253SOL    HW259692   2.309   1.052   7.063  0.2176 -0.0388 -1.8444
19254SOL     OW59693   7.995   5.105   2.957 -0.1387  0.9189  0.0109
19254SOL    HW159694   8.038   5.023   2.982  0.9121  1.4042 -0.1681
19254SOL    HW259695   7.922   5.078   2.901 -0.2857  0.0642  0.5931
19255SOL     OW59696   0.102   7.743   7.110 -0.1264 -0.0732  0.1533
19255SOL    HW159697   0.129   7.751   7.019  0.0185 -0.4288  0.1649
19255SOL    HW259698   0.051   7.822   7.127  2.6040  1.7265  0.7176
19256SOL     OW59699   3.448   2.268   7.564  0.0573 -0.5488  0.0744
19256SOL    HW159700   3.368   2.320   7.557  0.1458 -0.1698  1.5698
19256SOL    HW259701   3.504   2.300   7.493  0.1379  1.4861  0.9756
19257SOL     OW59702   6.087   5.240   6.960  0.0167 -0.2477 -0.1944
19257SOL    HW159703   6.087   5.219   6.867  0.3140 -0.8871 -0.0556
19257SOL    HW259704   6.025   5.312   6.968 -0.4118 -0.5383 -0.8096
19258SOL     OW59705   2.923   3.567   1.362  0.1685  0.0872  0.6535
19258SOL    HW159706   2.936   3.472   1.358 -1.2671 -0.1263  0.5732
19258SOL    HW259707   2.832   3.578   1.389  0.2396  1.4488  0.4194
19259SOL     OW59708   6.663   0.134   4.296  0.6309 -0.4372  0.0557
19259SOL    HW159709   6.703   0.086   4.368  1.0036 -0.3802 -0.1066
19259SOL    HW259710   6.734   0.189   4.262  0.1927  0.2870  0.2878
19260SOL     OW59711   5.495   7.064   2.839 -0.0883  0.2192  0.2835
19260SOL    HW159712   5.589   7.050   2.856  0.0760  0.9680  0.0093
19260SOL    HW259713   5.484   7.043   2.746 -0.1205  0.4819  0.2268
19261SOL     OW59714   1.391   7.303   4.439  0.0280 -0.0954 -0.2741
19261SOL    HW159715   1.468   7.256   4.406  0.6454  0.1240  0.7752
19261SOL    HW259716   1.337   7.319   4.362  1.3816  0.3903 -1.1587
19262SOL     OW59717   3.777   8.425   5.014  0.4278  0.1077  0.1095
19262SOL    HW159718   3.729   8.362   5.068 -1.3071  0.4212 -0.9664
19262SOL    HW259719   3.748   8.510   5.046  0.9205  0.3230 -0.0140
19263SOL     OW59720   3.243   8.217   5.452  0.0781  0.2828 -0.3007
19263SOL    HW159721   3.250   8.306   5.417 -1.2562  0.4049 -0.3164
19263SOL    HW259722   3.309   8.214   5.521  1.0943  0.8193 -1.2182
19264SOL     OW59723   1.235   0.624   4.488 -0.5530 -0.2646  0.1244
19264SOL    HW159724   1.205   0.535   4.470 -1.1334 -0.1915  0.7071
19264SOL    HW259725   1.159   0.669   4.526 -0.8300  1.0242 -1.8222
19265SOL     OW59726   4.431   0.519   1.317 -0.4848  0.0272  0.0929
19265SOL    HW159727   4.525   0.526   1.337 -0.2545  0.9244 -1.1543
19265SOL    HW259728   4.420   0.429   1.288 -0.2961 -0.4852  1.5200
19266SOL     OW59729   3.472   5.348   8.757 -1.3041 -0.0463  0.3624
19266SOL    HW159730   3.522   5.334   8.837  2.0056  0.8220 -1.3409
19266SOL    HW259731   3.406   5.412   8.780 -0.9332 -0.3881  2.5458
19267SOL     OW59732   8.410   8.533   2.046 -0.1874  0.1921  0.1598
19267SOL    HW159733   8.376   8.578   1.968  1.3547 -0.0193 -0.6729
19267SOL    HW259734   8.348   8.461   2.060  0.2700 -0.6604 -1.8094
19268SOL     OW59735   4.802   8.768   3.558  0.1771 -0.2559 -0.2126
19268SOL    HW159736   4.843   8.800   3.477 -0.6006  2.2575  0.2810
19268SOL    HW259737   4.720   8.728   3.530 -0.1247  0.6734 -0.7057
19269SOL     OW59738   6.533   8.711   5.862 -0.5142  0.7965  0.1845
19269SOL    HW159739   6.523   8.659   5.782  2.1396 -0.3058  0.4335
19269SOL    HW259740   6.535   8.802   5.832  0.3874  0.4008 -1.0467
19270SOL     OW59741   2.933   7.669   7.475 -0.1345 -0.1292 -0.2258
19270SOL    HW159742   2.970   7.659   7.563  0.4835 -1.8149 -0.6229
19270SOL    HW259743   2.863   7.604   7.471  0.0179 -0.2557 -1.0570
19271SOL     OW59744   5.096   7.082   4.038  0.0080 -0.2265  0.1884
19271SOL    HW159745   5.047   7.136   3.976  0.7752 -0.2102 -0.4277
19271SOL    HW259746   5.029   7.033   4.085 -0.5941 -0.2312 -0.6487
19272SOL     OW59747   1.757   4.502   2.925 -0.0683  0.1897  0.3169
19272SOL    HW159748   1.764   4.592   2.956  0.2285  1.0254 -1.9445
19272SOL    HW259749   1.708   4.456   2.993  0.7328  1.7737  2.0318
19273SOL     OW59750   3.345   5.984   3.317 -0.2598  0.4873 -0.0672
19273SOL    HW159751   3.392   6.028   3.388 -0.9306  0.0270  0.6864
19273SOL    HW259752   3.353   6.042   3.242  0.0950  1.1951  0.5157
19274SOL     OW59753   4.550   8.834   6.172 -0.5709 -0.4133  0.2516
19274SOL    HW159754   4.587   8.776   6.239  0.5927 -1.1571 -0.9945
19274SOL    HW259755   4.551   8.920   6.212  1.4769 -0.5965  0.7088
19275SOL     OW59756   0.128   3.475   0.655  0.0137  0.1771 -0.0485
19275SOL    HW159757   0.183   3.487   0.732 -1.5819  0.0105  1.1748
19275SOL    HW259758   0.065   3.547   0.658 -1.3962 -0.9925  0.0371
19276SOL     OW59759   3.100   3.691   1.193  0.4247 -0.3079 -0.3890
19276SOL    HW159760   3.030   3.644   1.239  1.4594 -1.6961 -0.1534
19276SOL    HW259761   3.172   3.694   1.256  0.7557  0.6556 -0.8002
19277SOL     OW59762   7.268   0.791   7.716  0.6722  0.3939  0.0148
19277SOL    HW159763   7.228   0.872   7.683 -1.4201 -0.5769  0.0072
19277SOL    HW259764   7.361   0.813   7.725  0.1287  2.9423  0.4282
19278SOL     OW59765   3.286   5.368   1.807  0.6123  0.5427  0.3502
19278SOL    HW159766   3.201   5.407   1.830  0.4188 -0.4406  1.3928
19278SOL    HW259767   3.293   5.291   1.863  1.6437 -0.0989 -0.6250
19279SOL     OW59768   3.308   7.651   4.568 -0.0757  0.0538  0.2083
19279SOL    HW159769   3.326   7.675   4.477 -0.4013 -1.5605 -0.3092
19279SOL    HW259770   3.362   7.711   4.620  2.2877 -0.8216 -1.1243
19280SOL     OW59771   1.360   4.796   1.961 -0.0127  0.5653 -0.7744
19280SOL    HW159772   1.298   4.821   1.893 -0.1684 -0.2487 -0.9381
19280SOL    HW259773   1.321   4.718   2.001  0.0108  1.1037  0.3345
19281SOL     OW59774   4.645   7.194   3.481  0.2824 -0.2910 -0.0713
19281SOL    HW159775   4.658   7.099   3.476  0.8250 -0.2121 -0.2092
19281SOL    HW259776   4.627   7.220   3.391 -0.1281 -0.2976  0.0072
19282SOL     OW59777   5.823   5.047   2.952  0.2173  0.1111 -0.5733
19282SOL    HW159778   5.776   5.011   3.027 -1.6351  1.3179 -1.0860
19282SOL    HW259779   5.771   5.021   2.876  1.1446  0.3252 -1.3033
19283SOL     OW59780   4.891   8.172   2.911 -0.3344  0.0521 -0.2369
19283SOL    HW159781   4.825   8.105   2.928 -1.0869  0.1362 -2.4706
19283SOL    HW259782   4.876   8.198   2.820  0.9757  2.1138  0.0673
19284SOL     OW59783   7.874   0.362   8.286  0.0580  0.2913  0.0069
19284SOL    HW159784   7.910   0.353   8.374  0.5938  1.4422 -0.0843
19284SOL    HW259785   7.822   0.282   8.274 -0.1999  0.2065  1.4433
19285SOL     OW59786   2.459   4.834   2.342  0.1006  0.5140 -0.0660
19285SOL    HW159787   2.444   4.923   2.309  0.0679  0.9952  1.1992
19285SOL    HW259788   2.374   4.807   2.376 -0.2559 -0.5849 -1.7330
19286SOL     OW59789   0.302   0.242   4.167 -0.4758 -0.2573  0.1775
19286SOL    HW159790   0.365   0.180   4.205 -0.4356  0.1157  0.7320
19286SOL    HW259791   0.342   0.328   4.181  0.0390 -0.1618 -1.6587
19287SOL     OW59792   7.049   8.516   5.731 -0.2351 -0.7473 -0.1177
19287SOL    HW159793   7.113   8.479   5.670 -1.9716 -4.5434  0.0269
19287SOL    HW259794   6.965   8.509   5.685 -1.1331 -0.4154  1.3881
19288SOL     OW59795   0.654   4.984   8.127  0.5176 -0.2151 -0.1801
19288SOL    HW159796   0.606   4.906   8.154  1.9555 -1.0370  0.0673
19288SOL    HW259797   0.690   5.019   8.208  1.4006 -0.3512 -0.4967
19289SOL     OW59798   6.619   0.935   7.424 -0.2953  0.1182  0.8669
19289SOL    HW159799   6.702   0.945   7.377  0.6626 -1.4003  2.1492
19289SOL    HW259800   6.554   0.976   7.367  1.3079  1.2637 -0.2163
19290SOL     OW59801   8.348   3.922   2.723  0.4266 -0.2125  0.3802
19290SOL    HW159802   8.363   3.836   2.762  2.0005  0.9323  2.4735
19290SOL    HW259803   8.282   3.963   2.780  0.0224  0.1685 -0.3370
19291SOL     OW59804   7.098   6.977   0.024 -0.7124  0.3059  0.1727
19291SOL    HW159805   7.079   7.050   0.082 -1.7299 -0.5586  0.9640
19291SOL    HW259806   7.013   6.935   0.008 -0.4046  0.2963 -1.6535
19292SOL     OW59807   1.161   6.522   4.663  0.2280  0.2504 -0.4242
19292SOL    HW159808   1.251   6.546   4.686 -0.0612  0.0506  0.9965
19292SOL    HW259809   1.170   6.462   4.589  1.2223  0.6232 -0.6266
19293SOL     OW59810   5.109   1.001   3.603 -0.0202 -0.4600  0.1357
19293SOL    HW159811   5.090   1.059   3.677  2.7000  0.4818  0.2185
19293SOL    HW259812   5.132   1.061   3.532  2.4782 -1.3512  0.0983
19294SOL     OW59813   8.201   3.994   8.173  0.1437  0.0469 -0.0614
19294SOL    HW159814   8.179   3.996   8.267  0.0757 -2.4974  0.0423
19294SOL    HW259815   8.199   3.901   8.150  0.8436  0.5616 -2.4523
19295SOL     OW59816   6.910   4.096   5.290  0.0332  0.3884  0.2901
19295SOL    HW159817   6.931   4.004   5.277 -0.1495 -0.0800  2.8181
19295SOL    HW259818   6.970   4.143   5.232  0.1039 -1.2850 -1.0616
19296SOL     OW59819   1.896   5.611   8.797  0.1168  0.3290 -0.3450
19296SOL    HW159820   1.954   5.612   8.873  2.0252  0.9620 -1.7095
19296SOL    HW259821   1.828   5.549   8.819 -0.5034  1.8794  2.6295
19297SOL     OW59822   2.304   1.034   6.102  0.4874  0.3643 -0.0017
19297SOL    HW159823   2.366   0.978   6.056 -1.7279 -0.7391 -1.8239
19297SOL    HW259824   2.352   1.116   6.117  2.9397 -1.0317  0.3468
19298SOL     OW59825   6.317   5.097   3.544  0.2010 -0.4482 -0.2367
19298SOL    HW159826   6.290   5.067   3.631 -0.9987  2.5107  0.5149
19298SOL    HW259827   6.261   5.048   3.484 -0.5867 -0.8727  0.8003
19299SOL     OW59828   3.242   4.547   1.230  0.1620 -0.1766 -0.4078
19299SOL    HW159829   3.211   4.457   1.215 -1.8795  0.1555  1.3926
19299SOL    HW259830   3.334   4.545   1.202  0.4470 -3.0595  0.3737
19300SOL     OW59831   8.519   7.785   1.770  0.1597  0.8977 -0.2298
19300SOL    HW159832   8.435   7.819   1.738  0.1115 -0.3179 -1.4781
19300SOL    HW259833   8.518   7.692   1.747  0.8030  0.2936  1.9891
19301SOL     OW59834   5.255   3.417   4.516  0.0674  0.1488  0.7588
19301SOL    HW159835   5.261   3.321   4.517 -1.2661 -0.0332 -1.6413
19301SOL    HW259836   5.327   3.446   4.572  0.3943 -2.2480  1.6910
19302SOL     OW59837   6.745   4.036   4.905 -0.2112 -0.0850 -0.4321
19302SOL    HW159838   6.773   4.126   4.923  0.3530 -0.1479 -0.9686
19302SOL    HW259839   6.819   3.982   4.930 -0.5284 -0.4014 -0.1626
19303SOL     OW59840   0.079   3.080   4.078 -0.1653  0.2520  0.0365
19303SOL    HW159841   0.047   2.994   4.106 -2.5757  1.5999  1.7579
19303SOL    HW259842   0.023   3.103   4.003  1.9780 -0.5440 -1.9379
19304SOL     OW59843   3.769   8.564   7.787 -0.1345 -0.0420  0.3025
19304SOL    HW159844   3.722   8.646   7.772  0.9096  0.2772 -1.6157
19304SOL    HW259845   3.746   8.538   7.876  0.4199  2.9100  1.3896
19305SOL     OW59846   2.458   2.188   7.177  0.1268 -0.2690  0.0256
19305SOL    HW159847   2.465   2.164   7.085 -0.6578  1.1774 -0.4390
19305SOL    HW259848   2.379   2.144   7.208 -0.0016 -0.1836 -0.1828
19306SOL     OW59849   1.692   4.857   2.701  0.3453 -0.4345 -0.1129
19306SOL    HW159850   1.663   4.924   2.763 -0.4081 -1.0365  0.2017
19306SOL    HW259851   1.675   4.774   2.745 -0.2337 -0.8815 -1.1230
19307SOL     OW59852   0.943   5.409   3.324 -0.2588  1.1357 -0.2491
19307SOL    HW159853   0.891   5.400   3.244 -0.1893 -1.2757 -0.0903
19307SOL    HW259854   0.909   5.341   3.383  1.2260  1.3370  0.9137
19308SOL     OW59855   2.369   7.282   2.098 -0.0881 -0.5153 -0.2080
19308SOL    HW159856   2.380   7.196   2.057  0.1347  0.1457 -1.6339
19308SOL    HW259857   2.306   7.268   2.168 -1.3633 -1.5201 -1.4966
19309SOL     OW59858   4.929   4.272   7.604  0.5169 -0.0902 -0.0559
19309SOL    HW159859   4.939   4.205   7.536 -2.7356 -0.1005 -0.6829
19309SOL    HW259860   4.940   4.355   7.557 -4.0369  0.0077 -1.3430
19310SOL     OW59861   7.293   8.114   4.323 -0.4184 -0.0465 -0.8999
19310SOL    HW159862   7.247   8.163   4.255 -2.5205 -0.6619 -0.0094
19310SOL    HW259863   7.235   8.040   4.343  0.7634 -0.6345  0.6016
19311SOL     OW59864   8.809   3.341   6.109  0.2329  0.3331 -0.0643
19311SOL    HW159865   8.746   3.269   6.122 -0.4686  1.0852  0.8647
19311SOL    HW259866   8.869   3.308   6.043 -0.8600 -0.6042 -0.6308
19312SOL     OW59867   0.167   7.003   7.749 -0.1398  0.2904  0.0024
19312SOL    HW159868   0.089   6.977   7.799  1.0064  0.2903  1.8677
19312SOL    HW259869   0.193   6.923   7.704 -1.0396  0.2104 -0.4039
19313SOL     OW59870   7.061   0.323   7.622 -0.4137 -0.8878 -0.2947
19313SOL    HW159871   7.154   0.311   7.642 -0.2537  0.9617  0.3051
19313SOL    HW259872   7.018   0.246   7.659  0.6347 -0.6157  1.6297
19314SOL     OW59873   4.145   5.327   0.681  0.4500 -0.0446 -0.0782
19314SOL    HW159874   4.215   5.301   0.621  1.0101  0.8297  0.1802
19314SOL    HW259875   4.163   5.418   0.701 -1.3951  0.5460 -0.8649
19315SOL     OW59876   4.947   5.560   6.715  0.1001 -0.2681 -0.1093
19315SOL    HW159877   4.852   5.555   6.718  0.0241  0.9318  2.8978
19315SOL    HW259878   4.975   5.547   6.806  2.8097 -0.6003 -0.8983
19316SOL     OW59879   8.830   0.674   7.335 -0.0292  0.3557 -0.0299
19316SOL    HW159880   8.921   0.671   7.363  0.6832  3.3462 -1.6022
19316SOL    HW259881   8.785   0.611   7.391  2.6443  0.2025  2.1268
19317SOL     OW59882   1.395   8.354   2.040  0.2614 -0.5250 -0.9382
19317SOL    HW159883   1.398   8.303   1.959 -1.3749 -0.4695 -1.0736
19317SOL    HW259884   1.303   8.379   2.049  0.8795  1.8580 -0.5304
19318SOL     OW59885   3.511   6.835   5.987 -0.6404 -0.2002 -0.2452
19318SOL    HW159886   3.473   6.754   6.023  1.7755 -0.6956  1.4245
19318SOL    HW259887   3.520   6.817   5.893 -0.0092 -1.9864  0.1099
19319SOL     OW59888   5.456   4.938   4.759 -0.2031 -0.1492 -0.6206
19319SOL    HW159889   5.486   4.864   4.811 -0.0767  1.1855  1.2929
19319SOL    HW259890   5.470   4.911   4.668  1.2547 -1.8551  0.0626
19320SOL     OW59891   5.319   6.125   2.636  0.0067  0.2702  0.2431
19320SOL    HW159892   5.288   6.144   2.724 -0.1511  0.2088  0.2003
19320SOL    HW259893   5.292   6.034   2.620 -0.4839  0.4725 -0.0940
19321SOL     OW59894   4.829   5.542   8.490 -0.1546 -0.0299  0.3165
19321SOL    HW159895   4.801   5.477   8.554  1.9515 -2.4411 -1.0181
19321SOL    HW259896   4.759   5.542   8.424 -0.6657 -0.1638  0.8492
19322SOL     OW59897   5.503   7.858   1.124  0.1321 -0.3670 -0.1307
19322SOL    HW159898   5.418   7.844   1.165  0.2370 -3.1584 -0.6928
19322SOL    HW259899   5.530   7.944   1.155 -1.9998 -0.2388  1.6362
19323SOL     OW59900   6.971   4.350   3.357 -0.1280 -0.4947  0.4675
19323SOL    HW159901   7.054   4.338   3.312 -0.6622 -1.1913 -0.3569
19323SOL    HW259902   6.970   4.281   3.423 -0.7063 -1.4739 -0.5339
19324SOL     OW59903   5.932   8.458   5.464  0.2188 -0.3032  0.2615
19324SOL    HW159904   5.956   8.546   5.433 -0.4022 -0.2093  0.0246
19324SOL    HW259905   5.850   8.472   5.512 -1.8845 -1.2037 -2.7523
19325SOL     OW59906   3.307   3.694   2.504  0.2205  0.4200  0.2658
19325SOL    HW159907   3.349   3.618   2.463  0.3743 -1.4755  3.5556
19325SOL    HW259908   3.379   3.750   2.533  0.1208  1.5689 -1.5559
19326SOL     OW59909   1.751   1.502   2.878 -0.0662 -0.3777  0.0460
19326SOL    HW159910   1.696   1.575   2.850 -0.6964 -1.2847 -1.2077
19326SOL    HW259911   1.822   1.543   2.927 -1.0273  0.9573  0.3705
19327SOL     OW59912   4.024   4.835   6.885 -0.6556 -0.1618 -0.3749
19327SOL    HW159913   3.975   4.840   6.967 -0.0887  1.5776 -0.0987
19327SOL    HW259914   4.017   4.744   6.858 -2.6690 -0.3138  0.4839
19328SOL     OW59915   0.107   3.031   5.307 -0.4236  0.3681 -0.1798
19328SOL    HW159916   0.195   3.008   5.336 -0.3248 -0.3597 -1.0105
19328SOL    HW259917   0.049   2.979   5.362 -0.2668 -0.3897 -0.7171
19329SOL     OW59918   1.362   4.884   8.664 -0.0620  0.2188 -0.1856
19329SOL    HW159919   1.293   4.873   8.730  0.3023  1.0820  0.3549
19329SOL    HW259920   1.417   4.806   8.674  0.7568  0.9604  1.4743
19330SOL     OW59921   2.893   6.621   2.197 -0.1398 -0.2309 -0.0059
19330SOL    HW159922   2.867   6.639   2.107 -3.9444 -0.3065  0.9053
19330SOL    HW259923   2.951   6.694   2.220  0.2089  0.2579 -2.1860
19331SOL     OW59924   0.485   5.860   2.031  0.0719 -0.4056 -0.1231
19331SOL    HW159925   0.450   5.934   2.081 -0.5625 -1.4136  0.9598
19331SOL    HW259926   0.436   5.862   1.949  0.3388  0.5968 -0.2749
19332SOL     OW59927   1.020   0.255   2.786 -0.3775 -0.1606 -0.3262
19332SOL    HW159928   0.930   0.229   2.806 -0.8341  0.9165 -0.9075
19332SOL    HW259929   1.018   0.351   2.788  0.7404 -0.1279 -0.4165
19333SOL     OW59930   7.521   2.243   7.436 -0.0754 -0.4245 -0.2285
19333SOL    HW159931   7.555   2.255   7.525 -0.9265 -3.1640  0.5745
19333SOL    HW259932   7.467   2.320   7.421  0.4389  0.3185  1.4828
19334SOL     OW59933   2.560   2.400   7.982 -0.3824  0.5043 -0.1288
19334SOL    HW159934   2.481   2.452   7.995 -0.1028  0.7476  0.6530
19334SOL    HW259935   2.630   2.452   8.021  0.3350  0.7297 -1.6454
19335SOL     OW59936   3.382   7.779   1.108 -0.0827 -0.1552 -0.0258
19335SOL    HW159937   3.456   7.731   1.070 -0.5110 -1.2530  0.4866
19335SOL    HW259938   3.401   7.781   1.202 -0.5318 -0.1377  0.0651
19336SOL     OW59939   1.526   3.656   1.731 -0.3798  0.5043  0.1696
19336SOL    HW159940   1.586   3.731   1.734  0.0322  0.1578  2.5117
19336SOL    HW259941   1.567   3.591   1.787 -1.6490 -0.7949 -0.3545
19337SOL     OW59942   8.452   0.413   4.518  0.2064  0.1671  0.2700
19337SOL    HW159943   8.360   0.419   4.543  0.3376 -1.3661  1.2779
19337SOL    HW259944   8.467   0.489   4.462 -0.9084  2.1370  2.4766
19338SOL     OW59945   6.768   7.992   4.773 -0.1358  0.2164  0.7207
19338SOL    HW159946   6.702   8.052   4.808  0.4003  0.5443  1.1877
19338SOL    HW259947   6.742   7.906   4.807 -1.1868  0.0759 -0.3539
19339SOL     OW59948   8.761   4.949   8.738 -0.1597  0.1152 -0.0125
19339SOL    HW159949   8.677   4.921   8.702  0.9891 -0.6478 -2.3219
19339SOL    HW259950   8.824   4.933   8.668  1.9786  0.4539  1.6976
19340SOL     OW59951   2.274   8.633   6.629  0.2323  0.3687  0.4243
19340SOL    HW159952   2.272   8.671   6.541  0.1653 -0.7754 -0.0877
19340SOL    HW259953   2.259   8.707   6.688 -2.0295  0.8435 -0.6165
19341SOL     OW59954   1.494   0.289   2.753 -0.2398 -0.7872 -0.4102
19341SOL    HW159955   1.533   0.201   2.749  0.9274 -0.3274  0.4785
19341SOL    HW259956   1.490   0.317   2.661  0.9215 -1.1192 -0.5774
19342SOL     OW59957   3.599   4.726   2.055 -0.4494  0.7202  0.6744
19342SOL    HW159958   3.547   4.805   2.040  0.9622  1.3707 -1.1206
19342SOL    HW259959   3.676   4.756   2.103  0.5005  0.6502 -0.7233
19343SOL     OW59960   1.456   8.836   0.774 -0.0432  0.2635 -0.6244
19343SOL    HW159961   1.528   8.774   0.768 -1.2869 -1.3271  0.0325
19343SOL    HW259962   1.483   8.910   0.720  1.5913 -0.7424 -1.2569
19344SOL     OW59963   4.892   2.522   7.228  0.1353 -0.6538 -0.1407
19344SOL    HW159964   4.863   2.505   7.318  1.9839 -1.0031  0.4296
19344SOL    HW259965   4.977   2.478   7.221 -0.2401 -1.1490 -2.2719
19345SOL     OW59966   1.189   3.020   0.426 -0.2768 -0.0453 -0.3785
19345SOL    HW159967   1.221   3.050   0.511 -0.4907  0.7503 -0.5697
19345SOL    HW259968   1.132   3.091   0.396  1.1686  0.4862 -1.9844
19346SOL     OW59969   0.100   6.929   2.686  0.2354 -0.0036  0.3267
19346SOL    HW159970   0.159   6.911   2.612  0.0213 -0.8572  0.3480
19346SOL    HW259971   0.110   7.023   2.702 -0.1550  0.3219 -1.1638
19347SOL     OW59972   5.897   0.309   4.562  0.0326  0.5478  0.0302
19347SOL    HW159973   5.896   0.257   4.642 -0.3056 -0.8463 -0.8361
19347SOL    HW259974   5.805   0.314   4.535  0.3242 -0.8825 -1.3952
19348SOL     OW59975   4.732   5.911   8.596 -0.1761  0.6469 -0.5947
19348SOL    HW159976   4.693   5.954   8.671  1.1123  2.3990 -0.8658
19348SOL    HW259977   4.668   5.844   8.571 -1.1695  0.8084  1.2980
19349SOL     OW59978   6.659   4.528   6.989  0.8878  0.2226  0.2513
19349SOL    HW159979   6.597   4.455   6.987  1.3400 -0.1856  0.7693
19349SOL    HW259980   6.604   4.605   6.999  0.2991  0.1103 -1.8133
19350SOL     OW59981   6.269   1.245   0.430 -0.0552 -0.1958  0.2325
19350SOL    HW159982   6.289   1.240   0.336 -1.3953  2.2814 -0.2832
19350SOL    HW259983   6.174   1.240   0.434  0.0620 -2.7153  1.7632
19351SOL     OW59984   2.040   1.889   4.283 -0.2912 -0.4357 -0.4958
19351SOL    HW159985   2.136   1.887   4.280 -0.2884 -0.9047 -0.2512
19351SOL    HW259986   2.016   1.973   4.245  0.2301 -0.1768 -0.2523
19352SOL     OW59987   8.038   7.999   5.907  0.1458 -0.0310  0.1735
19352SOL    HW159988   8.035   8.016   6.002  2.5544 -0.0033  0.3115
19352SOL    HW259989   8.119   8.042   5.878 -0.3261 -0.4097 -1.8321
19353SOL     OW59990   4.421   5.492   7.076  0.3140 -0.0830  0.0115
19353SOL    HW159991   4.482   5.565   7.069 -1.5664  1.4885 -0.6684
19353SOL    HW259992   4.452   5.428   7.012  2.5721 -0.4146  1.3139
19354SOL     OW59993   6.047   6.497   0.669 -0.1001  0.3370  0.2291
19354SOL    HW159994   6.008   6.527   0.752 -1.4123 -0.1720 -0.1668
19354SOL    HW259995   5.971   6.474   0.615  0.7807 -1.1571 -0.4226
19355SOL     OW59996   7.335   8.052   4.639 -0.0805  0.2688  0.3067
19355SOL    HW159997   7.335   7.956   4.648 -2.2538  0.3222  1.6083
19355SOL    HW259998   7.399   8.069   4.571  0.9688 -2.0564  0.5968
19356SOL     OW59999   3.810   4.768   8.322  0.3207  0.8369 -0.2067
19356SOL    HW160000   3.853   4.699   8.271 -0.1840  0.8459 -0.6628
19356SOL    HW260001   3.725   4.780   8.278 -0.2500  0.6386  0.8256
19357SOL     OW60002   1.344   4.674   0.756  0.2670 -0.2553  0.3958
19357SOL    HW160003   1.362   4.587   0.791  1.3315  0.3867  1.5544
19357SOL    HW260004   1.316   4.659   0.666 -1.6449 -1.9353  1.1784
19358SOL     OW60005   1.297   1.533   1.394  0.4824  0.0863  0.0068
19358SOL    HW160006   1.344   1.518   1.312  1.1552  1.6860  0.0726
19358SOL    HW260007   1.232   1.600   1.372 -1.6141 -1.8415  0.0039
19359SOL     OW60008   2.122   2.538   0.309  0.9017 -0.3631 -0.3654
19359SOL    HW160009   2.135   2.586   0.390 -1.5290 -1.3689  0.7242
19359SOL    HW260010   2.125   2.446   0.335  2.5843 -0.8075 -1.8999
19360SOL     OW60011   3.560   2.095   5.998  0.1493 -0.7020  0.3214
19360SOL    HW160012   3.645   2.074   6.037  0.3712 -0.7179 -0.1636
19360SOL    HW260013   3.561   2.051   5.913 -0.2773 -0.5653  0.2453
19361SOL     OW60014   0.377   5.909   5.170 -0.4325 -0.8181 -0.5047
19361SOL    HW160015   0.332   5.993   5.186 -0.9660 -0.8112 -1.9475
19361SOL    HW260016   0.470   5.931   5.174 -0.4251 -0.9233  3.0193
19362SOL     OW60017   2.058   0.659   6.940 -0.3253  0.0313  0.0813
19362SOL    HW160018   1.977   0.617   6.968 -0.0475 -0.2820  0.4276
19362SOL    HW260019   2.036   0.753   6.937 -0.5912 -0.0105  0.5617
19363SOL     OW60020   4.643   6.067   6.760  0.3150 -0.3573  0.5295
19363SOL    HW160021   4.661   5.974   6.764  2.1677 -0.0114  1.3706
19363SOL    HW260022   4.556   6.074   6.721  1.1787 -2.3189 -1.9654
19364SOL     OW60023   5.216   7.433   7.718 -0.3330 -0.2793 -0.2592
19364SOL    HW160024   5.289   7.404   7.662 -0.2346 -0.8439  0.1454
19364SOL    HW260025   5.225   7.380   7.797  0.5373  1.6661  1.0280
19365SOL     OW60026   1.075   7.729   2.490  0.3988  0.4525  0.5980
19365SOL    HW160027   1.080   7.823   2.470  0.5358  0.0908 -1.2081
19365SOL    HW260028   1.145   7.715   2.555  0.4117  1.5725  0.8534
19366SOL     OW60029   6.275   4.787   6.663 -0.4382 -0.8819  0.1201
19366SOL    HW160030   6.332   4.801   6.587 -1.4203  3.0705 -0.0936
19366SOL    HW260031   6.326   4.820   6.737 -0.7041 -1.7269  0.6906
19367SOL     OW60032   1.317   4.825   3.924 -0.4943 -0.2406 -0.0698
19367SOL    HW160033   1.229   4.824   3.887 -0.0822  2.3652 -1.3074
19367SOL    HW260034   1.368   4.766   3.868 -0.4331  1.8487 -2.3916
19368SOL     OW60035   2.948   7.952   4.270 -0.3815 -0.2372 -0.2581
19368SOL    HW160036   2.964   7.865   4.307 -1.6042 -0.0349  0.8071
19368SOL    HW260037   3.012   8.009   4.312 -0.1353 -0.4665 -0.3208
19369SOL     OW60038   8.459   6.862   5.202 -0.0200  0.0091  0.3843
19369SOL    HW160039   8.512   6.870   5.281 -0.2539 -0.9641  0.6453
19369SOL    HW260040   8.523   6.848   5.132  0.0548 -2.5195  0.8806
19370SOL     OW60041   6.232   2.541   1.756  0.3344 -0.4241 -0.2868
19370SOL    HW160042   6.266   2.630   1.768  0.4619 -0.4868 -0.1823
19370SOL    HW260043   6.297   2.498   1.701  0.0842 -0.3386 -0.6486
19371SOL     OW60044   6.991   0.800   5.059 -0.0438  0.4395  1.1223
19371SOL    HW160045   6.927   0.841   5.116 -1.3196  1.5654 -0.9767
19371SOL    HW260046   7.053   0.869   5.037 -0.9575  0.7291 -0.7111
19372SOL     OW60047   4.082   0.270   6.527 -0.7266  0.4184  0.3572
19372SOL    HW160048   4.045   0.338   6.582 -0.1835  1.2647 -0.3061
19372SOL    HW260049   4.007   0.233   6.480 -0.7218  2.5907 -1.4993
19373SOL     OW60050   1.012   0.163   0.241  0.2008 -0.6536 -0.5420
19373SOL    HW160051   0.932   0.206   0.272  0.7327  0.2309 -0.3635
19373SOL    HW260052   1.053   0.130   0.321  0.0886 -0.9836 -0.6196
19374SOL     OW60053   0.381   7.888   8.254 -0.1942  0.6400  0.2843
19374SOL    HW160054   0.374   7.858   8.163 -0.1544  1.1595  0.1050
19374SOL    HW260055   0.428   7.971   8.248  0.2076  0.4610  0.8283
19375SOL     OW60056   1.788   2.819   2.594 -0.3748  0.0000  0.0655
19375SOL    HW160057   1.808   2.897   2.543 -1.0548  0.1705  0.0465
19375SOL    HW260058   1.714   2.845   2.650 -0.0435 -0.3662  0.6914
19376SOL     OW60059   4.622   1.184   1.683 -0.1379 -0.4160  0.0867
19376SOL    HW160060   4.569   1.204   1.606  1.2396  0.0446 -0.7899
19376SOL    HW260061   4.649   1.093   1.669 -0.4088 -0.5369  0.3520
19377SOL     OW60062   2.827   8.469   2.158 -1.0000 -0.0458 -0.2394
19377SOL    HW160063   2.832   8.374   2.155  1.0802  0.0279 -0.9032
19377SOL    HW260064   2.811   8.495   2.067 -0.0527  0.2792 -0.3171
19378SOL     OW60065   0.902   1.392   6.010  0.2407  0.2372  0.3389
19378SOL    HW160066   0.994   1.372   6.030  0.4044  0.7451  0.1068
19378SOL    HW260067   0.861   1.403   6.096  0.4688  0.3142  0.4403
19379SOL     OW60068   4.131   6.281   8.396 -0.3766  0.3635  0.1695
19379SOL    HW160069   4.170   6.209   8.446 -2.1805  1.3721  3.3767
19379SOL    HW260070   4.205   6.337   8.372  0.7905 -1.2931 -0.2197
19380SOL     OW60071   1.462   2.865   4.607  0.2532  0.3685 -0.7613
19380SOL    HW160072   1.518   2.921   4.661  2.4914 -1.9455 -0.4535
19380SOL    HW260073   1.476   2.777   4.642 -0.9940 -0.7567 -2.8887
19381SOL     OW60074   0.208   8.468   1.905 -0.0760  0.9376  0.2298
19381SOL    HW160075   0.229   8.428   1.820  1.8190 -2.0829  1.9263
19381SOL    HW260076   0.142   8.410   1.943  1.1433  0.5449  1.8891
19382SOL     OW60077   7.382   5.976   1.085  0.2533 -0.4127  1.1747
19382SOL    HW160078   7.433   5.918   1.029  0.6912 -0.6493  1.8086
19382SOL    HW260079   7.432   5.982   1.166 -0.7686 -0.7297  1.8543
19383SOL     OW60080   0.355   0.842   6.065 -0.0793 -0.1015 -0.0575
19383SOL    HW160081   0.338   0.764   6.117 -1.7157 -0.4549 -1.0380
19383SOL    HW260082   0.321   0.914   6.119 -0.9414 -0.3675 -0.2268
19384SOL     OW60083   5.269   6.691   2.956 -0.3022 -0.3108  0.0428
19384SOL    HW160084   5.225   6.776   2.951  0.8294  0.3643  1.1137
19384SOL    HW260085   5.354   6.710   2.995  0.2566 -1.8456 -0.3511
19385SOL     OW60086   6.182   2.063   6.586 -0.8058 -0.1702 -0.2243
19385SOL    HW160087   6.272   2.064   6.617 -1.5378  1.3316  2.1785
19385SOL    HW260088   6.179   1.992   6.522  1.4049 -2.1773  1.6918
19386SOL     OW60089   6.295   1.007   3.022 -0.1036 -0.2824  0.5131
19386SOL    HW160090   6.319   0.946   2.952  1.8278  1.3195 -0.3257
19386SOL    HW260091   6.200   1.019   3.012 -0.2289 -1.7942 -0.3960
19387SOL     OW60092   1.601   7.591   3.282  0.4600 -0.8676  0.1343
19387SOL    HW160093   1.521   7.594   3.231  0.3384  0.7314  0.3586
19387SOL    HW260094   1.573   7.565   3.370  0.1097  0.1353  0.3260
19388SOL     OW60095   2.392   0.325   6.985 -0.3434 -0.2367  0.0636
19388SOL    HW160096   2.363   0.416   6.990 -0.3612 -0.2556  0.3369
19388SOL    HW260097   2.487   0.330   7.001 -0.3106 -0.2459 -0.1246
19389SOL     OW60098   6.422   2.116   3.460  0.3609 -0.6083 -0.4462
19389SOL    HW160099   6.418   2.085   3.369 -0.1726  1.0589 -1.0305
19389SOL    HW260100   6.371   2.051   3.510 -1.3262 -0.3340 -1.7130
19390SOL     OW60101   2.703   3.166   6.795  0.0482 -0.3122  0.3431
19390SOL    HW160102   2.751   3.097   6.840  2.2929  1.5787  1.0481
19390SOL    HW260103   2.668   3.221   6.865 -0.4767  0.0637 -0.2032
19391SOL     OW60104   8.146   1.575   3.285  0.8059 -0.6585  0.6148
19391SOL    HW160105   8.220   1.514   3.285  1.4671  0.0981  1.5773
19391SOL    HW260106   8.156   1.624   3.367  0.6092  1.1048 -0.3520
19392SOL     OW60107   7.103   8.588   4.253  0.4424  0.2973  0.3606
19392SOL    HW160108   7.170   8.557   4.192 -0.8427  0.6697 -1.3376
19392SOL    HW260109   7.020   8.561   4.212 -0.5210  1.9119  1.1628
19393SOL     OW60110   2.659   8.086   2.704  0.0274  0.6406 -0.2875
19393SOL    HW160111   2.744   8.126   2.684 -0.0400  0.1690 -1.6298
19393SOL    HW260112   2.598   8.131   2.646 -0.6162  0.8271  0.5177
19394SOL     OW60113   4.683   0.209   8.534 -0.1341  0.9674  0.1069
19394SOL    HW160114   4.688   0.123   8.575 -1.3431  0.9237  0.2063
19394SOL    HW260115   4.704   0.270   8.604  1.4198  0.7596 -0.1265
19395SOL     OW60116   1.550   5.927   4.916 -0.1899  0.2085 -0.3388
19395SOL    HW160117   1.569   5.946   5.008  2.9454 -0.4227 -0.7427
19395SOL    HW260118   1.580   5.838   4.903 -3.3091 -0.8377 -1.3832
19396SOL     OW60119   7.462   7.609   5.715 -0.0061 -0.0326  0.0561
19396SOL    HW160120   7.538   7.643   5.762 -0.4240  0.8453  0.1200
19396SOL    HW260121   7.387   7.640   5.765 -0.4350  0.0686 -0.6384
19397SOL     OW60122   7.658   7.718   3.283 -0.1336  0.3626  0.5941
19397SOL    HW160123   7.597   7.726   3.356 -0.2343  2.4817  0.3273
19397SOL    HW260124   7.731   7.666   3.319 -2.6689 -3.7845  0.4260
19398SOL     OW60125   1.610   3.487   4.245  0.3659  0.2191 -0.2010
19398SOL    HW160126   1.680   3.434   4.206 -0.0393 -0.2339 -0.3208
19398SOL    HW260127   1.531   3.462   4.197 -0.4104 -1.3470  1.7695
19399SOL     OW60128   7.866   4.211   2.120  0.3718 -0.3086 -0.0438
19399SOL    HW160129   7.891   4.299   2.148 -0.6121 -0.2667  0.7470
19399SOL    HW260130   7.879   4.212   2.025  1.3065  0.3693  0.0824
19400SOL     OW60131   2.960   2.878   2.980 -0.2038 -0.9726  0.0094
19400SOL    HW160132   2.867   2.899   2.991  0.3159  1.5177  0.2848
19400SOL    HW260133   2.961   2.789   2.947 -2.8442 -0.1739 -2.7004
19401SOL     OW60134   8.423   4.930   3.564  0.2771  0.0446 -0.3674
19401SOL    HW160135   8.343   4.913   3.614  0.5032  0.3003  0.0917
19401SOL    HW260136   8.392   4.969   3.482 -0.0567  0.4503 -0.0589
19402SOL     OW60137   2.588   8.637   4.583  0.7849 -0.1662  0.3606
19402SOL    HW160138   2.675   8.610   4.555  0.9624 -0.7457  1.4413
19402SOL    HW260139   2.529   8.570   4.546  0.5363  1.2145 -1.9576
19403SOL     OW60140   0.926   1.576   0.771 -0.4060  0.4174 -0.4260
19403SOL    HW160141   0.832   1.581   0.789 -0.5816 -0.9291 -0.8150
19403SOL    HW260142   0.955   1.667   0.769 -1.7878  0.8810 -0.7365
19404SOL     OW60143   4.773   6.887   2.892  0.3337 -0.3048  0.0235
19404SOL    HW160144   4.679   6.869   2.902  0.4219 -1.4022 -0.9310
19404SOL    HW260145   4.812   6.801   2.877  1.5509  0.1107  0.7197
19405SOL     OW60146   2.070   8.388   6.013  0.1170  0.7511 -0.6047
19405SOL    HW160147   2.076   8.375   6.108  0.9592  0.2470 -0.7074
19405SOL    HW260148   2.007   8.458   6.002 -0.7252  0.1633  0.2839
19406SOL     OW60149   7.352   4.226   2.092 -0.2229 -0.3823  0.5282
19406SOL    HW160150   7.445   4.244   2.108 -0.3796  0.0550  0.9839
19406SOL    HW260151   7.335   4.262   2.005 -0.1297  0.1862  0.7403
19407SOL     OW60152   2.794   8.730   7.171  0.7415 -0.0309 -0.2239
19407SOL    HW160153   2.756   8.706   7.087 -1.1241 -0.7771  0.7600
19407SOL    HW260154   2.854   8.658   7.191  1.2265  0.1735 -0.9168
19408SOL     OW60155   1.824   7.418   1.432  0.5789  0.0331 -0.8166
19408SOL    HW160156   1.864   7.499   1.399 -0.5135  0.5701 -0.8615
19408SOL    HW260157   1.765   7.390   1.361 -0.5423  0.2896 -0.0044
19409SOL     OW60158   5.881   8.781   1.413 -0.1188 -0.6156  0.3669
19409SOL    HW160159   5.792   8.814   1.398 -0.3951 -1.5053  0.0049
19409SOL    HW260160   5.883   8.696   1.369  2.0125  0.8741 -2.8848
19410SOL     OW60161   8.486   0.942   4.233 -0.3116 -0.0832 -0.3012
19410SOL    HW160162   8.578   0.921   4.247 -0.5157 -0.0586  1.2397
19410SOL    HW260163   8.475   1.029   4.271 -1.5146 -1.1702  2.0425
19411SOL     OW60164   3.854   0.262   7.569 -0.0605 -0.1972  0.5721
19411SOL    HW160165   3.896   0.236   7.651  0.2421 -1.2162  0.1046
19411SOL    HW260166   3.770   0.300   7.596  0.8393  1.2648  1.4778
19412SOL     OW60167   7.323   5.847   8.710  0.1196  0.3790  0.1948
19412SOL    HW160168   7.335   5.858   8.804 -1.0621  0.6214  0.3360
19412SOL    HW260169   7.237   5.806   8.701  0.1496  0.4871 -0.7886
19413SOL     OW60170   0.247   4.982   3.298  0.2553 -0.0984 -0.4454
19413SOL    HW160171   0.324   5.036   3.281  2.0593 -2.4023 -0.2442
19413SOL    HW260172   0.217   4.954   3.212  1.4243 -1.3942 -0.4801
19414SOL     OW60173   3.672   7.540   2.480 -0.1018 -0.0811  0.5188
19414SOL    HW160174   3.680   7.523   2.574 -0.2899  0.9717  0.7357
19414SOL    HW260175   3.752   7.504   2.442 -0.5243 -1.5119  0.9287
19415SOL     OW60176   8.694   2.516   3.560  0.2447  0.0188 -0.2052
19415SOL    HW160177   8.624   2.450   3.566 -0.8728  1.0722 -1.0583
19415SOL    HW260178   8.760   2.475   3.504 -0.1004 -0.6480 -0.1411
19416SOL     OW60179   1.063   6.233   7.261  0.6481 -0.4539 -0.2929
19416SOL    HW160180   1.108   6.224   7.177  0.3747  0.3085 -0.5232
19416SOL    HW260181   1.128   6.275   7.318 -0.2698  2.2416 -1.0948
19417SOL     OW60182   6.968   5.106   0.799  0.0786 -0.1856  0.2110
19417SOL    HW160183   6.893   5.126   0.855 -0.3588  1.3268 -0.8495
19417SOL    HW260184   7.038   5.081   0.860 -0.4536  1.1457  1.4167
19418SOL     OW60185   7.121   4.293   6.602 -0.1165 -1.0067 -1.0606
19418SOL    HW160186   7.168   4.267   6.681  0.5901  1.0360 -0.7469
19418SOL    HW260187   7.188   4.299   6.534 -0.4062 -0.9208 -1.3468
19419SOL     OW60188   8.698   3.264   7.782 -0.2886  0.1547  0.0919
19419SOL    HW160189   8.789   3.275   7.755 -0.2474  0.9762  0.5387
19419SOL    HW260190   8.701   3.265   7.878 -0.5457 -1.7728  0.1694
19420SOL     OW60191   1.599   8.717   7.342  0.2047 -0.4874 -0.0483
19420SOL    HW160192   1.669   8.659   7.313  0.0567 -0.4413 -0.5018
19420SOL    HW260193   1.621   8.802   7.304 -0.7878 -0.7652 -1.3269
19421SOL     OW60194   2.335   5.572   4.770  0.9539 -0.0553 -0.3211
19421SOL    HW160195   2.256   5.548   4.722  0.9396  0.2275 -0.4410
19421SOL    HW260196   2.385   5.490   4.777  0.4652 -0.3245  0.1114
19422SOL     OW60197   0.301   8.033   0.853  0.0595 -0.2551 -0.2937
19422SOL    HW160198   0.237   7.974   0.892 -1.3164  1.6074  0.4371
19422SOL    HW260199   0.372   8.038   0.916  0.3556 -1.3437 -0.5189
19423SOL     OW60200   0.114   6.522   2.519 -0.3982 -0.3505 -0.3629
19423SOL    HW160201   0.190   6.579   2.527 -0.5823 -0.1658  0.1202
19423SOL    HW260202   0.074   6.522   2.606  0.6884 -2.7816  0.2324
19424SOL     OW60203   1.307   7.154   0.953 -0.6078  0.2385 -0.1201
19424SOL    HW160204   1.280   7.096   1.024 -0.1477 -1.1264 -1.0362
19424SOL    HW260205   1.401   7.162   0.963 -0.7916  1.8810  0.7384
19425SOL     OW60206   1.176   1.042   6.365 -0.2265  0.3343 -0.5203
19425SOL    HW160207   1.230   1.059   6.288  0.2016  0.1546 -0.2612
19425SOL    HW260208   1.180   1.123   6.416  0.8028 -0.0772  0.0988
19426SOL     OW60209   1.675   3.728   5.736 -0.6651  0.2396 -0.4446
19426SOL    HW160210   1.670   3.702   5.828  2.0710  0.7675 -0.0627
19426SOL    HW260211   1.638   3.816   5.733  1.5125  1.2915  0.7443
19427SOL     OW60212   2.919   8.261   1.161 -0.4016  0.4215 -0.5210
19427SOL    HW160213   2.901   8.174   1.124  0.9652  0.2633 -0.8763
19427SOL    HW260214   2.864   8.265   1.239  2.0838 -2.2803  1.6124
19428SOL     OW60215   7.547   3.360   6.057  0.0597  0.1470  0.1469
19428SOL    HW160216   7.502   3.276   6.057 -1.4517  0.9315  0.0599
19428SOL    HW260217   7.513   3.406   5.980 -1.7198  2.1507  1.9905
19429SOL     OW60218   3.634   7.798   7.423  0.1658 -0.4615  0.0114
19429SOL    HW160219   3.636   7.732   7.492  1.5654  0.1347  0.5778
19429SOL    HW260220   3.630   7.881   7.469 -1.2765 -0.1147 -0.6935
19430SOL     OW60221   6.996   1.670   6.640 -0.6079  0.2214  0.0264
19430SOL    HW160222   6.944   1.652   6.718 -0.6196  1.9815  0.4755
19430SOL    HW260223   6.977   1.761   6.619 -0.8653 -0.2870 -2.2551
19431SOL     OW60224   3.647   5.263   0.737  0.0233 -0.0143  0.3045
19431SOL    HW160225   3.624   5.179   0.696 -0.2271  0.8650 -1.4581
19431SOL    HW260226   3.725   5.292   0.690  1.2058 -0.0875  2.1399
19432SOL     OW60227   5.690   0.834   3.529 -0.1271 -0.0181  0.2240
19432SOL    HW160228   5.603   0.800   3.552  0.3584 -1.5726 -0.0875
19432SOL    HW260229   5.708   0.798   3.442  1.3376 -0.8049  0.8090
19433SOL     OW60230   2.034   7.035   7.150  0.0865 -0.3623  0.2342
19433SOL    HW160231   1.987   6.973   7.206 -1.8465  1.3290  0.5740
19433SOL    HW260232   2.021   7.002   7.061 -0.3972 -0.7755  0.4513
19434SOL     OW60233   1.193   8.779   4.290 -0.3328  0.4270  0.2181
19434SOL    HW160234   1.176   8.767   4.196  2.7259  0.0674 -0.3715
19434SOL    HW260235   1.177   8.692   4.328 -0.6893  0.3487 -0.0960
19435SOL     OW60236   2.861   0.849   4.172  0.4099 -0.0948  0.2744
19435SOL    HW160237   2.786   0.875   4.118  1.0371 -1.5493 -1.4144
19435SOL    HW260238   2.892   0.930   4.212 -0.0741  1.0850 -1.6166
19436SOL     OW60239   8.807   2.155   5.295 -0.2909  0.1386 -0.3031
19436SOL    HW160240   8.878   2.120   5.349  0.1798  0.1718 -0.8845
19436SOL    HW260241   8.836   2.141   5.205 -0.9548  0.2969 -0.5527
19437SOL     OW60242   7.293   0.715   4.106  0.6104 -0.1659 -0.5735
19437SOL    HW160243   7.222   0.750   4.052  0.8525 -3.8253 -3.6697
19437SOL    HW260244   7.252   0.696   4.191 -1.0899  1.2333 -1.0316
19438SOL     OW60245   1.403   5.379   0.012 -0.5249  0.4771  0.2178
19438SOL    HW160246   1.354   5.367   0.093 -0.4581  0.2720  0.2286
19438SOL    HW260247   1.421   5.290  -0.019 -0.2914  0.5507  0.1358
19439SOL     OW60248   6.427   6.560   3.833 -0.0903 -0.4471  0.4092
19439SOL    HW160249   6.475   6.643   3.844  2.1013 -1.8168  2.1174
19439SOL    HW260250   6.349   6.571   3.888 -0.0849  0.6493  0.2257
19440SOL     OW60251   0.548   5.947   8.147  0.1791 -0.0879 -0.5644
19440SOL    HW160252   0.555   5.879   8.081  0.3572 -1.0907  0.4582
19440SOL    HW260253   0.459   5.940   8.181 -0.4400  1.4640 -1.7538
19441SOL     OW60254   7.499   1.728   1.735 -0.2994 -0.5730  0.8770
19441SOL    HW160255   7.458   1.809   1.704  0.6522 -0.4966 -0.2395
19441SOL    HW260256   7.567   1.757   1.795 -0.7633 -0.6233  1.4408
19442SOL     OW60257   8.767   1.069   1.197 -0.3649 -0.1286  0.0637
19442SOL    HW160258   8.857   1.062   1.167 -0.3485  1.0914 -0.2346
19442SOL    HW260259   8.717   1.090   1.119 -0.4903  1.9568  0.6530
19443SOL     OW60260   0.956   6.447   4.326 -0.3335  0.0885  0.1740
19443SOL    HW160261   0.952   6.543   4.322 -2.0486  0.2995  3.1590
19443SOL    HW260262   1.039   6.428   4.369 -0.4873  0.3608  0.6065
19444SOL     OW60263   5.949   3.135   5.610  0.7301 -0.4538 -0.1061
19444SOL    HW160264   5.973   3.227   5.625 -0.3658  0.0168 -1.1003
19444SOL    HW260265   6.022   3.085   5.648  1.7471  0.8311 -0.2762
19445SOL     OW60266   4.903   6.961   4.145  0.0389  0.0119  0.1587
19445SOL    HW160267   4.894   6.889   4.208 -0.2745  0.5231  0.7113
19445SOL    HW260268   4.815   6.973   4.111  0.6728 -2.1569 -2.5595
19446SOL     OW60269   7.653   4.144   3.857 -0.6082 -0.4511 -0.3234
19446SOL    HW160270   7.587   4.203   3.823 -0.7998  0.0672  0.8926
19446SOL    HW260271   7.711   4.127   3.782 -0.7214  1.0224 -0.7841
19447SOL     OW60272   7.954   1.512   2.465 -0.4132 -0.5063  0.0119
19447SOL    HW160273   8.013   1.506   2.541  0.3475  0.3963 -0.4783
19447SOL    HW260274   7.931   1.604   2.460 -2.1569 -0.8960  0.3728
19448SOL     OW60275   1.734   1.410   1.249 -0.0883  0.6290 -0.1209
19448SOL    HW160276   1.745   1.505   1.249  1.6387  0.4586  0.7562
19448SOL    HW260277   1.728   1.387   1.342  0.1298 -0.1910 -0.3061
19449SOL     OW60278   3.010   2.656   6.082  0.2647 -0.3949  0.1322
19449SOL    HW160279   3.045   2.742   6.057  0.8688 -1.1818 -1.9201
19449SOL    HW260280   2.969   2.671   6.167 -0.1946  2.0816 -0.4414
19450SOL     OW60281   0.049   0.658   1.389  0.2183 -0.4781  0.7269
19450SOL    HW160282   0.137   0.696   1.390  0.6933 -1.5015 -0.5580
19450SOL    HW260283   0.010   0.688   1.471  2.0357 -0.6336  1.7061
19451SOL     OW60284   3.895   5.428   8.245  0.1331  0.1067  0.3449
19451SOL    HW160285   3.818   5.481   8.263 -1.3050 -1.4944 -0.8147
19451SOL    HW260286   3.882   5.347   8.294  0.8659 -0.3469 -0.1703
19452SOL     OW60287   3.954   2.655   3.355 -0.0416 -0.0803  0.3243
19452SOL    HW160288   3.964   2.702   3.272  0.0475 -0.3963  0.1520
19452SOL    HW260289   3.912   2.573   3.330  0.8223 -0.5742  0.4555
19453SOL     OW60290   2.500   1.435   4.856 -0.4191  0.0544  0.3475
19453SOL    HW160291   2.572   1.482   4.899 -1.0499  1.1571  0.2577
19453SOL    HW260292   2.425   1.494   4.866 -1.0853 -0.6504 -0.3864
19454SOL     OW60293   8.163   2.603   1.136  0.1071 -0.1049  0.2170
19454SOL    HW160294   8.188   2.511   1.152  2.3009  0.3821 -0.0831
19454SOL    HW260295   8.124   2.602   1.049 -1.0418 -0.9232  0.7119
19455SOL     OW60296   7.184   6.281   0.092 -0.0060  0.3818  0.2765
19455SOL    HW160297   7.215   6.227   0.166 -0.4138 -2.7962 -1.6650
19455SOL    HW260298   7.258   6.338   0.071  1.0489 -0.4459  1.5514
19456SOL     OW60299   6.363   6.768   0.170 -0.1920 -0.5217  0.1435
19456SOL    HW160300   6.410   6.833   0.117 -2.1548  2.5789  1.9119
19456SOL    HW260301   6.407   6.769   0.255  0.9794 -3.1208 -0.3433
19457SOL     OW60302   7.134   2.981   5.694 -0.0067 -0.3714 -0.0332
19457SOL    HW160303   7.172   2.969   5.782  2.4806 -1.1562 -1.1283
19457SOL    HW260304   7.095   2.896   5.674  0.1475 -0.4500 -0.0057
19458SOL     OW60305   2.359   8.507   7.198  0.0415  0.1415 -0.5507
19458SOL    HW160306   2.380   8.505   7.291 -2.3304 -0.0227  0.0503
19458SOL    HW260307   2.319   8.593   7.184 -1.7213 -0.6775 -0.8489
19459SOL     OW60308   0.885   0.481   7.940  0.2067 -0.5205  0.0203
19459SOL    HW160309   0.816   0.451   7.999 -0.7507 -0.6528 -1.1279
19459SOL    HW260310   0.952   0.413   7.944  0.3276 -0.3526  1.2082
19460SOL     OW60311   7.043   1.563   0.823 -0.7447  0.4888 -0.5393
19460SOL    HW160312   6.950   1.545   0.839 -0.5143 -0.9637 -0.6610
19460SOL    HW260313   7.044   1.610   0.740 -1.4228  1.2009 -0.1519
19461SOL     OW60314   0.716   3.254   7.094  0.3471  0.4778  0.6213
19461SOL    HW160315   0.809   3.230   7.096  0.2603  0.1516  0.7188
19461SOL    HW260316   0.707   3.318   7.165  0.0575 -1.0904  2.0439
19462SOL     OW60317   4.432   1.925   6.502 -0.1322 -0.1600  0.3430
19462SOL    HW160318   4.348   1.965   6.526 -0.6783 -0.5747 -0.8209
19462SOL    HW260319   4.411   1.867   6.429  1.2346  0.0245 -0.2246
19463SOL     OW60320   5.888   7.279   1.234 -0.8551 -0.0139  0.1359
19463SOL    HW160321   5.977   7.285   1.199 -1.1264  1.8564 -0.3212
19463SOL    HW260322   5.867   7.368   1.262 -2.8600 -0.2511 -0.4653
19464SOL     OW60323   0.009   1.112   1.985 -0.0130  0.2313 -0.1770
19464SOL    HW160324  -0.072   1.094   2.032  0.0161 -0.2325 -0.2985
19464SOL    HW260325   0.069   1.147   2.052 -0.3404  0.6725 -0.1082
19465SOL     OW60326   3.007   2.172   0.436  0.2423 -0.0659 -0.0068
19465SOL    HW160327   3.079   2.215   0.483  0.1109 -1.9014  2.0730
19465SOL    HW260328   3.016   2.202   0.346  3.5593 -0.1014  0.1738
19466SOL     OW60329   0.589   5.477   8.830  0.1272  0.0892 -0.5595
19466SOL    HW160330   0.589   5.515   8.742 -0.1403  3.6672  0.7890
19466SOL    HW260331   0.680   5.452   8.845 -0.0047 -1.5619 -2.1402
19467SOL     OW60332   8.750   5.927   4.801  0.0685 -0.3216 -0.2836
19467SOL    HW160333   8.806   5.855   4.771  0.7545  0.2031 -0.3073
19467SOL    HW260334   8.702   5.955   4.723  1.0125  0.3020 -0.6624
19468SOL     OW60335   7.303   8.524   3.817 -0.3510 -0.2118  0.0789
19468SOL    HW160336   7.241   8.510   3.745  0.2204 -0.4301 -0.3805
19468SOL    HW260337   7.370   8.458   3.803 -1.0579 -1.3438  1.7696
19469SOL     OW60338   6.086   8.197   3.353  0.0074 -0.1129 -0.0576
19469SOL    HW160339   6.151   8.147   3.303  0.6324 -0.8712  1.4729
19469SOL    HW260340   6.102   8.174   3.444 -2.2151 -0.0550  0.4074
19470SOL     OW60341   6.727   2.004   8.714 -0.2001  0.8036 -0.0773
19470SOL    HW160342   6.794   2.071   8.697  1.2844 -0.5550  0.1257
19470SOL    HW260343   6.758   1.927   8.667  0.0421 -0.8117  2.5170
19471SOL     OW60344   1.825   7.073   6.889 -0.1323  0.0317  0.4793
19471SOL    HW160345   1.891   7.004   6.887  0.2665  0.4164 -0.8433
19471SOL    HW260346   1.751   7.034   6.936  0.9295 -0.4749  1.7964
19472SOL     OW60347   7.797   8.784   4.205 -0.5552  0.1160  0.2108
19472SOL    HW160348   7.731   8.715   4.207  0.6636 -1.0811  0.7394
19472SOL    HW260349   7.798   8.819   4.294  1.3140 -1.6872  0.9678
19473SOL     OW60350   8.850   7.490   6.398 -0.6386  0.1338  0.2321
19473SOL    HW160351   8.833   7.579   6.428  1.1921  0.6510 -0.1292
19473SOL    HW260352   8.804   7.483   6.314 -1.1064  0.5892  0.4456
19474SOL     OW60353   3.735   6.521   4.958 -0.1964 -0.1994  1.0625
19474SOL    HW160354   3.648   6.549   4.984 -0.7671 -0.7817 -0.1632
19474SOL    HW260355   3.726   6.496   4.866  1.3319  0.0304  0.8235
19475SOL     OW60356   8.160   8.412   2.344  0.1220  0.2907 -0.1721
19475SOL    HW160357   8.180   8.391   2.253 -2.2889 -0.6094 -0.5731
19475SOL    HW260358   8.194   8.338   2.394 -0.0310 -0.0358 -0.5429
19476SOL     OW60359   7.041   7.941   1.814 -0.2344  0.2042  0.1380
19476SOL    HW160360   7.023   7.876   1.882 -2.4963 -0.8317 -1.3521
19476SOL    HW260361   6.969   8.004   1.820  0.5244  1.1264 -0.1428
19477SOL     OW60362   6.494   4.564   5.279  0.1054 -0.6518 -0.0682
19477SOL    HW160363   6.474   4.626   5.209  1.2911  0.1060  0.2255
19477SOL    HW260364   6.416   4.562   5.333 -0.4267 -0.4178 -0.8106
19478SOL     OW60365   3.290   7.096   8.630  0.5167 -0.3660  0.3289
19478SOL    HW160366   3.256   7.154   8.698  1.8931  1.1873 -0.2324
19478SOL    HW260367   3.332   7.155   8.567 -1.7861 -1.5695 -2.5851
19479SOL     OW60368   0.123   2.912   0.510  0.4031 -0.4096  0.2282
19479SOL    HW160369   0.195   2.972   0.491  0.3815 -0.5458 -0.2914
19479SOL    HW260370   0.060   2.928   0.440 -0.2494 -0.0166  0.8852
19480SOL     OW60371   0.080   0.176   0.853  0.1065 -0.8313  0.0096
19480SOL    HW160372   0.079   0.271   0.865  1.2376 -0.9306  1.1010
19480SOL    HW260373   0.024   0.142   0.923 -0.0587 -0.9799 -0.1951
19481SOL     OW60374   6.209   4.527   6.646 -0.1677 -0.5973  0.1745
19481SOL    HW160375   6.218   4.621   6.656 -0.8472 -0.4769 -0.2620
19481SOL    HW260376   6.238   4.509   6.557 -1.1064 -0.6302 -0.1423
19482SOL     OW60377   3.339   2.483   0.314  0.0281  0.1644  0.0057
19482SOL    HW160378   3.357   2.464   0.222  1.2854  3.9032 -0.7060
19482SOL    HW260379   3.253   2.527   0.312 -0.5484 -0.8836  0.8433
19483SOL     OW60380   4.892   7.340   2.659 -0.3963  0.0142  0.5108
19483SOL    HW160381   4.904   7.270   2.722  0.3920  1.5995  2.2154
19483SOL    HW260382   4.973   7.392   2.664 -0.7110  0.7423 -1.1134
19484SOL     OW60383   3.338   8.023   8.626 -0.0768 -0.1309 -0.5361
19484SOL    HW160384   3.252   8.052   8.597 -0.2706 -0.9353 -0.7906
19484SOL    HW260385   3.380   7.989   8.547 -0.4272 -1.9020  0.0036
19485SOL     OW60386   1.173   0.770   2.959 -0.1754  0.3085  0.4267
19485SOL    HW160387   1.095   0.722   2.932 -1.5439  2.0378  1.0676
19485SOL    HW260388   1.152   0.862   2.941  1.9212  0.8008  0.1829
19486SOL     OW60389   5.750   7.283   3.458  0.4464 -0.6330  0.1850
19486SOL    HW160390   5.752   7.357   3.397  0.4873 -0.6420  0.1755
19486SOL    HW260391   5.664   7.289   3.500  1.8688  1.7718  3.0945
19487SOL     OW60392   0.333   3.994   3.715 -0.3029  0.0267 -0.4727
19487SOL    HW160393   0.311   4.047   3.638  1.9810 -0.3425 -1.4602
19487SOL    HW260394   0.380   3.919   3.679 -0.9213 -1.1872  1.1590
19488SOL     OW60395   2.580   8.786   1.259  0.3279  0.8402 -0.3650
19488SOL    HW160396   2.644   8.816   1.195  0.5751  1.2419  0.0678
19488SOL    HW260397   2.628   8.727   1.317  0.0959  0.4466 -0.5648
19489SOL     OW60398   7.839   3.089   0.320 -0.0592 -0.1109  0.4476
19489SOL    HW160399   7.806   3.128   0.239  0.5502  0.3264  0.4015
19489SOL    HW260400   7.761   3.067   0.370 -0.5017 -1.7945 -0.8876
19490SOL     OW60401   0.046   1.505   1.879  0.2861  0.0139 -0.2214
19490SOL    HW160402  -0.014   1.538   1.946 -0.0869 -0.6661 -0.2150
19490SOL    HW260403   0.074   1.584   1.833 -0.4173  0.3739 -0.0650
19491SOL     OW60404   7.175   2.486   7.946  0.3626 -0.4985  0.0215
19491SOL    HW160405   7.197   2.436   8.024 -0.8523  1.7275  1.9156
19491SOL    HW260406   7.080   2.499   7.951 -0.0397 -1.6587 -2.7360
19492SOL     OW60407   2.252   8.254   8.406 -1.2526 -0.7623  0.4790
19492SOL    HW160408   2.167   8.299   8.400 -0.2756  1.0397 -1.0506
19492SOL    HW260409   2.280   8.244   8.315  0.6327 -0.3844  0.9813
19493SOL     OW60410   4.849   7.666   7.449 -0.0862  0.7974  0.2123
19493SOL    HW160411   4.842   7.726   7.523  0.7590  1.1070  0.0467
19493SOL    HW260412   4.822   7.581   7.485  0.9311  0.8097  1.0402
19494SOL     OW60413   2.247   7.070   5.434  0.4925 -0.2493 -0.5072
19494SOL    HW160414   2.249   6.979   5.404  1.3318 -0.3011 -0.3123
19494SOL    HW260415   2.329   7.082   5.482  0.5530  0.7126 -0.8229
19495SOL     OW60416   6.646   5.824   3.304  0.0287  0.1785  0.0641
19495SOL    HW160417   6.645   5.839   3.210 -0.2034 -2.6206 -0.4597
19495SOL    HW260418   6.739   5.824   3.327  0.2948 -2.1262 -0.7926
19496SOL     OW60419   6.448   3.771   6.194 -0.2800 -0.6418  0.3803
19496SOL    HW160420   6.533   3.785   6.235  0.7516  0.3844 -1.9417
19496SOL    HW260421   6.387   3.826   6.243  0.8636  0.4021  0.6620
19497SOL     OW60422   1.838   8.486   4.308 -0.0987 -0.1019  0.2489
19497SOL    HW160423   1.874   8.566   4.269 -0.0487 -0.4286 -0.3949
19497SOL    HW260424   1.841   8.501   4.402 -0.3956  0.7854  0.1210
19498SOL     OW60425   7.741   7.934   4.363 -0.0719 -0.1500  0.3054
19498SOL    HW160426   7.694   7.857   4.332  0.8589 -0.2266 -1.0400
19498SOL    HW260427   7.769   7.912   4.452  0.6154 -1.5892 -0.2334
19499SOL     OW60428   8.285   4.468   0.186 -0.2053 -0.1116 -0.8649
19499SOL    HW160429   8.200   4.505   0.214  0.6981  0.5194  1.2987
19499SOL    HW260430   8.307   4.517   0.107 -0.5170  1.8679  0.1934
19500SOL     OW60431   6.334   8.206   0.556  0.4643 -0.0363 -0.0100
19500SOL    HW160432   6.279   8.284   0.567 -0.5075 -0.6264 -0.5793
19500SOL    HW260433   6.410   8.223   0.612 -1.8343 -0.6928  3.7229
19501SOL     OW60434   6.315   2.602   7.706 -0.4889 -0.0946  0.6280
19501SOL    HW160435   6.371   2.675   7.682  0.5164 -0.9927  0.1523
19501SOL    HW260436   6.308   2.608   7.801 -0.3444  0.5589  0.6043
19502SOL     OW60437   6.948   6.939   8.573  0.2285 -0.1888  0.0378
19502SOL    HW160438   7.040   6.946   8.547  0.0813  1.5539 -0.1491
19502SOL    HW260439   6.921   6.853   8.543  1.3243 -0.0228 -1.5404
19503SOL     OW60440   4.566   7.021   2.493  0.2674 -0.8607 -0.2183
19503SOL    HW160441   4.647   7.013   2.543  1.4381  2.9112 -1.1776
19503SOL    HW260442   4.586   6.981   2.408  1.1300 -0.1048 -0.3862
19504SOL     OW60443   7.610   1.533   8.761 -0.5506  0.3674 -0.4037
19504SOL    HW160444   7.650   1.577   8.836  1.3997  1.0452 -1.7446
19504SOL    HW260445   7.516   1.544   8.774 -0.3613 -0.5310  2.4794
19505SOL     OW60446   0.014   1.625   4.539 -0.0692 -0.8223 -0.0780
19505SOL    HW160447   0.061   1.709   4.535 -1.9043  0.3887  1.7321
19505SOL    HW260448   0.047   1.583   4.618  0.0120 -1.3170 -0.3679
19506SOL     OW60449   6.927   5.264   7.818 -0.6758 -0.3973 -0.4000
19506SOL    HW160450   6.962   5.339   7.865  0.2946 -1.6334  0.9464
19506SOL    HW260451   6.948   5.281   7.726  1.8832 -0.1800  0.1443
19507SOL     OW60452   3.713   1.527   5.582  0.5798 -0.3405 -0.2110
19507SOL    HW160453   3.701   1.457   5.518  2.0831 -0.6503 -0.1874
19507SOL    HW260454   3.807   1.543   5.583  0.3753  0.9931  0.5272
19508SOL     OW60455   0.152   6.902   3.112 -0.6758 -0.3296 -0.3148
19508SOL    HW160456   0.198   6.904   3.028 -0.5242 -1.4889 -0.2810
19508SOL    HW260457   0.098   6.823   3.107 -0.2601 -0.7146  0.8722
19509SOL     OW60458   0.660   6.855   5.693  0.0902  0.1866  0.3228
19509SOL    HW160459   0.649   6.769   5.732 -0.8883  0.5308  0.8295
19509SOL    HW260460   0.749   6.881   5.716  0.2574 -0.5164  0.4867
19510SOL     OW60461   3.237   3.385   0.013 -0.1754 -0.7317  0.1427
19510SOL    HW160462   3.229   3.357  -0.078  1.5352 -1.4026  0.1711
19510SOL    HW260463   3.278   3.472   0.007  1.2227 -1.3642  0.3004
19511SOL     OW60464   7.224   1.640   7.682 -0.6303  0.2270 -0.7684
19511SOL    HW160465   7.130   1.641   7.701 -0.2869  3.9911  1.7059
19511SOL    HW260466   7.228   1.627   7.587 -3.6139  0.0438 -0.9788
19512SOL     OW60467   1.386   7.506   5.593  0.2539 -0.7812 -0.2173
19512SOL    HW160468   1.385   7.483   5.685 -2.3876  0.6996  0.2414
19512SOL    HW260469   1.298   7.484   5.561  0.5001  0.3900 -1.8889
19513SOL     OW60470   6.463   4.960   2.333 -0.0867  0.2008 -0.1793
19513SOL    HW160471   6.422   4.943   2.248 -0.5932 -0.2763  0.1496
19513SOL    HW260472   6.390   4.973   2.393  0.2378 -0.5342  0.3932
19514SOL     OW60473   8.290   3.149   2.357  0.2237 -0.1074 -0.9410
19514SOL    HW160474   8.259   3.062   2.384  0.0585  0.1237 -0.3684
19514SOL    HW260475   8.231   3.174   2.286 -0.1978 -0.1516 -0.6105
19515SOL     OW60476   7.945   1.676   6.660  0.2566  0.2323 -0.1834
19515SOL    HW160477   7.892   1.750   6.691 -0.4662 -0.0590 -0.7126
19515SOL    HW260478   7.888   1.628   6.600 -0.1722 -2.1095  1.8941
19516SOL     OW60479   0.633   5.281   4.671 -0.1276  0.4162 -0.7999
19516SOL    HW160480   0.607   5.251   4.584  1.3618 -1.2238 -0.7387
19516SOL    HW260481   0.716   5.326   4.657 -0.1497  0.6202 -0.2890
19517SOL     OW60482   6.116   0.382   5.708 -0.5486  0.4355 -0.3430
19517SOL    HW160483   6.208   0.388   5.682 -0.3638  0.4315  0.2978
19517SOL    HW260484   6.075   0.459   5.669  0.3700  2.1704  1.9051
19518SOL     OW60485   1.197   8.295   7.730 -0.5809  0.7334 -0.7394
19518SOL    HW160486   1.126   8.288   7.666 -1.8634 -1.5431  0.7883
19518SOL    HW260487   1.210   8.206   7.761  0.4839  1.6363  1.6301
19519SOL     OW60488   4.555   1.529   6.260  0.3828 -0.1019 -0.0977
19519SOL    HW160489   4.482   1.468   6.273  0.7335 -0.1432  2.0753
19519SOL    HW260490   4.522   1.613   6.290  0.2832  0.5778 -1.9980
19520SOL     OW60491   3.719   8.114   1.615  0.2156 -0.0013  0.0289
19520SOL    HW160492   3.812   8.134   1.602 -0.2899  1.6796 -1.5992
19520SOL    HW260493   3.716   8.060   1.694  2.5507 -0.0025  0.1842
19521SOL     OW60494   6.749   7.146   3.879  0.7064 -0.7535  0.4149
19521SOL    HW160495   6.661   7.158   3.843  0.8549  0.9663  0.5693
19521SOL    HW260496   6.786   7.234   3.883  1.4377 -1.0812  2.8676
19522SOL     OW60497   5.212   1.448   7.893 -0.0051 -0.8314  0.4783
19522SOL    HW160498   5.183   1.502   7.819  0.7676  0.5413  1.1316
19522SOL    HW260499   5.298   1.416   7.867 -0.2208 -1.2853  0.3225
19523SOL     OW60500   1.645   7.764   4.182 -0.5014 -0.2872  0.4565
19523SOL    HW160501   1.640   7.805   4.268 -1.3332  1.4715 -0.3991
19523SOL    HW260502   1.739   7.764   4.161 -0.0872 -2.2569  2.0193
19524SOL     OW60503   8.647   0.684   1.211 -0.0877 -0.7657 -0.1769
19524SOL    HW160504   8.659   0.758   1.270  1.6792  1.7061 -3.3857
19524SOL    HW260505   8.559   0.651   1.231 -0.1153  0.7965  2.7578
19525SOL     OW60506   6.712   1.883   7.828 -0.2711  0.3146  0.5529
19525SOL    HW160507   6.620   1.863   7.810 -0.2854 -1.1708  2.0307
19525SOL    HW260508   6.723   1.863   7.921  1.8849 -0.8843  0.0967
19526SOL     OW60509   7.681   2.622   2.410  0.4702  0.2466  0.2810
19526SOL    HW160510   7.736   2.653   2.338 -0.3064  1.4054  0.1598
19526SOL    HW260511   7.599   2.671   2.400 -0.1531 -0.5988  1.1372
19527SOL     OW60512   4.430   0.516   4.623 -0.0160  0.2496  0.2385
19527SOL    HW160513   4.378   0.480   4.552 -0.7351  0.5812  0.5850
19527SOL    HW260514   4.421   0.453   4.695  0.7785 -0.1295  0.0199
19528SOL     OW60515   3.931   7.209   5.877  0.5363  0.0730  0.5248
19528SOL    HW160516   3.898   7.233   5.791  1.5633  1.3301  0.4455
19528SOL    HW260517   3.861   7.157   5.916 -0.7550  1.1011 -0.3206
19529SOL     OW60518   6.131   2.313   5.765  0.2697 -0.0764 -0.2540
19529SOL    HW160519   6.144   2.397   5.810 -1.1367  0.5877 -1.0243
19529SOL    HW260520   6.076   2.262   5.824  0.2117 -0.0339 -0.2712
19530SOL     OW60521   6.526   0.642   1.659  0.0685 -0.3841  0.3497
19530SOL    HW160522   6.502   0.632   1.567  2.0800 -1.5056 -0.1207
19530SOL    HW260523   6.586   0.717   1.661 -1.9641  1.2974  1.2146
19531SOL     OW60524   1.360   4.766   0.325  0.0308  0.1515 -0.2195
19531SOL    HW160525   1.412   4.797   0.251 -1.4948  0.4564 -1.1952
19531SOL    HW260526   1.385   4.674   0.336  0.4598  0.1795 -0.9459
19532SOL     OW60527   1.939   7.827   3.782 -1.3389 -0.6992  0.1698
19532SOL    HW160528   2.001   7.854   3.850 -1.9172  0.9462  0.0841
19532SOL    HW260529   1.939   7.899   3.719 -1.9195 -1.5341 -0.8069
19533SOL     OW60530   7.111   0.090   8.800  0.3186  0.2976 -0.3051
19533SOL    HW160531   7.058   0.166   8.778  1.1449  1.2467  0.8508
19533SOL    HW260532   7.151   0.111   8.885 -0.0108 -1.7429  0.4183
19534SOL     OW60533   2.356   5.411   4.471  0.0105  0.5755  0.0683
19534SOL    HW160534   2.338   5.347   4.540  0.3206  0.7967  0.3548
19534SOL    HW260535   2.398   5.360   4.402 -0.3208  0.3499  0.0315
19535SOL     OW60536   5.504   2.723   8.497  0.8485  0.0254  0.6223
19535SOL    HW160537   5.449   2.747   8.571  0.1711 -0.6369  0.3511
19535SOL    HW260538   5.537   2.806   8.463 -2.6261  0.8457 -1.2627
19536SOL     OW60539   0.343   0.950   8.531 -0.5038  0.0074 -0.0774
19536SOL    HW160540   0.267   0.891   8.522 -1.0681  0.6752  0.2117
19536SOL    HW260541   0.359   0.955   8.625 -1.1709  1.1851 -0.0099
19537SOL     OW60542   1.259   1.579   0.495  1.3320 -0.1095 -0.4381
19537SOL    HW160543   1.170   1.546   0.507  1.6533 -0.6020  0.8211
19537SOL    HW260544   1.278   1.563   0.403  0.7660 -1.6948 -0.3144
19538SOL     OW60545   0.923   0.934   5.457  0.5524  0.6065 -0.1558
19538SOL    HW160546   0.906   0.840   5.448  0.2923  0.5870  0.4467
19538SOL    HW260547   0.995   0.952   5.397  0.3564  0.0934 -0.5493
19539SOL     OW60548   3.532   5.658   3.580  0.9424 -0.2890  0.5791
19539SOL    HW160549   3.598   5.703   3.527 -0.1429 -0.8280 -1.3292
19539SOL    HW260550   3.570   5.572   3.598  1.4544  0.0146  0.9977
19540SOL     OW60551   5.644   3.234   7.481  0.5327 -0.1743  0.5235
19540SOL    HW160552   5.634   3.329   7.475 -2.8725 -0.3658  1.1788
19540SOL    HW260553   5.566   3.199   7.438 -0.1240 -2.5477  3.2956
19541SOL     OW60554   8.784   2.402   2.351  0.0279  0.6763  0.1064
19541SOL    HW160555   8.698   2.384   2.315  0.2285  0.7887 -0.4404
19541SOL    HW260556   8.770   2.474   2.412 -0.3744  0.2487  0.5307
19542SOL     OW60557   6.922   0.758   1.846  0.3591 -0.0343  0.6241
19542SOL    HW160558   6.991   0.713   1.797 -0.1541 -0.8359  0.6073
19542SOL    HW260559   6.947   0.850   1.844  0.1472  0.0412 -1.5544
19543SOL     OW60560   2.192   1.186   3.260  0.1304 -0.2239 -0.1310
19543SOL    HW160561   2.103   1.191   3.294  0.5657 -1.2552  1.2781
19543SOL    HW260562   2.245   1.161   3.336  1.5805  0.1030 -0.9989
19544SOL     OW60563   6.597   8.372   6.103 -0.5681  0.3488  0.2748
19544SOL    HW160564   6.650   8.365   6.024 -1.3635  0.9574 -0.3296
19544SOL    HW260565   6.509   8.348   6.074 -0.8027  0.2363  1.0598
19545SOL     OW60566   5.921   5.250   6.294 -0.1257 -0.0663 -0.0923
19545SOL    HW160567   5.957   5.338   6.306  2.3872 -0.9774 -0.5449
19545SOL    HW260568   5.906   5.242   6.200  1.7399 -0.8459 -0.3549
19546SOL     OW60569   8.288   0.777   3.385 -0.4051  0.3404  0.3070
19546SOL    HW160570   8.322   0.697   3.343 -0.3262 -1.0102  2.7857
19546SOL    HW260571   8.305   0.846   3.321  0.2016 -1.4955 -1.6295
19547SOL     OW60572   7.311   8.079   1.843  0.2565 -0.1487 -0.2883
19547SOL    HW160573   7.369   8.079   1.919  0.4256  0.5897 -0.4063
19547SOL    HW260574   7.309   8.171   1.814 -0.1312 -0.3482 -0.9227
19548SOL     OW60575   7.812   4.080   4.583 -0.3436 -0.1722  0.5816
19548SOL    HW160576   7.907   4.091   4.594 -0.2096 -1.5857  1.0824
19548SOL    HW260577   7.777   4.083   4.672 -1.2184  3.3919  0.2738
19549SOL     OW60578   5.840   1.352   6.511  0.1439  0.1449 -0.2701
19549SOL    HW160579   5.769   1.353   6.576 -0.8834  0.5546 -1.3483
19549SOL    HW260580   5.798   1.320   6.431  1.2282  0.2340 -0.8948
19550SOL     OW60581   4.318   6.963   4.548  0.1730  0.4049  0.0937
19550SOL    HW160582   4.325   7.018   4.471  1.2555  0.9639  0.5737
19550SOL    HW260583   4.254   7.007   4.603  0.6913  0.9494  0.2714
19551SOL     OW60584   6.156   7.249   6.672  0.5382 -1.0253  0.3392
19551SOL    HW160585   6.160   7.265   6.766  1.7412  0.9536  0.0127
19551SOL    HW260586   6.186   7.331   6.633  0.3148 -1.8950 -1.7690
19552SOL     OW60587   4.418   4.353   7.347  0.1107  0.1409 -0.2569
19552SOL    HW160588   4.428   4.432   7.293  0.7812  2.1005  2.5248
19552SOL    HW260589   4.325   4.350   7.368  0.0074 -0.0844 -0.7353
19553SOL     OW60590   5.762   2.177   0.681 -0.0232  0.1802  0.5125
19553SOL    HW160591   5.814   2.257   0.689  0.9007 -0.4498  0.9348
19553SOL    HW260592   5.798   2.118   0.748 -0.5458 -0.6724  0.0583
19554SOL     OW60593   8.386   6.942   1.900 -0.1077  0.4291  0.2055
19554SOL    HW160594   8.330   6.997   1.955  1.5918  2.5448 -0.0443
19554SOL    HW260595   8.325   6.886   1.853 -1.7845  0.4032  2.2519
19555SOL     OW60596   6.603   1.520   8.776 -0.3684  0.0724 -0.3081
19555SOL    HW160597   6.583   1.610   8.748 -0.0132  0.0494 -0.6438
19555SOL    HW260598   6.534   1.467   8.736  0.5465 -0.0569 -1.7889
19556SOL     OW60599   1.028   3.349   5.625 -0.4075 -0.0069 -0.9164
19556SOL    HW160600   1.089   3.394   5.684 -1.3203  0.4868 -0.3244
19556SOL    HW260601   0.999   3.273   5.675 -1.4305  0.5880 -0.5736
19557SOL     OW60602   3.892   5.050   6.577 -0.6770  0.6218 -0.0660
19557SOL    HW160603   3.873   5.068   6.669  0.9646  1.3227  0.1598
19557SOL    HW260604   3.825   5.099   6.529 -1.6070  0.1703  0.7441
19558SOL     OW60605   2.685   2.752   3.458 -0.1309  0.2956  0.2628
19558SOL    HW160606   2.708   2.677   3.514 -1.6727  0.1278  0.7174
19558SOL    HW260607   2.761   2.810   3.464  1.1918 -1.2871 -0.2388
19559SOL     OW60608   4.213   5.580   6.505 -0.3117 -0.6551 -0.0636
19559SOL    HW160609   4.123   5.575   6.537 -0.2242  0.0877  0.3144
19559SOL    HW260610   4.249   5.493   6.521 -0.9797 -0.9784 -0.2771
19560SOL     OW60611   1.487   8.509   8.273  0.0475 -0.4163  0.2607
19560SOL    HW160612   1.558   8.564   8.240 -1.5537  4.1703  3.4913
19560SOL    HW260613   1.517   8.482   8.360 -0.9602 -0.9547  0.4490
19561SOL     OW60614   5.766   7.601   5.462 -0.0025 -0.4404  0.1234
19561SOL    HW160615   5.826   7.548   5.514  1.2641  0.2719 -0.5632
19561SOL    HW260616   5.818   7.675   5.433 -1.1615  0.0896 -0.6913
19562SOL     OW60617   5.174   0.814   3.299  0.8426 -0.2675 -0.0307
19562SOL    HW160618   5.187   0.867   3.377  0.8885  2.3364 -1.6937
19562SOL    HW260619   5.238   0.744   3.307  0.3979 -0.4946  2.5407
19563SOL     OW60620   5.919   3.724   0.727 -0.5492 -0.0877 -0.3514
19563SOL    HW160621   5.846   3.727   0.665 -1.7279 -1.9904  0.8207
19563SOL    HW260622   5.907   3.800   0.783 -1.1735  0.0683 -0.6906
19564SOL     OW60623   2.902   5.811   7.254 -0.2484  0.5037 -0.6445
19564SOL    HW160624   2.930   5.738   7.309 -0.8532  0.5545 -0.2619
19564SOL    HW260625   2.907   5.887   7.312 -1.2853  0.4981 -0.5244
19565SOL     OW60626   5.252   6.057   3.207 -0.2431  0.8790 -0.3783
19565SOL    HW160627   5.256   5.976   3.156 -0.4369 -0.6087  1.7944
19565SOL    HW260628   5.219   6.029   3.293  2.4664  2.7365  1.4441
19566SOL     OW60629   5.602   6.563   2.100 -0.0376  0.4198 -0.3735
19566SOL    HW160630   5.648   6.482   2.080 -0.1078  0.5019 -0.8746
19566SOL    HW260631   5.510   6.542   2.087 -0.0613  0.5590 -0.4284
19567SOL     OW60632   5.782   6.680   1.383 -0.0498 -0.5798 -0.0022
19567SOL    HW160633   5.720   6.617   1.421 -0.3049 -0.1697  0.2761
19567SOL    HW260634   5.726   6.751   1.350  0.1889 -0.8370 -0.9700
19568SOL     OW60635   3.172   3.944   1.547 -0.0314  0.6900  0.4904
19568SOL    HW160636   3.129   3.963   1.464  1.0183  0.2759 -0.1730
19568SOL    HW260637   3.235   4.016   1.557  0.4339  0.2852  0.4958
19569SOL     OW60638   8.029   3.288   8.413 -0.2042 -0.2930 -0.0262
19569SOL    HW160639   8.010   3.253   8.326 -2.4887 -0.7564  0.5968
19569SOL    HW260640   8.124   3.298   8.415 -0.0621 -0.7602 -2.3761
19570SOL     OW60641   6.216   8.254   2.967 -0.1129 -0.2709 -0.3064
19570SOL    HW160642   6.251   8.329   3.016  0.9284 -1.2092  0.4192
19570SOL    HW260643   6.136   8.288   2.926 -0.1172  1.0059  0.6903
19571SOL     OW60644   2.952   3.928   2.054  0.1308 -0.5904  0.2697
19571SOL    HW160645   2.873   3.927   2.110  1.5534  0.2098  2.4276
19571SOL    HW260646   2.918   3.927   1.965 -2.3011 -1.7341  1.1038
19572SOL     OW60647   5.495   3.814   4.071  0.5435  0.5239 -0.1363
19572SOL    HW160648   5.497   3.740   4.132  2.0200  0.8991  0.3181
19572SOL    HW260649   5.406   3.813   4.035  0.5938 -1.6429 -0.3634
19573SOL     OW60650   7.751   7.417   6.173 -0.1767 -0.2084 -0.1679
19573SOL    HW160651   7.766   7.487   6.237  0.9323 -0.9308  0.4049
19573SOL    HW260652   7.693   7.456   6.107 -2.2419  0.2711  1.7915
19574SOL     OW60653   5.936   4.349   7.612 -0.1203  0.9146 -0.6179
19574SOL    HW160654   5.915   4.275   7.669  0.8976  0.1032 -1.2501
19574SOL    HW260655   6.028   4.366   7.627  0.1262  0.8070 -1.8414
19575SOL     OW60656   4.625   5.059   6.329 -0.2058  0.2195 -0.5854
19575SOL    HW160657   4.678   5.138   6.335  0.2313 -0.0712 -0.5655
19575SOL    HW260658   4.686   4.992   6.295 -0.4161 -0.2492 -0.0545
19576SOL     OW60659   5.729   8.332   4.177  0.7236 -0.5395 -0.4070
19576SOL    HW160660   5.778   8.254   4.202 -0.8633 -0.8509  2.0123
19576SOL    HW260661   5.796   8.399   4.163  1.9696 -1.0677  2.3443
19577SOL     OW60662   1.457   6.912   2.513 -0.1599 -0.0392  0.7273
19577SOL    HW160663   1.466   6.978   2.581  1.4378 -0.7782  1.2583
19577SOL    HW260664   1.376   6.866   2.535 -0.7652  1.0650  0.9039
19578SOL     OW60665   0.366   7.037   2.906 -0.0440  0.0722  0.4397
19578SOL    HW160666   0.451   7.008   2.939 -0.7781 -0.8666  1.5637
19578SOL    HW260667   0.371   7.023   2.811  0.7362 -0.8493  0.6033
19579SOL     OW60668   5.023   6.593   6.286  0.5521 -0.0713 -0.3928
19579SOL    HW160669   5.011   6.641   6.204 -1.3801  1.5267  0.7237
19579SOL    HW260670   4.941   6.608   6.334  1.2083 -1.8336  1.3886
19580SOL     OW60671   2.452   6.742   1.942  0.1678 -0.6041 -0.0079
19580SOL    HW160672   2.450   6.657   1.986 -0.1600 -0.3089  0.5675
19580SOL    HW260673   2.519   6.792   1.988  2.5814 -1.5353 -2.2783
19581SOL     OW60674   8.132   0.613   2.387  0.3752 -0.2493 -0.3005
19581SOL    HW160675   8.049   0.600   2.434  0.5351 -0.2673 -0.0207
19581SOL    HW260676   8.199   0.595   2.453  0.6424 -2.8925 -1.1944
19582SOL     OW60677   4.922   5.010   2.833 -0.1617 -0.0290 -0.4024
19582SOL    HW160678   4.969   5.093   2.844  0.8592 -0.5309 -0.9219
19582SOL    HW260679   4.924   4.970   2.920 -0.0997  0.1934 -0.2995
19583SOL     OW60680   5.214   4.184   7.906  0.1123  0.0680 -0.1629
19583SOL    HW160681   5.224   4.217   7.817  1.6960 -0.7509 -0.3119
19583SOL    HW260682   5.279   4.232   7.957 -1.4201  1.2270  0.7908
19584SOL     OW60683   5.546   7.506   2.634 -1.1197 -0.1156 -0.6241
19584SOL    HW160684   5.599   7.515   2.713 -0.9539  1.9476 -0.9127
19584SOL    HW260685   5.483   7.438   2.656 -0.4836 -0.2581  0.9450
19585SOL     OW60686   4.744   3.037   0.679  0.8784 -0.0591  0.5706
19585SOL    HW160687   4.822   3.084   0.648  0.2861 -0.6732 -2.1836
19585SOL    HW260688   4.763   2.945   0.661  0.2706 -0.4224  1.7382
19586SOL     OW60689   1.638   8.179   0.483  0.5326 -0.5829  0.2046
19586SOL    HW160690   1.652   8.085   0.478 -2.5569 -1.1635  0.2739
19586SOL    HW260691   1.571   8.196   0.416 -0.3672  1.2024  1.4827
19587SOL     OW60692   6.642   6.070   7.876  0.6711 -0.0090  0.0148
19587SOL    HW160693   6.617   6.132   7.808 -0.9113  0.4996  1.0110
19587SOL    HW260694   6.708   6.116   7.928  1.2693 -0.0902 -0.6556
19588SOL     OW60695   0.749   3.586   1.319  0.1235 -0.1153  0.3701
19588SOL    HW160696   0.785   3.558   1.403  0.9102 -0.0590  0.0574
19588SOL    HW260697   0.715   3.674   1.336  1.1965  0.3091  0.3909
19589SOL     OW60698   3.819   6.713   2.793 -0.0776 -0.5428 -0.0359
19589SOL    HW160699   3.838   6.677   2.879  0.7217 -0.0438  0.0001
19589SOL    HW260700   3.745   6.661   2.761  0.3532 -1.4700  0.4724
19590SOL     OW60701   8.048   6.015   8.760 -0.1293 -0.1439 -0.0579
19590SOL    HW160702   7.981   5.947   8.752 -1.4207  1.0241  0.5402
19590SOL    HW260703   8.033   6.073   8.685  0.8233 -0.3701 -0.4410
19591SOL     OW60704   2.242   2.658   1.908 -0.0970 -0.3406  0.2526
19591SOL    HW160705   2.308   2.620   1.850 -1.2710 -0.7955 -0.8274
19591SOL    HW260706   2.159   2.619   1.880 -0.9880  1.0214  0.8654
19592SOL     OW60707   4.128   5.638   1.677  0.5819 -0.5358  0.1915
19592SOL    HW160708   4.144   5.586   1.598 -0.8341 -1.4352  0.4604
19592SOL    HW260709   4.034   5.629   1.693  0.9619 -1.1222  2.4945
19593SOL     OW60710   2.827   5.175   0.807  0.0135 -0.0481 -0.6813
19593SOL    HW160711   2.804   5.143   0.895 -0.1398  0.2823 -0.5955
19593SOL    HW260712   2.886   5.110   0.772  0.8406  0.2899  0.0524
19594SOL     OW60713   2.166   3.046   6.091 -0.0268 -0.6268  0.2519
19594SOL    HW160714   2.174   3.130   6.137 -0.5738 -0.2321 -0.3672
19594SOL    HW260715   2.222   3.056   6.014 -1.4299 -0.1656 -0.7531
19595SOL     OW60716   8.580   6.812   5.481  0.7185 -0.0976 -0.1346
19595SOL    HW160717   8.670   6.803   5.514  0.7086 -1.1408 -0.3747
19595SOL    HW260718   8.531   6.744   5.526  0.4820 -0.8568 -1.4895
19596SOL     OW60719   3.429   0.327   1.525 -0.0794  0.0340  0.4538
19596SOL    HW160720   3.380   0.245   1.525 -1.0628  0.6063  0.5446
19596SOL    HW260721   3.519   0.301   1.504 -0.7657 -0.8249 -1.6625
19597SOL     OW60722   3.031   5.494   1.862 -0.0594 -0.4997 -0.1764
19597SOL    HW160723   2.966   5.523   1.926  0.1600  1.4748 -0.7800
19597SOL    HW260724   2.979   5.474   1.783  0.0750  2.0106 -0.9715
19598SOL     OW60725   2.486   4.874   8.226 -0.2618  0.3039 -0.1956
19598SOL    HW160726   2.550   4.845   8.292  0.1990  2.5760  0.4560
19598SOL    HW260727   2.538   4.886   8.147 -0.1575  0.6751 -0.0760
19599SOL     OW60728   6.301   6.378   4.675  0.0844 -0.6531 -0.0082
19599SOL    HW160729   6.214   6.339   4.690 -0.2823  0.1448 -0.0224
19599SOL    HW260730   6.297   6.409   4.584  1.0975 -2.3957 -0.7152
19600SOL     OW60731   1.494   4.923   0.506 -0.2054 -0.4035  0.4181
19600SOL    HW160732   1.452   4.849   0.463 -0.9265 -0.2208  0.7973
19600SOL    HW260733   1.584   4.921   0.475 -0.1684 -1.5611  0.5798
19601SOL     OW60734   2.364   1.989   2.990  0.4797  0.0281  0.2997
19601SOL    HW160735   2.271   1.994   3.012 -0.3271 -0.0145 -2.7307
19601SOL    HW260736   2.383   2.071   2.944  1.1940 -1.0843 -1.4976
19602SOL     OW60737   1.385   5.239   0.771 -0.1108  0.0669  0.3514
19602SOL    HW160738   1.474   5.204   0.774 -0.7101 -1.5031  0.5839
19602SOL    HW260739   1.328   5.162   0.772 -1.4680  0.9881 -0.9776
19603SOL     OW60740   8.797   4.254   5.097  0.6722 -0.4892 -0.2257
19603SOL    HW160741   8.892   4.262   5.098  0.5409  1.4538 -0.5051
19603SOL    HW260742   8.776   4.212   5.181  1.7098 -0.0355  0.2858
19604SOL     OW60743   0.764   7.897   6.617 -0.1027  0.3164  0.3436
19604SOL    HW160744   0.850   7.927   6.586  0.2843  0.1198  1.2060
19604SOL    HW260745   0.712   7.977   6.623  0.2466  0.5357  0.5194
19605SOL     OW60746   5.912   1.095   3.389 -0.5725 -0.3181  0.2285
19605SOL    HW160747   5.998   1.054   3.395 -1.3906 -2.1924 -0.0599
19605SOL    HW260748   5.850   1.025   3.411 -2.1330  0.4395 -1.4504
19606SOL     OW60749   5.056   0.517   7.467  0.0015  0.3998  0.1566
19606SOL    HW160750   5.080   0.517   7.374 -0.1564 -0.9824  0.0950
19606SOL    HW260751   5.106   0.590   7.504 -0.4872  1.4407 -1.1367
19607SOL     OW60752   3.182   2.534   8.142  0.2718  0.0499  0.1049
19607SOL    HW160753   3.255   2.588   8.170  0.3898 -0.2181  0.3165
19607SOL    HW260754   3.189   2.455   8.195 -0.5321  0.2809  0.5763
19608SOL     OW60755   5.768   2.651   0.340 -0.6940  0.3555  0.6552
19608SOL    HW160756   5.758   2.682   0.430  2.5555 -0.9503  1.6180
19608SOL    HW260757   5.742   2.559   0.343 -0.8945  0.3920  0.1828
19609SOL     OW60758   1.697   8.516   1.509 -0.1960  0.4221  0.1326
19609SOL    HW160759   1.662   8.591   1.557 -0.2421  1.7730 -1.9092
19609SOL    HW260760   1.625   8.487   1.453 -0.2211 -1.2737  0.9674
19610SOL     OW60761   8.359   6.098   8.447 -0.1616 -0.2753 -0.0457
19610SOL    HW160762   8.378   6.188   8.422 -1.3925  0.4304  1.3804
19610SOL    HW260763   8.385   6.093   8.539 -0.1156 -1.3859 -0.1080
19611SOL     OW60764   3.771   0.399   0.070  0.5058  0.1083  0.2204
19611SOL    HW160765   3.815   0.452   0.003  0.1746  0.9374  0.6378
19611SOL    HW260766   3.774   0.310   0.036  0.5491  0.4810 -0.7921
19612SOL     OW60767   1.558   6.983   4.535  0.0299 -0.0587 -0.2923
19612SOL    HW160768   1.546   7.014   4.624  0.5880 -0.5233 -0.0523
19612SOL    HW260769   1.507   6.902   4.531  0.6058 -0.4328 -0.1683
19613SOL     OW60770   2.912   3.926   8.561 -0.1961  0.3488  0.1430
19613SOL    HW160771   2.932   3.846   8.513 -3.5763 -0.6118  0.1006
19613SOL    HW260772   2.968   3.992   8.521 -0.2228 -1.1631 -2.6254
19614SOL     OW60773   8.836   4.879   1.522 -0.6415 -0.3373 -0.4173
19614SOL    HW160774   8.752   4.887   1.566  1.4178  1.2305  3.7071
19614SOL    HW260775   8.885   4.816   1.574  0.8911 -1.0674 -2.5867
19615SOL     OW60776   4.025   0.698   5.750 -0.1571 -0.2698  0.1240
19615SOL    HW160777   4.015   0.754   5.673  0.5919  0.0665  0.2605
19615SOL    HW260778   3.936   0.686   5.783 -0.4112  0.1490 -0.3949
19616SOL     OW60779   8.607   3.530   4.981  0.5067 -0.0715  0.3167
19616SOL    HW160780   8.551   3.608   4.980  1.4072  0.5961  0.3819
19616SOL    HW260781   8.607   3.500   4.890 -0.8589 -0.7587  0.5228
19617SOL     OW60782   6.425   5.988   5.682 -0.1399 -0.1898  0.0494
19617SOL    HW160783   6.440   6.030   5.767  1.5706  0.1096 -0.3654
19617SOL    HW260784   6.444   5.895   5.699  0.0148 -0.1602  0.0394
19618SOL     OW60785   2.690   2.653   7.091 -0.0258 -0.3438 -0.2439
19618SOL    HW160786   2.647   2.680   7.172  1.7359 -1.3237  1.0879
19618SOL    HW260787   2.638   2.694   7.021 -1.3732  0.8272  1.3685
19619SOL     OW60788   1.472   8.783   6.671 -0.8857 -0.3324 -0.2748
19619SOL    HW160789   1.469   8.688   6.660 -1.6184 -0.4570  0.8555
19619SOL    HW260790   1.539   8.812   6.610  0.0542 -1.6870  0.0785
19620SOL     OW60791   3.560   2.756   3.015 -0.0102  0.3075 -0.0170
19620SOL    HW160792   3.481   2.740   2.963 -0.4992  0.5507  0.6473
19620SOL    HW260793   3.546   2.841   3.055  1.4927  1.3472 -1.5228
19621SOL     OW60794   6.081   5.903   4.420 -0.4094  1.0430  0.0566
19621SOL    HW160795   5.989   5.882   4.407 -0.1430  1.3089 -3.2365
19621SOL    HW260796   6.128   5.835   4.371  1.0789  1.7810  0.3902
19622SOL     OW60797   3.234   1.510   0.205  0.2458  0.3668 -0.0718
19622SOL    HW160798   3.200   1.570   0.139 -0.8942  0.4948  0.6030
19622SOL    HW260799   3.162   1.449   0.220 -0.0467  1.1759  2.0569
19623SOL     OW60800   6.115   5.292   5.374 -0.0161 -0.5247 -0.5557
19623SOL    HW160801   6.022   5.311   5.366 -0.3221 -1.6626  0.0887
19623SOL    HW260802   6.121   5.197   5.367  1.0433 -0.5100 -0.1170
19624SOL     OW60803   7.376   1.850   2.033  0.4885 -0.2219 -0.5704
19624SOL    HW160804   7.370   1.757   2.052 -0.2631 -0.2417 -0.8901
19624SOL    HW260805   7.390   1.891   2.119 -0.8722 -0.4874 -0.2113
19625SOL     OW60806   3.650   7.531   0.141  0.2413 -0.1363  0.2532
19625SOL    HW160807   3.631   7.438   0.148 -1.8139  0.2004 -0.2184
19625SOL    HW260808   3.739   7.540   0.175  0.1239 -2.1200  1.2138
19626SOL     OW60809   2.530   7.813   8.823 -0.4807  0.1733 -0.2108
19626SOL    HW160810   2.499   7.879   8.761  0.4767  0.1696 -0.7067
19626SOL    HW260811   2.610   7.778   8.783 -1.2491 -1.6843 -0.2378
19627SOL     OW60812   8.049   8.707   8.579  0.3642  0.1129  0.6462
19627SOL    HW160813   8.117   8.673   8.637 -0.1007 -0.1377  1.0494
19627SOL    HW260814   8.079   8.796   8.557  1.2447 -0.3001  0.1150
19628SOL     OW60815   2.900   3.419   6.722  0.0742 -0.1181 -0.0497
19628SOL    HW160816   2.834   3.365   6.765 -1.0753 -0.0312 -1.5792
19628SOL    HW260817   2.972   3.425   6.784 -1.2302 -0.4967  1.5469
19629SOL     OW60818   3.276   6.664   6.262 -0.2454 -0.1632 -0.2019
19629SOL    HW160819   3.337   6.705   6.324 -1.4426  1.6469 -0.1450
19629SOL    HW260820   3.332   6.633   6.191  0.9608 -0.5752  0.8839
19630SOL     OW60821   1.440   2.781   8.620 -0.1127  0.4378  0.2200
19630SOL    HW160822   1.432   2.751   8.711 -0.1742 -0.5373 -0.0918
19630SOL    HW260823   1.534   2.799   8.609  0.0131 -0.1664  0.2676
19631SOL     OW60824   7.187   0.731   6.084  0.0286 -0.0435  0.2097
19631SOL    HW160825   7.142   0.694   6.161  0.9645  2.2473  1.9626
19631SOL    HW260826   7.149   0.818   6.073  1.9707  0.8122 -0.0674
19632SOL     OW60827   2.352   3.033   1.771  0.0093  0.0060 -0.9603
19632SOL    HW160828   2.439   3.072   1.775 -0.2819  0.5693  0.2544
19632SOL    HW260829   2.292   3.106   1.786 -0.6071 -0.6093 -0.3739
19633SOL     OW60830   2.111   2.420   8.479  0.5699 -0.3097 -0.7252
19633SOL    HW160831   2.191   2.468   8.501  1.0884 -0.9801 -1.1138
19633SOL    HW260832   2.141   2.344   8.429  0.0093 -2.3057  1.7719
19634SOL     OW60833   2.541   2.424   6.710  0.0989 -0.0984 -0.8347
19634SOL    HW160834   2.593   2.466   6.779  0.6274 -0.6423 -0.8895
19634SOL    HW260835   2.593   2.435   6.631 -0.5194  0.5455 -1.1570
19635SOL     OW60836   3.004   4.074   3.662  0.0845  0.8938 -0.0886
19635SOL    HW160837   3.093   4.046   3.641 -0.2422 -0.5242  0.3304
19635SOL    HW260838   2.990   4.151   3.607  0.2258 -1.0342 -3.0713
19636SOL     OW60839   7.660   7.395   4.589 -0.0909  0.1987  0.4366
19636SOL    HW160840   7.621   7.322   4.637 -0.5481 -0.5447 -1.0081
19636SOL    HW260841   7.754   7.384   4.600 -0.1760 -0.3048  0.6846
19637SOL     OW60842   3.642   8.079   5.433 -0.5096 -0.4270 -0.2362
19637SOL    HW160843   3.642   8.138   5.509 -0.6465 -2.3667  1.3270
19637SOL    HW260844   3.561   8.101   5.387 -1.5635 -0.6877  1.3981
19638SOL     OW60845   6.222   0.996   4.404 -0.6718  0.0521 -0.1177
19638SOL    HW160846   6.239   0.975   4.496  0.6892  0.4440 -0.2471
19638SOL    HW260847   6.295   0.956   4.357 -1.1992  0.0999 -1.0022
19639SOL     OW60848   4.186   2.232   7.300 -0.4242 -0.1995 -0.3370
19639SOL    HW160849   4.179   2.198   7.389 -0.5734  0.5839 -0.0424
19639SOL    HW260850   4.263   2.290   7.303 -1.2256  0.8860 -0.3593
19640SOL     OW60851   1.674   8.271   4.590 -0.1237  0.2388 -0.0217
19640SOL    HW160852   1.738   8.251   4.658  0.4874  0.8383 -0.4012
19640SOL    HW260853   1.637   8.355   4.616 -0.9973 -0.2619  0.3644
19641SOL     OW60854   0.711   0.624   7.699  0.3383 -0.3211 -0.4138
19641SOL    HW160855   0.738   0.533   7.712 -0.8454 -1.0569 -2.5137
19641SOL    HW260856   0.622   0.627   7.734  0.6171  0.2116  0.2495
19642SOL     OW60857   6.831   5.977   5.485 -0.3597  0.0987  0.1193
19642SOL    HW160858   6.766   6.027   5.534 -0.8570  0.3342 -0.7606
19642SOL    HW260859   6.784   5.899   5.455  0.1913 -0.5027  0.7857
19643SOL     OW60860   6.606   8.123   1.160 -0.2047  0.0749  0.2290
19643SOL    HW160861   6.653   8.043   1.184 -1.1661 -0.0672  1.7614
19643SOL    HW260862   6.640   8.146   1.073 -0.6738 -2.6048 -0.7621
19644SOL     OW60863   2.264   1.301   5.589 -0.1819 -0.2202 -0.0618
19644SOL    HW160864   2.343   1.272   5.635 -0.3438 -0.0500  0.3276
19644SOL    HW260865   2.269   1.259   5.503  0.8134  0.5333 -0.3945
19645SOL     OW60866   8.343   8.490   6.450 -0.2512  0.2399  0.4187
19645SOL    HW160867   8.391   8.474   6.368 -1.5860 -0.5964 -0.2379
19645SOL    HW260868   8.286   8.564   6.431 -1.2141 -0.5237  0.2923
19646SOL     OW60869   6.189   5.661   2.108 -0.2695  0.1505  0.2793
19646SOL    HW160870   6.177   5.598   2.179  0.5283 -0.3310  0.0131
19646SOL    HW260871   6.183   5.747   2.149  0.6085 -0.1243  1.0114
19647SOL     OW60872   1.590   4.216   3.324 -0.2605 -0.6424  0.0365
19647SOL    HW160873   1.497   4.228   3.341 -0.1497  0.5252 -0.0704
19647SOL    HW260874   1.600   4.123   3.306 -1.3557 -0.8293  0.3345
19648SOL     OW60875   5.565   7.860   3.592 -0.2304 -0.4603 -0.1489
19648SOL    HW160876   5.587   7.880   3.683  0.0925 -2.3228  0.2380
19648SOL    HW260877   5.620   7.918   3.540  0.5405 -0.2590  0.8529
19649SOL     OW60878   5.436   6.617   2.476  0.7697 -0.6513  0.3070
19649SOL    HW160879   5.375   6.647   2.544  0.2124  1.7339 -1.1180
19649SOL    HW260880   5.382   6.566   2.416  0.9473 -1.4902  0.8463
19650SOL     OW60881   3.894   3.808   5.485  0.3379  0.0042 -0.6214
19650SOL    HW160882   3.871   3.830   5.395 -1.3519 -0.4116 -0.3238
19650SOL    HW260883   3.815   3.826   5.535  1.3846  0.6915  0.8868
19651SOL     OW60884   5.584   4.602   0.653  0.0358 -0.4576  0.4446
19651SOL    HW160885   5.639   4.680   0.659  1.2544 -1.2208 -0.4899
19651SOL    HW260886   5.503   4.627   0.699  1.2360  0.5914  2.1109
19652SOL     OW60887   5.778   3.338   1.343 -0.0047  0.0917  0.5501
19652SOL    HW160888   5.693   3.300   1.365  0.1456 -1.4863 -1.3513
19652SOL    HW260889   5.758   3.405   1.278  0.2622 -1.1211 -0.8280
19653SOL     OW60890   7.083   6.139   0.765  0.2546 -0.3362 -0.0641
19653SOL    HW160891   7.083   6.188   0.847 -2.0668  1.2692 -0.9217
19653SOL    HW260892   7.018   6.070   0.778  0.2127 -0.3599 -0.3864
19654SOL     OW60893   2.280   3.133   4.407  0.3889 -0.3701 -0.0681
19654SOL    HW160894   2.328   3.204   4.452  0.3647 -0.5632  0.2623
19654SOL    HW260895   2.346   3.066   4.392  0.7308  0.2521 -1.5738
19655SOL     OW60896   0.122   8.854   5.437  0.4909 -0.5365  0.4527
19655SOL    HW160897   0.070   8.775   5.426  1.8266 -1.4352  0.3091
19655SOL    HW260898   0.213   8.823   5.440  0.9794  0.8503  1.7423
19656SOL     OW60899   8.061   5.166   8.638  0.3594  0.0314  0.1438
19656SOL    HW160900   7.969   5.143   8.646  0.1781  0.5818 -0.2652
19656SOL    HW260901   8.099   5.097   8.585  0.2537 -0.3697  0.5888
19657SOL     OW60902   6.551   8.870   0.731  0.4810 -0.1901 -0.0701
19657SOL    HW160903   6.459   8.892   0.715  0.1317 -0.2802  1.6219
19657SOL    HW260904   6.592   8.954   0.751  0.5208 -0.2756  0.2160
19658SOL     OW60905   6.901   6.448   7.623  0.1118 -0.6560  0.0980
19658SOL    HW160906   6.855   6.417   7.544 -0.3180 -0.2663  0.1861
19658SOL    HW260907   6.834   6.445   7.691  0.3677 -0.5884  0.3497
19659SOL     OW60908   0.453   2.021   4.650 -0.1008 -0.7486  0.3140
19659SOL    HW160909   0.495   1.982   4.573  0.7053 -0.4825  0.6128
19659SOL    HW260910   0.466   1.958   4.720  4.2747  1.3287  1.7377
19660SOL     OW60911   8.801   6.303   4.215  0.0068 -0.4134 -0.8862
19660SOL    HW160912   8.755   6.271   4.137 -1.3541 -2.2397  0.5607
19660SOL    HW260913   8.736   6.296   4.285  0.7713  2.3939  0.2324
19661SOL     OW60914   8.003   2.006   4.185 -0.2136  0.2092  0.2969
19661SOL    HW160915   8.059   2.084   4.181  0.0357 -0.0194 -1.3238
19661SOL    HW260916   8.044   1.944   4.123 -1.8808 -0.2143 -0.4240
19662SOL     OW60917   4.961   2.503   4.674 -0.7980  0.1525 -0.1260
19662SOL    HW160918   4.868   2.522   4.679 -1.2308 -1.8481  0.0401
19662SOL    HW260919   4.993   2.515   4.764 -0.7647  1.3160 -0.2765
19663SOL     OW60920   0.587   1.934   5.885 -0.2924 -0.0343  0.2046
19663SOL    HW160921   0.502   1.952   5.846  0.1929  0.6916 -0.5489
19663SOL    HW260922   0.570   1.868   5.951 -1.2450 -0.8469 -0.8173
19664SOL     OW60923   7.980   3.754   3.594  0.1952 -0.3481 -0.0137
19664SOL    HW160924   7.989   3.725   3.503 -0.0335 -1.4734  0.3080
19664SOL    HW260925   7.941   3.680   3.639 -2.7663  1.2902  0.3762
19665SOL     OW60926   4.869   4.424   1.572 -0.0200  0.1644 -0.4365
19665SOL    HW160927   4.898   4.428   1.481 -2.0529 -0.4409 -1.1721
19665SOL    HW260928   4.827   4.508   1.588  0.0177  0.1346 -0.1659
19666SOL     OW60929   6.459   7.484   4.535  0.8253  0.6312 -0.3200
19666SOL    HW160930   6.539   7.510   4.581  0.0858  0.9819  0.8157
19666SOL    HW260931   6.452   7.390   4.550  1.4346  0.4468 -1.1123
19667SOL     OW60932   6.398   0.877   4.924  0.4798  0.1394 -0.3719
19667SOL    HW160933   6.367   0.788   4.907  0.2613  0.3285 -1.0065
19667SOL    HW260934   6.491   0.867   4.940  0.2237 -0.3658  0.9525
19668SOL     OW60935   7.637   1.796   5.829 -0.3741  0.1779 -0.0260
19668SOL    HW160936   7.729   1.794   5.803 -0.0880 -1.9140  0.9178
19668SOL    HW260937   7.589   1.798   5.747  0.4401  2.8137 -0.5538
19669SOL     OW60938   1.187   6.209   5.695 -0.7983 -0.1889 -0.2242
19669SOL    HW160939   1.152   6.285   5.742  0.8468  0.7065 -0.3406
19669SOL    HW260940   1.206   6.243   5.607  1.1846 -0.3222  0.1024
19670SOL     OW60941   8.796   4.649   8.583  0.1866 -0.2358  0.3865
19670SOL    HW160942   8.869   4.588   8.576 -1.3145 -1.9539 -1.6950
19670SOL    HW260943   8.822   4.724   8.528 -0.7723 -2.2252 -3.0400
19671SOL     OW60944   6.864   0.312   7.416  0.0288 -0.2069  0.0469
19671SOL    HW160945   6.901   0.327   7.503  0.2694  0.1641 -0.1126
19671SOL    HW260946   6.897   0.226   7.390  1.5836  0.5080 -0.4808
19672SOL     OW60947   1.613   1.295   0.242 -0.6222 -0.2186  0.4498
19672SOL    HW160948   1.538   1.240   0.260 -1.0062 -0.3354 -1.2981
19672SOL    HW260949   1.687   1.234   0.233 -0.9290 -0.4199 -0.8710
19673SOL     OW60950   1.973   7.926   4.330  0.8008 -0.4626  0.2225
19673SOL    HW160951   1.947   8.016   4.308 -3.1336 -0.8285  2.5212
19673SOL    HW260952   1.957   7.876   4.250  2.2232  0.6349 -0.8129
19674SOL     OW60953   6.072   8.062   6.589  0.0056  0.8485 -0.0425
19674SOL    HW160954   6.039   7.990   6.536 -0.6028  1.4597 -0.5195
19674SOL    HW260955   6.071   8.137   6.529  0.7433  1.2261  0.4074
19675SOL     OW60956   2.174   7.670   0.872  0.3205 -0.1892  0.1993
19675SOL    HW160957   2.081   7.660   0.891 -0.6776  1.6086 -3.1113
19675SOL    HW260958   2.187   7.625   0.789  1.8001  1.7873 -0.7052
19676SOL     OW60959   0.558   5.584   6.603 -0.2421 -0.2117  0.2536
19676SOL    HW160960   0.612   5.653   6.566  0.1191 -0.6677 -0.0738
19676SOL    HW260961   0.564   5.511   6.541  0.8749 -1.2133  1.4723
19677SOL     OW60962   5.562   5.341   1.005 -0.2007 -0.5744  0.3265
19677SOL    HW160963   5.599   5.337   0.916 -1.7652 -0.1336 -0.3846
19677SOL    HW260964   5.632   5.379   1.058 -0.1074  1.7136 -1.2632
19678SOL     OW60965   2.292   3.558   0.891  0.1336 -0.2494 -0.5348
19678SOL    HW160966   2.218   3.515   0.848  1.6665 -2.0600 -1.5061
19678SOL    HW260967   2.343   3.594   0.819  1.3591 -1.0096 -0.0736
19679SOL     OW60968   3.728   7.388   3.910 -0.3060  0.4861 -0.1117
19679SOL    HW160969   3.771   7.320   3.961  2.2908  0.9022 -1.5765
19679SOL    HW260970   3.679   7.440   3.974 -0.5392 -1.3984  1.3138
19680SOL     OW60971   6.616   3.056   6.800  0.7532 -0.5206 -0.6635
19680SOL    HW160972   6.667   3.034   6.722  1.8995 -2.4742  0.5442
19680SOL    HW260973   6.660   3.132   6.837  0.8106 -0.2031 -1.3707
19681SOL     OW60974   6.710   0.973   3.804 -0.0216  0.1359 -0.3066
19681SOL    HW160975   6.641   0.907   3.810  1.0446 -0.9772  0.1694
19681SOL    HW260976   6.736   0.989   3.894  2.0706 -1.3987 -0.5522
19682SOL     OW60977   4.549   2.443   1.771  0.1448  0.3066 -0.2534
19682SOL    HW160978   4.539   2.349   1.789 -1.1207  0.6619  1.1494
19682SOL    HW260979   4.468   2.482   1.803  0.6751  1.9022 -0.7566
19683SOL     OW60980   3.135   4.149   0.511  0.2500 -0.2716  0.5827
19683SOL    HW160981   3.139   4.068   0.461  1.9271 -1.2288  2.1116
19683SOL    HW260982   3.106   4.122   0.598 -1.9075  1.2309  0.3901
19684SOL     OW60983   3.676   1.768   1.283  0.4385 -0.4396 -0.3064
19684SOL    HW160984   3.616   1.841   1.293 -0.3125 -1.2150  1.2434
19684SOL    HW260985   3.755   1.795   1.331 -1.1966 -2.0029  3.7071
19685SOL     OW60986   0.113   0.566   3.609 -0.4082  0.4253 -1.0466
19685SOL    HW160987   0.022   0.571   3.637 -0.6228 -2.6496 -0.8126
19685SOL    HW260988   0.164   0.586   3.687 -0.9798 -1.9127  0.0219
19686SOL     OW60989   5.079   2.218   8.603  0.7914  0.3015  0.1285
19686SOL    HW160990   4.985   2.231   8.616  0.7590  1.8026 -1.2152
19686SOL    HW260991   5.120   2.292   8.648  1.1315  1.0632 -1.3491
19687SOL     OW60992   7.592   0.278   4.463 -0.7666  0.1040 -0.2215
19687SOL    HW160993   7.546   0.239   4.388 -0.8356 -1.3669  0.5489
19687SOL    HW260994   7.683   0.283   4.435 -0.5566 -1.6868  0.0420
19688SOL     OW60995   6.910   6.360   6.893  0.1487 -0.1755 -0.0357
19688SOL    HW160996   6.993   6.387   6.932 -1.0596  0.8690  1.9586
19688SOL    HW260997   6.890   6.429   6.830  1.3680 -1.0908 -1.4914
19689SOL     OW60998   3.536   3.443   2.786 -0.1995  0.5949  0.7157
19689SOL    HW160999   3.512   3.525   2.828  1.0602  1.0372  0.6210
19689SOL    HW261000   3.630   3.451   2.770  0.4225 -1.7367  2.6473
19690SOL     OW61001   4.722   8.458   4.598 -0.2615  0.2441  0.1578
19690SOL    HW161002   4.783   8.401   4.552 -1.6416 -0.3050 -1.0577
19690SOL    HW261003   4.726   8.428   4.689 -0.0491 -0.9630 -0.2311
19691SOL     OW61004   4.816   8.633   2.739  0.8854  0.3756  0.2081
19691SOL    HW161005   4.820   8.728   2.750 -0.8125  0.6446 -1.1518
19691SOL    HW261006   4.733   8.607   2.778 -0.2035 -0.0544 -2.2101
19692SOL     OW61007   3.425   1.190   0.589 -0.2003  0.1552 -0.4339
19692SOL    HW161008   3.441   1.254   0.659  1.4008 -0.5685 -0.1141
19692SOL    HW261009   3.334   1.163   0.603 -0.2561  0.8349  0.6809
19693SOL     OW61010   7.486   1.345   7.019 -0.2428 -0.1014  0.3400
19693SOL    HW161011   7.534   1.264   7.035 -0.1854 -0.1517 -0.0743
19693SOL    HW261012   7.538   1.413   7.062  0.8469  0.0203 -1.1098
19694SOL     OW61013   7.883   6.091   7.914 -0.4528 -0.1748 -0.1429
19694SOL    HW161014   7.870   6.184   7.933 -1.8572 -0.2195 -0.7384
19694SOL    HW261015   7.814   6.047   7.963 -1.4249 -0.6477 -1.8421
19695SOL     OW61016   5.070   4.555   8.042  0.2328 -0.3839 -0.0614
19695SOL    HW161017   5.139   4.533   8.104  1.5447  0.5177 -1.1423
19695SOL    HW261018   5.097   4.639   8.004 -0.9726 -0.4770 -1.2032
19696SOL     OW61019   1.519   0.764   1.346  0.3440 -0.5899  0.5101
19696SOL    HW161020   1.459   0.754   1.420  0.2099 -0.3054  0.4422
19696SOL    HW261021   1.470   0.815   1.282  0.6821 -0.2987  0.4805
19697SOL     OW61022   2.287   8.289   0.680 -0.6738  0.2362 -0.5281
19697SOL    HW161023   2.242   8.253   0.756  0.5195 -0.2631 -0.0372
19697SOL    HW261024   2.240   8.370   0.660 -2.5633 -0.8675 -0.8045
19698SOL     OW61025   2.333   2.414   8.180 -0.1429 -0.0257 -0.5515
19698SOL    HW161026   2.424   2.438   8.200 -0.8709  1.0343  1.7594
19698SOL    HW261027   2.315   2.339   8.236 -1.0168  0.4478 -0.1883
19699SOL     OW61028   2.101   2.741   2.396 -0.0444  0.3170 -0.1167
19699SOL    HW161029   2.021   2.695   2.371 -0.3785 -0.2064  1.7580
19699SOL    HW261030   2.154   2.674   2.440  1.3370  0.7249 -1.0870
19700SOL     OW61031   7.612   5.705   1.154  0.3995 -0.0327 -0.8186
19700SOL    HW161032   7.620   5.752   1.237 -0.7313  0.6685 -1.0840
19700SOL    HW261033   7.629   5.614   1.177 -1.2283 -0.0679  0.4767
19701SOL     OW61034   7.923   1.220   0.624  0.0623 -0.1597 -0.5993
19701SOL    HW161035   8.003   1.272   0.622 -0.4053  0.6389  0.5595
19701SOL    HW261036   7.890   1.228   0.713 -1.0072 -0.9426 -0.8944
19702SOL     OW61037   0.535   0.997   1.273 -0.2213  0.3787 -0.5220
19702SOL    HW161038   0.507   1.013   1.183 -1.7003 -0.1204 -0.1773
19702SOL    HW261039   0.532   0.902   1.283  0.0408  0.4224  0.0212
19703SOL     OW61040   2.930   4.294   3.893 -0.9431 -0.1240 -0.3168
19703SOL    HW161041   2.885   4.349   3.957 -0.5272  0.8511 -0.8388
19703SOL    HW261042   2.861   4.264   3.834 -1.4766 -1.7752  1.0776
19704SOL     OW61043   8.304   7.506   5.345 -0.1000  1.1469  0.7363
19704SOL    HW161044   8.284   7.585   5.294 -1.0489  0.8965  0.7021
19704SOL    HW261045   8.223   7.488   5.393 -0.2802 -0.4557 -0.1214
19705SOL     OW61046   5.894   2.756   5.019  0.8776 -0.0201 -0.4211
19705SOL    HW161047   5.982   2.734   4.987  0.0675  0.2683 -3.0634
19705SOL    HW261048   5.892   2.852   5.018  0.6332 -0.0194 -0.0532
19706SOL     OW61049   4.044   7.665   8.516 -0.2636 -0.2539 -0.5946
19706SOL    HW161050   4.044   7.605   8.591  1.1739  0.4556  0.0078
19706SOL    HW261051   4.057   7.752   8.555 -0.8391  0.2874 -1.5743
19707SOL     OW61052   8.035   5.753   4.852 -0.4854  0.0739 -0.0693
19707SOL    HW161053   8.084   5.786   4.927 -1.1238 -2.9315  1.8557
19707SOL    HW261054   8.093   5.688   4.812  0.2050  2.2534 -2.8603
19708SOL     OW61055   2.446   5.392   6.841  0.1545 -0.2762 -0.3542
19708SOL    HW161056   2.441   5.349   6.756 -0.3237 -1.1321  0.0890
19708SOL    HW261057   2.359   5.380   6.879  0.6425 -0.7797  0.6548
19709SOL     OW61058   0.704   8.061   2.919 -0.4520  0.3440 -0.2895
19709SOL    HW161059   0.742   7.994   2.863 -0.1742  0.9629 -0.8435
19709SOL    HW261060   0.740   8.144   2.887 -0.9552  0.7830  0.2484
19710SOL     OW61061   3.400   0.696   7.372 -0.0459  0.2903  0.0944
19710SOL    HW161062   3.331   0.753   7.406 -0.4230  0.5126 -0.9739
19710SOL    HW261063   3.476   0.754   7.363  0.3003  0.0425  1.2837
19711SOL     OW61064   2.717   0.652   8.185 -0.3546 -0.3735 -0.2755
19711SOL    HW161065   2.648   0.681   8.125  0.4256  1.8560 -0.1991
19711SOL    HW261066   2.794   0.641   8.130 -0.4867 -1.8971 -0.2029
19712SOL     OW61067   6.341   8.792   4.980  0.1847 -0.5213  0.3064
19712SOL    HW161068   6.436   8.801   4.994  0.5002 -1.6182 -0.9128
19712SOL    HW261069   6.313   8.878   4.951  1.0568 -0.5050 -0.5502
19713SOL     OW61070   3.890   7.555   7.892  0.3120 -0.2392 -0.5600
19713SOL    HW161071   3.877   7.629   7.952  2.8654 -0.7427  0.7249
19713SOL    HW261072   3.828   7.488   7.923  0.4378  0.1111  0.4810
19714SOL     OW61073   3.480   2.686   7.470  0.1106  0.0934  0.2011
19714SOL    HW161074   3.515   2.775   7.464 -1.9439  1.0253  1.0189
19714SOL    HW261075   3.437   2.683   7.556 -3.6469 -0.1652 -1.5019
19715SOL     OW61076   0.596   4.871   6.078 -0.0206 -0.5578  0.5788
19715SOL    HW161077   0.638   4.900   6.159 -0.0982 -0.4049  0.5644
19715SOL    HW261078   0.561   4.784   6.099 -0.0620 -0.5078  0.7159
19716SOL     OW61079   1.800   6.829   0.260 -0.0558  0.0169  0.0915
19716SOL    HW161080   1.734   6.780   0.212 -1.6099  1.9083  0.1685
19716SOL    HW261081   1.750   6.880   0.324  1.7429 -0.5228  2.0279
19717SOL     OW61082   3.352   4.949   5.397  0.9544 -0.5279  0.1103
19717SOL    HW161083   3.423   5.011   5.411  0.1804  0.3966  0.0862
19717SOL    HW261084   3.321   4.928   5.485 -0.3868  1.0828  0.0848
19718SOL     OW61085   5.738   8.702   4.019 -0.0547  0.1240 -0.3469
19718SOL    HW161086   5.763   8.794   4.018 -1.6959  0.7881  3.2055
19718SOL    HW261087   5.643   8.703   4.028 -0.0526 -1.8722  0.4675
19719SOL     OW61088   5.797   5.683   1.319  0.4522  0.6034 -0.2625
19719SOL    HW161089   5.779   5.680   1.225  0.4936  1.0714 -0.2900
19719SOL    HW261090   5.747   5.610   1.356 -0.1966  0.8867 -0.5504
19720SOL     OW61091   4.509   5.503   1.194  0.1370 -0.0686  0.6066
19720SOL    HW161092   4.500   5.473   1.104 -0.0398 -0.0062  0.6033
19720SOL    HW261093   4.434   5.559   1.208  0.7249  0.7731  0.4604
19721SOL     OW61094   4.736   4.374   5.217  0.2052 -0.5510 -0.1308
19721SOL    HW161095   4.645   4.367   5.188  0.2930 -1.3879 -0.2322
19721SOL    HW261096   4.740   4.323   5.298  0.4510 -0.0248  0.1907
19722SOL     OW61097   3.955   0.133   4.303 -0.1969 -0.0177 -0.0111
19722SOL    HW161098   3.860   0.124   4.295 -0.1597  0.1649 -0.8277
19722SOL    HW261099   3.968   0.220   4.341 -0.3371  0.5157 -1.1433
19723SOL     OW61100   7.251   5.512   6.293 -0.9106 -0.5823 -0.0841
19723SOL    HW161101   7.281   5.512   6.384 -1.3503 -0.0257  0.0655
19723SOL    HW261102   7.163   5.473   6.297 -0.8984 -0.6295 -0.2834
19724SOL     OW61103   7.428   0.989   7.483  0.0585 -0.7527 -0.4310
19724SOL    HW161104   7.365   1.002   7.412  0.9813 -2.8750 -1.7669
19724SOL    HW261105   7.502   1.046   7.460 -0.5446  0.2609  0.0812
19725SOL     OW61106   4.731   6.164   4.959 -0.1549  0.1791 -0.2043
19725SOL    HW161107   4.653   6.140   5.008  0.8476 -1.5341  0.6560
19725SOL    HW261108   4.785   6.213   5.021 -0.7125  1.8331 -0.9522
19726SOL     OW61109   5.830   5.926   0.965  0.1566  0.9022  0.0330
19726SOL    HW161110   5.793   5.985   1.030  1.0609 -0.1942  1.6169
19726SOL    HW261111   5.916   5.964   0.945  0.8532  0.0534  1.2536
19727SOL     OW61112   2.539   1.599   8.774 -0.2695 -0.2064 -0.1437
19727SOL    HW161113   2.483   1.586   8.851 -0.6315  1.3005 -0.1151
19727SOL    HW261114   2.501   1.676   8.730 -1.5831 -2.4125 -3.2144
19728SOL     OW61115   8.042   8.327   3.865 -0.4228 -0.2701 -0.3032
19728SOL    HW161116   8.114   8.288   3.914 -0.3529 -0.8767 -0.8729
19728SOL    HW261117   8.024   8.410   3.910  0.3062 -0.3374  0.1278
19729SOL     OW61118   0.028   3.743   8.835  0.9048 -0.0683  0.2626
19729SOL    HW161119  -0.027   3.676   8.796 -0.3248  0.2045  1.4531
19729SOL    HW261120   0.020   3.819   8.777  1.6956 -0.6768 -0.6724
19730SOL     OW61121   8.674   0.527   0.198  0.0032  0.6700 -0.2221
19730SOL    HW161122   8.766   0.551   0.184  0.4405  0.1332  1.4317
19730SOL    HW261123   8.629   0.610   0.210  0.6846  0.9016  0.9969
19731SOL     OW61124   6.584   3.233   7.933 -0.3990 -0.4941 -0.2296
19731SOL    HW161125   6.505   3.283   7.954 -0.3535 -0.7832  0.6786
19731SOL    HW261126   6.552   3.145   7.911 -0.3619 -0.5138 -0.2058
19732SOL     OW61127   7.637   4.466   5.172 -0.1652  0.3981 -0.2825
19732SOL    HW161128   7.609   4.486   5.261  0.1646  2.4836 -0.5934
19732SOL    HW261129   7.590   4.387   5.148 -1.3299  0.6035  1.2445
19733SOL     OW61130   1.807   8.104   6.204  0.1152  0.3501  0.2147
19733SOL    HW161131   1.723   8.060   6.192  0.2629  0.4308 -1.3193
19733SOL    HW261132   1.840   8.117   6.115  1.7706  0.2912  0.7938
19734SOL     OW61133   7.945   3.272   0.672 -0.4494 -0.1208  0.2717
19734SOL    HW161134   7.960   3.200   0.733  2.0743 -1.9731 -2.2864
19734SOL    HW261135   7.894   3.233   0.601 -0.3413  1.0125 -0.4606
19735SOL     OW61136   2.035   5.422   8.512 -0.5088  0.2015  0.3062
19735SOL    HW161137   2.055   5.515   8.506 -3.3879  1.2776  3.8025
19735SOL    HW261138   2.104   5.387   8.569  1.3016 -0.2122 -2.0105
19736SOL     OW61139   1.697   8.803   4.602 -0.0009 -0.1562 -0.1552
19736SOL    HW161140   1.704   8.833   4.511 -1.2296 -0.6107 -0.4254
19736SOL    HW261141   1.787   8.797   4.632  0.3624  1.8640 -0.7197
19737SOL     OW61142   4.289   4.182   7.187 -0.2364 -0.2374 -0.0183
19737SOL    HW161143   4.369   4.227   7.213 -0.3223 -0.6151  0.9280
19737SOL    HW261144   4.219   4.226   7.235 -0.3394 -1.2464  0.7937
19738SOL     OW61145   5.406   2.494   0.423 -0.4337  0.0036 -0.1663
19738SOL    HW161146   5.479   2.461   0.475  0.3129  1.3283 -0.3521
19738SOL    HW261147   5.391   2.427   0.356  2.2708  0.8197 -1.7106
19739SOL     OW61148   2.789   8.172   1.378  0.5939 -0.5052  0.1420
19739SOL    HW161149   2.788   8.087   1.423 -1.6819 -0.5430  0.1612
19739SOL    HW261150   2.712   8.218   1.413  1.8515  1.6516  0.2374
19740SOL     OW61151   0.953   4.525   3.567  0.1716 -0.1244  0.4985
19740SOL    HW161152   0.936   4.558   3.655  0.2948 -0.0252  0.4858
19740SOL    HW261153   0.874   4.548   3.518  0.5347  0.7894  0.3156
19741SOL     OW61154   5.004   5.584   1.685  0.0142  0.5055 -0.0587
19741SOL    HW161155   4.952   5.660   1.711  1.0531  0.9678  0.7205
19741SOL    HW261156   5.040   5.550   1.767  0.9472  0.2112 -0.5769
19742SOL     OW61157   7.665   2.509   6.362  0.5805  0.1542 -0.6772
19742SOL    HW161158   7.747   2.469   6.389  0.4040  0.5457  0.5048
19742SOL    HW261159   7.628   2.447   6.298  1.4910 -0.3253 -0.7518
19743SOL     OW61160   6.203   0.836   6.257 -0.4150 -0.3547 -0.1787
19743SOL    HW161161   6.137   0.905   6.249  0.5517  0.6132  0.0923
19743SOL    HW261162   6.268   0.871   6.317  2.5465  0.5170 -3.5446
19744SOL     OW61163   0.338   6.120   7.646  0.4864 -0.4352  0.4349
19744SOL    HW161164   0.428   6.153   7.639  0.5499 -0.4704  1.0819
19744SOL    HW261165   0.343   6.031   7.611  0.0927  0.5614 -2.4181
19745SOL     OW61166   1.691   8.847   3.288 -0.1022  0.0200 -0.1399
19745SOL    HW161167   1.684   8.766   3.236  0.1746  0.0462 -0.2195
19745SOL    HW261168   1.626   8.836   3.358  1.9082 -1.5837  1.6054
19746SOL     OW61169   4.835   4.041   4.749 -0.3155 -0.0038 -0.2074
19746SOL    HW161170   4.772   3.973   4.727 -0.4016  0.9134 -3.3001
19746SOL    HW261171   4.906   4.029   4.686 -0.7778  3.2543 -1.5216
19747SOL     OW61172   3.665   4.530   7.412  0.0287 -0.7163  0.2081
19747SOL    HW161173   3.673   4.477   7.491 -0.2112  1.0864  1.4878
19747SOL    HW261174   3.571   4.538   7.397  0.0676 -1.9397 -0.9388
19748SOL     OW61175   3.670   2.210   5.461 -0.1121  0.1593  0.8093
19748SOL    HW161176   3.597   2.270   5.473 -0.3031  0.0866  0.0747
19748SOL    HW261177   3.629   2.124   5.450  0.0372  0.2280 -0.3389
19749SOL     OW61178   1.341   2.280   3.922 -0.7548 -0.3872  0.3447
19749SOL    HW161179   1.303   2.355   3.967 -0.3519 -0.9801  1.7040
19749SOL    HW261180   1.291   2.273   3.841 -1.6034  0.6027  0.7665
19750SOL     OW61181   1.048   1.708   2.986 -0.1068 -0.4570 -0.7372
19750SOL    HW161182   0.990   1.671   3.054  0.3494 -0.1081 -0.1503
19750SOL    HW261183   1.134   1.711   3.027 -0.1464  1.3962 -0.6967
19751SOL     OW61184   8.473   0.982   6.937  0.4984  0.1566  0.3543
19751SOL    HW161185   8.524   0.977   6.856  2.7788  0.8451  1.6576
19751SOL    HW261186   8.535   0.958   7.006 -1.6981 -1.6878  1.8447
19752SOL     OW61187   0.282   8.456   6.942 -0.6170  0.1806  0.4222
19752SOL    HW161188   0.237   8.513   6.879 -0.2528  0.9590  0.8422
19752SOL    HW261189   0.225   8.457   7.019  0.0478  1.1165  0.9322
19753SOL     OW61190   1.422   7.714   8.497 -0.6160  0.4264 -0.1591
19753SOL    HW161191   1.493   7.746   8.552  0.9849 -1.0529 -1.2689
19753SOL    HW261192   1.426   7.618   8.505 -2.3427  0.2914 -0.4455
19754SOL     OW61193   0.741   1.415   6.243 -0.0415 -0.3808 -0.2456
19754SOL    HW161194   0.753   1.334   6.294 -0.3544  0.1025  0.6073
19754SOL    HW261195   0.656   1.448   6.269  1.1822  1.6450  1.4847
19755SOL     OW61196   6.984   1.404   1.554 -0.0974 -0.5120 -0.0924
19755SOL    HW161197   6.913   1.367   1.502  0.6203 -0.2713 -1.3002
19755SOL    HW261198   6.945   1.480   1.596 -1.1742 -1.7332  1.2028
19756SOL     OW61199   4.982   2.337   0.490  0.3537 -0.0106 -0.1707
19756SOL    HW161200   4.912   2.279   0.460 -0.0753 -0.5365  1.7064
19756SOL    HW261201   5.045   2.280   0.534  0.6488  0.7587  0.4385
19757SOL     OW61202   6.313   3.732   3.680  0.0997 -0.2159  0.7328
19757SOL    HW161203   6.283   3.676   3.608 -2.2469  1.1760  0.5173
19757SOL    HW261204   6.252   3.713   3.752 -0.1973  1.4033  0.9360
19758SOL     OW61205   7.999   5.046   5.237 -0.0230 -0.3289 -0.0615
19758SOL    HW161206   8.011   5.133   5.200 -1.2702  0.8075  2.0096
19758SOL    HW261207   8.089   5.014   5.252  0.4473  0.5329 -0.9574
19759SOL     OW61208   8.496   4.559   2.133  0.1323 -0.0106 -0.2455
19759SOL    HW161209   8.425   4.531   2.191  1.5861 -0.3033  1.4875
19759SOL    HW261210   8.514   4.649   2.160 -0.4129  0.5312 -1.5891
19760SOL     OW61211   3.115   2.785   2.456 -0.4319  0.2023 -0.1923
19760SOL    HW161212   3.185   2.847   2.477 -0.8892  1.2669 -1.6105
19760SOL    HW261213   3.148   2.736   2.381 -1.4702  1.2551 -1.3809
19761SOL     OW61214   1.573   7.358   3.015 -0.5278 -0.6138 -0.1738
19761SOL    HW161215   1.523   7.327   3.091 -1.4523  0.3303 -0.3808
19761SOL    HW261216   1.514   7.418   2.970  0.8618  0.7129 -0.3150
19762SOL     OW61217   0.394   2.357   2.757 -0.0062  0.1140  0.0836
19762SOL    HW161218   0.348   2.279   2.789  0.4209 -0.1694  0.0064
19762SOL    HW261219   0.485   2.331   2.751  0.2137  0.7676  0.5041
19763SOL     OW61220   0.251   0.743   8.237 -0.0754  0.0075 -0.1600
19763SOL    HW161221   0.201   0.741   8.319 -0.5972 -0.7086 -0.4919
19763SOL    HW261222   0.189   0.773   8.171 -0.7001 -2.7660 -0.9663
19764SOL     OW61223   8.054   2.979   0.080  0.5751 -0.8778  0.6850
19764SOL    HW161224   8.005   3.028   0.015  0.1944 -0.8862  0.9672
19764SOL    HW261225   8.089   2.904   0.032 -1.0829 -1.7882  0.8377
19765SOL     OW61226   4.375   5.000   6.508  0.2646 -0.2098  0.4032
19765SOL    HW161227   4.325   4.920   6.523 -0.1002  0.1549  1.2034
19765SOL    HW261228   4.439   4.976   6.442 -0.1663 -1.0262  0.2689
19766SOL     OW61229   2.433   5.138   0.727 -0.5764 -0.4765  0.5046
19766SOL    HW161230   2.373   5.210   0.710 -1.9091 -1.9972 -1.7909
19766SOL    HW261231   2.483   5.166   0.803 -0.3976  3.2272 -0.7754
19767SOL     OW61232   0.425   5.875   3.802 -0.0802  0.2077 -0.0467
19767SOL    HW161233   0.346   5.879   3.856 -1.4143 -2.3372 -1.6166
19767SOL    HW261234   0.412   5.944   3.736 -0.1957  0.8711  0.6551
19768SOL     OW61235   7.971   5.637   6.863  0.0157  0.6765 -0.1926
19768SOL    HW161236   7.906   5.640   6.793 -1.4730 -0.2945  1.0479
19768SOL    HW261237   7.989   5.728   6.884 -1.2546  0.9787 -0.3349
19769SOL     OW61238   8.725   2.479   4.993 -0.0480  0.3188  0.1380
19769SOL    HW161239   8.665   2.405   5.006  0.3342 -0.5053 -2.3726
19769SOL    HW261240   8.668   2.557   4.998 -1.0480 -0.3447 -0.4827
19770SOL     OW61241   5.321   8.620   6.806  0.7871  0.4418  0.1559
19770SOL    HW161242   5.264   8.596   6.733  2.3649 -0.6363 -0.7591
19770SOL    HW261243   5.261   8.629   6.881 -0.5033 -1.3592 -0.5981
19771SOL     OW61244   4.137   0.358   6.944 -0.2105 -0.1779 -0.4264
19771SOL    HW161245   4.177   0.361   7.031  0.2233 -0.2146 -0.6208
19771SOL    HW261246   4.043   0.347   6.961 -0.4073  1.8311  0.0903
19772SOL     OW61247   4.040   2.875   6.050 -0.3771  0.2292 -0.7038
19772SOL    HW161248   3.969   2.829   6.095  2.0419 -1.8782  1.3142
19772SOL    HW261249   4.067   2.942   6.113 -0.8291  1.3293 -1.6563
19773SOL     OW61250   7.073   2.264   4.325 -0.4717 -0.5139 -0.6460
19773SOL    HW161251   7.132   2.242   4.253 -1.7007 -2.3408 -1.1644
19773SOL    HW261252   7.004   2.198   4.321 -1.7152  0.5988  0.9159
19774SOL     OW61253   6.211   7.220   8.868 -0.2818  0.3623  0.0089
19774SOL    HW161254   6.236   7.243   8.958 -0.3790  0.6462 -0.0348
19774SOL    HW261255   6.154   7.292   8.841  1.4817  1.4392 -1.0607
19775SOL     OW61256   0.769   1.511   4.794 -0.2392 -0.1786  0.1961
19775SOL    HW161257   0.744   1.557   4.874  0.5987  1.7835 -0.6161
19775SOL    HW261258   0.865   1.516   4.792 -0.1476 -1.6250 -0.1462
19776SOL     OW61259   5.353   0.032   4.832  0.3620  0.2598 -0.3148
19776SOL    HW161260   5.260   0.055   4.827  0.7239  1.9989  0.0055
19776SOL    HW261261   5.382   0.071   4.915  1.2684 -0.7246 -0.1483
19777SOL     OW61262   3.343   4.393   2.622  0.1395 -0.3040 -0.1633
19777SOL    HW161263   3.399   4.358   2.552 -0.3719 -0.0735 -0.6923
19777SOL    HW261264   3.383   4.360   2.703 -0.1605 -1.9019 -0.6281
19778SOL     OW61265   3.498   6.290   5.608 -0.4472  1.1548  0.0046
19778SOL    HW161266   3.583   6.274   5.649  0.8268 -0.0421 -2.8573
19778SOL    HW261267   3.442   6.218   5.641 -0.1321  1.4315  1.2044
19779SOL     OW61268   6.105   2.366   6.416  0.1827  0.0303  0.2216
19779SOL    HW161269   6.157   2.333   6.342 -0.6834 -1.2150  0.1291
19779SOL    HW261270   6.139   2.453   6.432  0.4808  0.2951 -1.5808
19780SOL     OW61271   7.868   0.108   1.301 -0.0765 -0.2616  0.4133
19780SOL    HW161272   7.959   0.093   1.324 -0.0824 -1.5616 -0.2644
19780SOL    HW261273   7.828   0.142   1.380  1.1789  1.2001  0.4453
19781SOL     OW61274   3.780   4.641   2.659 -0.2021  0.2042 -0.0223
19781SOL    HW161275   3.790   4.676   2.747  0.9100 -0.8587  0.2917
19781SOL    HW261276   3.866   4.608   2.635 -0.8797 -1.1259 -0.8125
19782SOL     OW61277   6.506   0.837   0.674  0.1395  0.5997 -0.0579
19782SOL    HW161278   6.543   0.749   0.676 -1.0001  0.1098  0.1634
19782SOL    HW261279   6.580   0.894   0.651  0.4950 -0.6383 -2.2769
19783SOL     OW61280   1.347   5.677   6.828 -0.2740 -0.3906  0.4374
19783SOL    HW161281   1.381   5.636   6.749  1.1250 -0.0186  0.8189
19783SOL    HW261282   1.353   5.609   6.895 -0.1710 -0.2958  0.5268
19784SOL     OW61283   7.882   0.283   3.986  0.0758  0.2246 -0.7132
19784SOL    HW161284   7.823   0.214   4.016  0.7041  0.0996  0.3032
19784SOL    HW261285   7.842   0.365   4.017 -0.0272  0.2095 -0.8098
19785SOL     OW61286   7.222   2.897   1.007 -0.1670  0.0580  0.0879
19785SOL    HW161287   7.254   2.971   1.058  1.7826  0.4210 -1.5407
19785SOL    HW261288   7.205   2.932   0.920  0.5383 -1.3103 -0.6501
19786SOL     OW61289   6.707   2.225   5.674 -0.4092 -0.1141  0.0640
19786SOL    HW161290   6.653   2.148   5.657 -1.2693 -0.1731  2.6458
19786SOL    HW261291   6.789   2.189   5.709 -0.2082  0.0951 -0.1911
19787SOL     OW61292   4.490   7.674   6.719  0.5877  0.0521  0.3167
19787SOL    HW161293   4.507   7.618   6.796  1.4725 -0.2339 -0.0728
19787SOL    HW261294   4.411   7.722   6.742 -1.3741 -2.7235 -0.0688
19788SOL     OW61295   8.117   5.797   8.405  0.8269 -0.2045  0.0812
19788SOL    HW161296   8.038   5.837   8.367  0.7413  0.6130  1.0727
19788SOL    HW261297   8.189   5.848   8.368  0.7851  0.0946  0.3999
19789SOL     OW61298   3.582   7.508   7.920 -0.5573 -0.3711 -0.2029
19789SOL    HW161299   3.613   7.495   8.009 -0.2374  1.3236 -0.0316
19789SOL    HW261300   3.559   7.601   7.915 -0.2072 -0.3250 -1.9778
19790SOL     OW61301   0.455   5.030   2.529  0.0206 -0.3442 -0.1744
19790SOL    HW161302   0.396   5.104   2.544 -0.1890 -0.6433  0.5677
19790SOL    HW261303   0.397   4.955   2.520  0.2879 -0.7200  1.0435
19791SOL     OW61304   3.071   8.605   0.294 -0.1682 -0.2199 -0.0997
19791SOL    HW161305   3.049   8.562   0.377  1.8365 -1.1804 -0.0038
19791SOL    HW261306   3.012   8.680   0.290 -0.5544 -0.3348  2.0251
19792SOL     OW61307   4.202   0.371   1.009 -0.0056  0.0620 -0.4051
19792SOL    HW161308   4.197   0.420   0.927 -0.4364  0.4619 -0.1392
19792SOL    HW261309   4.118   0.385   1.051  0.1112 -0.3700 -0.0182
19793SOL     OW61310   1.900   1.041   6.490  0.0837 -0.2684  0.2043
19793SOL    HW161311   1.933   0.996   6.412  0.8080  1.1328 -0.3326
19793SOL    HW261312   1.976   1.089   6.523 -0.7656  0.9123  0.4814
19794SOL     OW61313   7.559   7.558   0.957 -0.2880 -0.1651 -0.5793
19794SOL    HW161314   7.507   7.479   0.943 -2.9649  1.2817  0.5592
19794SOL    HW261315   7.535   7.615   0.885 -1.2698  0.9631  0.5951
19795SOL     OW61316   0.905   1.276   2.494 -0.1988  0.0088 -0.3806
19795SOL    HW161317   0.841   1.346   2.511 -0.6224 -0.1007 -1.4192
19795SOL    HW261318   0.989   1.321   2.494 -0.3637  0.3325  0.0236
19796SOL     OW61319   4.770   3.691   3.110  0.0424 -0.7022  0.3365
19796SOL    HW161320   4.716   3.671   3.034  0.1088  2.4484 -0.6671
19796SOL    HW261321   4.849   3.638   3.099  0.5937  0.5446 -2.4967
19797SOL     OW61322   5.679   4.577   3.029 -0.7116 -0.4588 -0.1886
19797SOL    HW161323   5.650   4.615   3.112  1.8828  1.1819  0.0735
19797SOL    HW261324   5.650   4.638   2.962  0.5255  0.2973 -0.0742
19798SOL     OW61325   0.644   6.141   7.348  0.1404  0.0254  0.0778
19798SOL    HW161326   0.675   6.189   7.272 -1.3738 -0.1382 -0.6714
19798SOL    HW261327   0.653   6.203   7.421  0.1081  0.7386 -0.5133
19799SOL     OW61328   5.057   3.722   5.362 -0.4144  0.0873 -0.2990
19799SOL    HW161329   4.968   3.693   5.384  0.2495 -3.3420 -1.4890
19799SOL    HW261330   5.114   3.661   5.409  1.2958  1.4364 -0.5521
19800SOL     OW61331   3.720   1.265   0.800  0.3066 -0.1760  0.3273
19800SOL    HW161332   3.639   1.301   0.765  1.0556  0.5269 -0.7776
19800SOL    HW261333   3.787   1.292   0.736  1.7980  1.3315  2.3860
19801SOL     OW61334   2.028   8.191   8.861  0.0084  0.2597  0.0299
19801SOL    HW161335   2.111   8.197   8.815  0.3146 -1.6727  0.2343
19801SOL    HW261336   1.963   8.178   8.792  0.0353  0.5561 -0.0518
19802SOL     OW61337   7.402   3.916   1.583 -0.0473 -0.5644 -0.2650
19802SOL    HW161338   7.338   3.980   1.552  1.0997  0.7524 -0.0194
19802SOL    HW261339   7.445   3.958   1.657  0.5666 -1.7429  0.0802
19803SOL     OW61340   4.381   6.398   7.734  0.1083 -0.4582 -0.8795
19803SOL    HW161341   4.415   6.484   7.761 -0.0068 -0.1424 -1.7090
19803SOL    HW261342   4.452   6.360   7.681  0.6304 -1.3866  0.4388
19804SOL     OW61343   1.044   3.605   5.382  0.5012 -0.2169  0.1168
19804SOL    HW161344   1.084   3.653   5.310 -0.2908 -1.1885 -0.9946
19804SOL    HW261345   1.025   3.518   5.347 -0.4859 -0.5146  1.2930
19805SOL     OW61346   8.231   7.974   5.578  0.1606  0.2824  0.2851
19805SOL    HW161347   8.190   7.888   5.566 -0.7084  0.6097  0.8538
19805SOL    HW261348   8.274   7.991   5.494  0.2657 -0.6645  0.1300
19806SOL     OW61349   8.509   8.205   4.256  0.2604 -0.0024  0.2566
19806SOL    HW161350   8.434   8.229   4.202  1.1047  2.7871  0.1475
19806SOL    HW261351   8.522   8.112   4.239 -1.8817 -0.0898 -1.3049
19807SOL     OW61352   5.153   6.519   3.373 -0.2332  0.6430  0.1940
19807SOL    HW161353   5.201   6.581   3.428  1.1298 -1.0823  1.0681
19807SOL    HW261354   5.222   6.466   3.332 -1.3425 -1.0543  0.4249
19808SOL     OW61355   5.251   3.521   0.411  0.0709 -0.8361  0.0906
19808SOL    HW161356   5.183   3.540   0.476 -0.3498  0.6890 -0.7420
19808SOL    HW261357   5.204   3.510   0.329  0.8413  3.4713 -1.2145
19809SOL     OW61358   6.347   2.932   0.620  0.3707 -0.4506 -0.1914
19809SOL    HW161359   6.307   2.885   0.693  1.9162 -0.9505  0.3571
19809SOL    HW261360   6.284   2.922   0.548 -1.0422 -0.1875  0.9600
19810SOL     OW61361   5.962   6.955   3.226 -0.2401  0.4300 -0.2823
19810SOL    HW161362   5.872   6.951   3.259 -0.7529 -1.0634 -1.7199
19810SOL    HW261363   5.988   7.047   3.237 -1.7585  0.7863  0.5778
19811SOL     OW61364   6.438   0.294   0.273  0.2621 -0.3521  0.0349
19811SOL    HW161365   6.478   0.217   0.312 -0.2574 -1.3486 -1.3193
19811SOL    HW261366   6.511   0.354   0.257  1.0654 -1.6129 -1.2160
19812SOL     OW61367   1.691   3.040   7.115  0.1057 -0.0975  0.1399
19812SOL    HW161368   1.763   2.993   7.073 -1.2718 -1.9807 -0.2699
19812SOL    HW261369   1.716   3.045   7.207 -0.1539 -2.7172  0.4259
19813SOL     OW61370   3.966   2.215   3.875 -0.2082  0.0330 -0.0008
19813SOL    HW161371   3.952   2.296   3.825  0.2398  0.6047  0.7724
19813SOL    HW261372   4.050   2.182   3.844 -0.3105 -0.0439 -0.1957
19814SOL     OW61373   0.237   2.293   5.375 -0.3127  0.4962  0.2485
19814SOL    HW161374   0.312   2.274   5.318  1.3842 -0.4645  2.6663
19814SOL    HW261375   0.200   2.208   5.396 -0.6861  0.8131  0.8943
19815SOL     OW61376   8.129   5.130   8.222  0.0584 -0.1657  0.9172
19815SOL    HW161377   8.134   5.088   8.308 -0.5508  0.2816  1.1769
19815SOL    HW261378   8.153   5.221   8.238 -0.5786  0.0440  0.7138
19816SOL     OW61379   5.296   5.020   3.024  0.2382 -0.2111 -0.3491
19816SOL    HW161380   5.274   5.004   3.116 -1.2913  1.4492 -0.3708
19816SOL    HW261381   5.384   5.057   3.026  0.9761 -1.8869  0.2406
19817SOL     OW61382   7.942   1.958   8.815  0.4570 -0.1436  0.3150
19817SOL    HW161383   7.987   1.897   8.756  1.5671 -0.8850  1.8624
19817SOL    HW261384   7.925   2.035   8.760  2.0716 -0.5222 -0.8024
19818SOL     OW61385   7.875   3.495   8.192 -0.3559  0.0258  0.1561
19818SOL    HW161386   7.883   3.494   8.288 -2.8259 -2.2275  0.4690
19818SOL    HW261387   7.781   3.483   8.176  0.0636 -0.2000 -2.5580
19819SOL     OW61388   0.284   0.440   7.628 -0.1538  0.3695 -0.4810
19819SOL    HW161389   0.231   0.407   7.556 -0.3017 -0.9270  0.1965
19819SOL    HW261390   0.368   0.396   7.618 -0.6870 -1.0801  1.0366
19820SOL     OW61391   0.621   4.951   8.789  0.3547 -0.3590 -0.3673
19820SOL    HW161392   0.620   4.862   8.823 -4.3895 -0.9469 -1.2465
19820SOL    HW261393   0.620   5.007   8.866  1.2661 -1.1502  0.2272
19821SOL     OW61394   5.602   0.096   0.508 -0.5391  0.3275  0.3128
19821SOL    HW161395   5.524   0.147   0.489 -1.1783 -0.3370  1.1099
19821SOL    HW261396   5.585   0.010   0.470  0.2759  0.4984 -0.4781
19822SOL     OW61397   1.731   4.327   1.359  0.2804 -0.9019 -0.2803
19822SOL    HW161398   1.696   4.377   1.432  0.1315 -1.4630  0.0378
19822SOL    HW261399   1.812   4.372   1.335 -0.5696  0.3390 -0.9403
19823SOL     OW61400   6.108   3.822   2.570 -0.2396  0.2324 -0.0656
19823SOL    HW161401   6.150   3.906   2.549  2.1004 -1.1246 -1.2693
19823SOL    HW261402   6.016   3.835   2.546  0.3868  1.9506 -1.8197
19824SOL     OW61403   6.072   1.377   7.342  0.3663 -0.3129  0.0014
19824SOL    HW161404   6.005   1.311   7.361  0.0437 -1.2420 -3.5553
19824SOL    HW261405   6.023   1.450   7.304  1.1017  0.4136  0.4276
19825SOL     OW61406   1.354   4.938   6.214 -0.3658 -0.6278  0.3360
19825SOL    HW161407   1.296   4.965   6.286 -1.0396  1.0180 -0.7553
19825SOL    HW261408   1.434   4.909   6.258 -0.3698  1.2701  1.7783
19826SOL     OW61409   7.362   7.881   3.132 -0.0927  0.3223  0.3044
19826SOL    HW161410   7.437   7.892   3.074  0.2395 -1.1822  0.4103
19826SOL    HW261411   7.369   7.953   3.194  0.5649  0.9107 -0.4290
19827SOL     OW61412   2.868   4.413   3.013 -0.2835 -0.9345  0.3690
19827SOL    HW161413   2.923   4.351   3.061 -0.4935 -0.3479  1.3747
19827SOL    HW261414   2.779   4.398   3.046 -0.3897 -0.3488  0.3646
19828SOL     OW61415   2.446   8.299   2.982 -0.3123  0.0749  0.0241
19828SOL    HW161416   2.371   8.309   3.040 -1.1766  0.6328 -1.1508
19828SOL    HW261417   2.426   8.222   2.929 -0.3173  0.5195 -0.6427
19829SOL     OW61418   6.250   1.556   0.993  0.4996  0.8149  0.3333
19829SOL    HW161419   6.158   1.530   0.989  0.4379  0.8576  1.2377
19829SOL    HW261420   6.299   1.474   0.979  0.3544  0.9514 -1.1728
19830SOL     OW61421   5.430   8.542   3.886 -0.2885  0.8075  0.0148
19830SOL    HW161422   5.481   8.552   3.806 -1.9431 -1.2605 -1.4188
19830SOL    HW261423   5.440   8.625   3.931  1.7021  1.6113 -1.7219
19831SOL     OW61424   2.181   0.639   1.945 -0.1576 -0.5674 -0.7146
19831SOL    HW161425   2.259   0.608   1.990 -0.8171  0.6938  1.4798
19831SOL    HW261426   2.202   0.729   1.919 -0.8254 -0.2548 -0.2007
19832SOL     OW61427   2.248   3.993   8.576 -0.1190  0.0887  0.1558
19832SOL    HW161428   2.288   3.987   8.662 -0.6245  0.9100  0.4693
19832SOL    HW261429   2.187   4.067   8.583  0.2317  0.5265 -1.0649
19833SOL     OW61430   3.853   8.110   2.486  0.1175  0.2043 -0.3246
19833SOL    HW161431   3.802   8.107   2.567  0.9997 -0.8832  0.2230
19833SOL    HW261432   3.801   8.165   2.427 -2.0222 -1.3390 -0.0191
19834SOL     OW61433   5.813   3.207   0.470 -0.0290  0.8695  0.5411
19834SOL    HW161434   5.803   3.117   0.501 -2.0105 -0.0227 -2.2684
19834SOL    HW261435   5.840   3.257   0.548 -0.4937 -1.8192  2.5669
19835SOL     OW61436   5.143   2.828   3.902  0.2190 -0.3474 -0.3293
19835SOL    HW161437   5.067   2.879   3.927  0.6402  0.2675 -0.2948
19835SOL    HW261438   5.217   2.873   3.942  0.7019 -0.3958 -1.1419
19836SOL     OW61439   0.557   3.269   8.337  0.0014 -0.2735  0.4732
19836SOL    HW161440   0.606   3.303   8.412  1.1939 -0.4047 -0.2211
19836SOL    HW261441   0.609   3.194   8.307  0.1568  0.4628 -1.1646
19837SOL     OW61442   3.766   5.491   4.712 -0.1785  0.8327  0.4004
19837SOL    HW161443   3.678   5.487   4.675 -0.3141  0.5273  0.7546
19837SOL    HW261444   3.820   5.528   4.642 -0.8550  2.4012  0.6811
19838SOL     OW61445   2.429   3.560   5.503  0.1119  0.3162 -0.2260
19838SOL    HW161446   2.492   3.501   5.462 -1.0411 -0.8087 -0.4287
19838SOL    HW261447   2.435   3.641   5.451  1.9472  0.5544  0.2737
19839SOL     OW61448   1.916   3.229   5.318  0.0416 -0.3501  0.3370
19839SOL    HW161449   1.999   3.209   5.360  0.1035  2.1108  1.5527
19839SOL    HW261450   1.940   3.282   5.242 -0.3350 -1.3590 -0.5153
19840SOL     OW61451   5.446   5.496   0.681 -0.6785 -0.1912 -0.0419
19840SOL    HW161452   5.425   5.451   0.763  0.5789  0.8690  0.8976
19840SOL    HW261453   5.489   5.577   0.708 -1.9962  1.1422 -1.7028
19841SOL     OW61454   0.105   8.174   0.712 -0.5523 -0.1165 -0.0663
19841SOL    HW161455   0.179   8.134   0.756  0.1918  1.7526  0.5018
19841SOL    HW261456   0.142   8.252   0.669 -2.2126  1.0321  0.4907
19842SOL     OW61457   2.933   3.690   6.249  0.4336 -0.3215 -0.0037
19842SOL    HW161458   2.944   3.654   6.337  1.9410 -1.0698 -0.4531
19842SOL    HW261459   2.947   3.615   6.191 -0.2767  0.2151 -0.8954
19843SOL     OW61460   3.826   1.137   5.208 -0.3652 -0.0136 -0.2396
19843SOL    HW161461   3.814   1.062   5.267 -2.3229  1.1902  0.9941
19843SOL    HW261462   3.816   1.214   5.264 -0.1388  1.1880 -1.7759
19844SOL     OW61463   0.189   8.203   7.788 -0.0509 -0.5560  0.6462
19844SOL    HW161464   0.170   8.246   7.871  1.4381  2.1266 -0.2802
19844SOL    HW261465   0.206   8.275   7.727  0.0867 -2.4559 -1.6913
19845SOL     OW61466   5.019   1.288   4.750 -0.0885 -0.1527 -0.7479
19845SOL    HW161467   5.031   1.356   4.684  1.4188 -1.4609 -1.8942
19845SOL    HW261468   5.088   1.305   4.815 -0.3497  0.0114 -0.5146
19846SOL     OW61469   3.399   2.690   8.218  0.1764  0.0495  0.0110
19846SOL    HW161470   3.460   2.689   8.291 -1.0761  2.0800  1.2004
19846SOL    HW261471   3.451   2.718   8.143  1.0927 -0.1622  0.5568
19847SOL     OW61472   5.064   7.484   4.396  0.5374 -0.3426  0.3945
19847SOL    HW161473   5.093   7.575   4.397  0.9860 -0.3075 -3.2550
19847SOL    HW261474   5.128   7.438   4.452  1.9969  1.1686  0.0446
19848SOL     OW61475   5.237   3.819   1.754 -0.3991 -0.8823 -0.2642
19848SOL    HW161476   5.204   3.859   1.834 -1.6720  1.9826 -2.0481
19848SOL    HW261477   5.332   3.833   1.758 -0.6216  0.7528  0.0342
19849SOL     OW61478   2.472   1.553   3.818  0.2713  0.3683 -0.0957
19849SOL    HW161479   2.401   1.616   3.805  0.7174  1.1833  1.2035
19849SOL    HW261480   2.439   1.492   3.884  0.7537  0.7438  0.5069
19850SOL     OW61481   7.869   8.356   2.063 -0.2554  0.6706 -0.2002
19850SOL    HW161482   7.932   8.288   2.086  0.0193 -0.0449 -2.7334
19850SOL    HW261483   7.850   8.340   1.970 -0.8070  3.5567 -0.6778
19851SOL     OW61484   5.859   7.661   8.053 -0.2038 -0.0876  0.2455
19851SOL    HW161485   5.805   7.598   8.101 -0.7760  0.2008 -0.0160
19851SOL    HW261486   5.917   7.698   8.120  0.4443 -1.1935  0.3260
19852SOL     OW61487   4.957   6.153   0.992 -0.2970  0.3671 -0.1559
19852SOL    HW161488   5.008   6.214   0.939 -0.9233  2.4371  1.5158
19852SOL    HW261489   5.009   6.139   1.071 -0.6943 -0.3344 -0.0049
19853SOL     OW61490   7.265   3.111   8.791  0.1189  0.5033 -0.6653
19853SOL    HW161491   7.203   3.039   8.781  1.5105 -0.7610 -0.5446
19853SOL    HW261492   7.290   3.133   8.701  0.1632  0.4139 -0.6747
19854SOL     OW61493   1.615   8.453   1.007 -0.3174  0.0226 -0.2402
19854SOL    HW161494   1.678   8.394   1.048  0.5435  0.2224 -1.2191
19854SOL    HW261495   1.632   8.538   1.047 -1.2980 -0.2904  0.8919
19855SOL     OW61496   3.952   6.396   1.474 -0.1138  0.3103 -0.6979
19855SOL    HW161497   3.952   6.362   1.563 -0.2847  0.4311 -0.6524
19855SOL    HW261498   4.025   6.350   1.431  1.1655  1.5742  0.0072
19856SOL     OW61499   4.128   3.435   5.352  0.0830  0.8899  0.3875
19856SOL    HW161500   4.215   3.466   5.377 -0.0339  1.5034  0.0505
19856SOL    HW261501   4.089   3.508   5.304 -0.1274  0.1648 -0.6012
19857SOL     OW61502   0.119   4.811   3.919 -0.0134  0.5608 -0.3464
19857SOL    HW161503   0.053   4.881   3.913 -2.1563 -1.1280  1.5320
19857SOL    HW261504   0.131   4.798   4.013  1.3827 -0.6540 -0.6610
19858SOL     OW61505   1.181   3.350   1.663 -0.0459  0.1281  0.0784
19858SOL    HW161506   1.099   3.307   1.686 -0.9570  0.8080 -1.7412
19858SOL    HW261507   1.248   3.283   1.678 -1.0094 -0.6866  0.8494
19859SOL     OW61508   7.792   0.490   1.957  0.1055  0.0042 -0.1227
19859SOL    HW161509   7.787   0.583   1.978  1.9125 -0.0584  0.7340
19859SOL    HW261510   7.834   0.450   2.033 -0.0277 -1.4116 -0.7640
19860SOL     OW61511   5.263   8.348   8.557 -0.7256  0.3281 -0.1975
19860SOL    HW161512   5.194   8.304   8.506  0.2069 -0.0785 -1.1413
19860SOL    HW261513   5.243   8.441   8.548 -1.8492  0.1849  0.5658
19861SOL     OW61514   7.198   2.340   7.386  0.6232  0.1592 -0.0099
19861SOL    HW161515   7.128   2.294   7.339  0.9823 -0.8596  0.4129
19861SOL    HW261516   7.254   2.374   7.317  0.4807 -0.2594 -0.3403
19862SOL     OW61517   4.917   5.633   6.085 -0.1252 -0.2879  0.1878
19862SOL    HW161518   4.841   5.657   6.138 -0.2833  0.6107 -0.4351
19862SOL    HW261519   4.976   5.588   6.146 -0.8955 -0.4661  0.8068
19863SOL     OW61520   1.828   5.664   3.443 -0.4562  0.0563 -0.3887
19863SOL    HW161521   1.917   5.630   3.453 -0.5392  0.2058  1.1076
19863SOL    HW261522   1.817   5.675   3.349  0.3328 -2.0282 -0.7805
19864SOL     OW61523   0.656   7.017   5.494 -0.1232  0.4628 -0.0066
19864SOL    HW161524   0.562   6.996   5.489  0.1084 -0.3488 -1.4583
19864SOL    HW261525   0.688   6.964   5.566 -1.0677  2.0684  1.7000
19865SOL     OW61526   3.163   5.967   2.602  0.2479 -0.0532 -0.5336
19865SOL    HW161527   3.182   5.962   2.696 -0.5825 -0.8439 -0.3919
19865SOL    HW261528   3.068   5.971   2.598  0.1046 -2.4970 -1.3939
19866SOL     OW61529   4.339   0.214   7.974  0.1852 -0.3242  0.1790
19866SOL    HW161530   4.309   0.228   8.063 -0.9763  0.2722 -0.2958
19866SOL    HW261531   4.402   0.142   7.981 -1.5437 -1.8191  1.1823
19867SOL     OW61532   7.953   8.746   5.585  0.6670 -0.3796  0.1600
19867SOL    HW161533   7.969   8.691   5.509 -1.0578 -1.8682  0.7994
19867SOL    HW261534   7.894   8.815   5.554 -0.3693 -1.2251  0.2041
19868SOL     OW61535   6.713   5.596   0.858  0.3205 -0.1118 -0.2653
19868SOL    HW161536   6.629   5.579   0.814  0.2586 -1.1914  0.2365
19868SOL    HW261537   6.774   5.614   0.787 -0.4388  1.2860 -0.6183
19869SOL     OW61538   2.462   3.198   8.636 -0.3676 -0.3028 -0.4867
19869SOL    HW161539   2.489   3.106   8.632  2.0831  0.3966 -2.2963
19869SOL    HW261540   2.432   3.218   8.547  0.7090  1.0451 -0.5744
19870SOL     OW61541   7.347   1.866   8.811  0.1307  0.5905 -1.0283
19870SOL    HW161542   7.351   1.776   8.844  0.1063  1.1906  0.6778
19870SOL    HW261543   7.439   1.891   8.799  0.1392  0.3642 -1.4529
19871SOL     OW61544   7.735   6.735   3.642 -0.2310  0.0896 -0.2833
19871SOL    HW161545   7.710   6.667   3.703 -1.2758 -0.8801 -1.7327
19871SOL    HW261546   7.705   6.817   3.682  1.8105 -0.1159  1.8918
19872SOL     OW61547   6.288   6.310   1.059 -0.0120 -0.1921  0.4428
19872SOL    HW161548   6.263   6.311   0.966  1.3176 -0.2469  0.0568
19872SOL    HW261549   6.253   6.392   1.094 -1.0969 -0.4793  0.0599
19873SOL     OW61550   1.126   2.091   2.788 -0.0223 -0.0976  0.4214
19873SOL    HW161551   1.083   2.100   2.873 -1.6115 -2.4314 -0.0383
19873SOL    HW261552   1.162   2.178   2.770 -1.5010  1.0315  2.4819
19874SOL     OW61553   7.106   1.055   8.682 -0.6290  0.5108  0.2849
19874SOL    HW161554   7.166   1.114   8.727 -1.7502  0.8946  1.3342
19874SOL    HW261555   7.163   0.992   8.638  0.6126  2.2585 -0.7492
19875SOL     OW61556   0.686   8.802   4.695  0.0701  0.0042 -0.1952
19875SOL    HW161557   0.651   8.726   4.647  0.7578 -0.3764 -0.1012
19875SOL    HW261558   0.642   8.877   4.655 -1.5236 -0.5108  0.4819
19876SOL     OW61559   1.423   5.637   3.126 -0.1020  0.4015 -0.1965
19876SOL    HW161560   1.341   5.602   3.159 -0.9365  0.5860 -1.9718
19876SOL    HW261561   1.408   5.650   3.032  1.3328  2.1577 -0.2449
19877SOL     OW61562   0.700   2.137   6.808 -0.2983 -0.3798 -0.6352
19877SOL    HW161563   0.685   2.094   6.724  0.1529 -2.5496  0.3266
19877SOL    HW261564   0.613   2.139   6.849 -0.4480  0.3310 -0.9623
19878SOL     OW61565   8.157   4.394   4.352  0.2437 -0.2557  0.0978
19878SOL    HW161566   8.102   4.468   4.377 -0.1559 -0.1081 -1.1377
19878SOL    HW261567   8.104   4.346   4.288  0.8361 -1.1477  0.2515
19879SOL     OW61568   2.503   3.798   4.239 -1.0836 -0.0579  0.3699
19879SOL    HW161569   2.451   3.862   4.289  1.9944  0.2651  3.5350
19879SOL    HW261570   2.522   3.729   4.303  0.8054 -1.0504 -1.1842
19880SOL     OW61571   8.007   3.480   8.623  0.4715 -0.1520 -0.8463
19880SOL    HW161572   8.068   3.518   8.560  1.4087 -0.4358 -0.1204
19880SOL    HW261573   8.055   3.475   8.705 -0.7319  0.1946 -0.0881
19881SOL     OW61574   2.659   3.330   4.226 -0.1924 -0.2560 -0.6402
19881SOL    HW161575   2.635   3.238   4.216 -2.4902 -0.0359  1.8595
19881SOL    HW261576   2.608   3.375   4.158 -0.0447 -0.6782 -1.0376
19882SOL     OW61577   6.518   0.914   1.115 -0.1406 -0.2256  0.2608
19882SOL    HW161578   6.459   0.884   1.046  1.4851 -0.0165 -1.3120
19882SOL    HW261579   6.565   0.835   1.142 -1.4778 -0.5121  1.9478
19883SOL     OW61580   3.260   7.309   2.589 -0.4201 -0.7190  0.0232
19883SOL    HW161581   3.304   7.347   2.664 -2.7116  2.2572  0.0561
19883SOL    HW261582   3.215   7.232   2.623  0.3292 -0.6693  1.1587
19884SOL     OW61583   0.390   6.947   2.616 -0.2589  0.4617 -0.4060
19884SOL    HW161584   0.317   6.979   2.563 -0.3604  1.3716  0.2647
19884SOL    HW261585   0.456   7.016   2.611 -0.6493  1.0173  1.4045
19885SOL     OW61586   2.046   4.205   6.849 -0.1445 -0.1178 -0.9035
19885SOL    HW161587   2.097   4.208   6.768 -0.6440 -2.2543 -1.3613
19885SOL    HW261588   2.088   4.137   6.901 -0.4350  0.5508  0.2362
19886SOL     OW61589   4.442   5.875   7.439  0.2360  0.2354  0.0904
19886SOL    HW161590   4.356   5.833   7.428  0.2185  0.5008 -0.9189
19886SOL    HW261591   4.422   5.968   7.448  0.3225  0.1342  1.5992
19887SOL     OW61592   1.332   5.986   4.759  0.7813 -0.1923 -0.2033
19887SOL    HW161593   1.296   6.060   4.808 -2.0848 -0.7021 -1.3982
19887SOL    HW261594   1.410   5.961   4.810  0.3236  1.8858  1.7324
19888SOL     OW61595   0.436   2.474   0.444  0.7747  0.2331 -0.4918
19888SOL    HW161596   0.375   2.546   0.430  1.3173  0.5141 -1.5265
19888SOL    HW261597   0.523   2.513   0.431  1.0356 -0.8380 -2.3689
19889SOL     OW61598   0.158   5.298   7.451 -0.0579  0.0519  0.4657
19889SOL    HW161599   0.239   5.293   7.400 -0.1209  1.6922  0.1640
19889SOL    HW261600   0.178   5.359   7.522 -0.3388 -1.3190  1.7809
19890SOL     OW61601   8.769   5.316   8.162  0.1503 -0.3486  0.2832
19890SOL    HW161602   8.738   5.304   8.072  0.1504  2.7756 -0.2193
19890SOL    HW261603   8.860   5.342   8.153  0.1974 -0.1505  1.2039
19891SOL     OW61604   2.347   1.821   4.211  0.2203 -0.1416 -0.4129
19891SOL    HW161605   2.402   1.872   4.271  0.3175 -0.4326 -0.2570
19891SOL    HW261606   2.408   1.763   4.166 -0.1352 -1.5304  0.8270
19892SOL     OW61607   7.536   8.372   4.498 -0.3948  0.0544  0.1492
19892SOL    HW161608   7.555   8.282   4.473  0.8692  0.1623  0.6172
19892SOL    HW261609   7.449   8.390   4.462 -0.9662 -1.5691  0.6462
19893SOL     OW61610   0.538   2.264   4.609  0.0032  0.7585  0.1451
19893SOL    HW161611   0.502   2.175   4.613 -1.2763  1.2896  1.4292
19893SOL    HW261612   0.624   2.257   4.649 -0.2848  0.1835  0.6787
19894SOL     OW61613   4.751   5.608   7.669 -0.4942  0.5045 -0.3847
19894SOL    HW161614   4.788   5.591   7.756  0.2758  0.2989 -0.7452
19894SOL    HW261615   4.706   5.692   7.678  0.3281  0.9082 -0.0186
19895SOL     OW61616   0.308   7.314   0.358 -0.3963  0.2289  0.5895
19895SOL    HW161617   0.238   7.254   0.333  1.0419 -1.5513  0.5933
19895SOL    HW261618   0.330   7.288   0.448  0.0639  0.9696  0.6999
19896SOL     OW61619   2.694   1.829   4.690  0.1971  0.0944 -0.5429
19896SOL    HW161620   2.760   1.816   4.759 -0.0782  2.1662  0.1956
19896SOL    HW261621   2.610   1.823   4.736  0.0160  1.6907 -0.6109
19897SOL     OW61622   5.487   6.121   7.206 -0.1596  0.0713 -0.6940
19897SOL    HW161623   5.435   6.127   7.125  0.6041 -0.5219 -1.2454
19897SOL    HW261624   5.465   6.036   7.242  0.0734  0.0174 -0.6781
19898SOL     OW61625   8.048   2.590   3.052 -0.2100  0.1247 -0.2713
19898SOL    HW161626   8.106   2.570   2.978  0.1019 -0.8042  0.2071
19898SOL    HW261627   8.028   2.504   3.091  0.9625  0.6919  1.7144
19899SOL     OW61628   7.879   4.582   4.245  0.0918  0.1924 -0.5395
19899SOL    HW161629   7.803   4.532   4.275  0.6608 -0.4223 -0.1263
19899SOL    HW261630   7.862   4.596   4.151 -0.6683  0.3161 -0.3907
19900SOL     OW61631   1.850   5.264   0.935 -0.3825  0.5089 -0.1064
19900SOL    HW161632   1.870   5.204   1.007 -1.0362 -0.1237 -0.4387
19900SOL    HW261633   1.754   5.271   0.935 -0.4821 -0.3279 -1.5385
19901SOL     OW61634   7.321   0.473   3.842 -0.6843  0.4137 -0.2807
19901SOL    HW161635   7.307   0.561   3.807 -0.0614 -0.3119 -2.5083
19901SOL    HW261636   7.395   0.483   3.902 -0.6230  1.4020 -0.5072
19902SOL     OW61637   5.177   5.936   6.771  0.3736  0.1919  0.0295
19902SOL    HW161638   5.175   5.841   6.773  0.7096  0.0909 -2.1763
19902SOL    HW261639   5.101   5.963   6.823 -0.7883 -1.3226 -0.8002
19903SOL     OW61640   1.573   5.275   1.283 -0.2989 -0.0225 -0.0540
19903SOL    HW161641   1.483   5.252   1.259 -0.4359 -0.8543  1.1829
19903SOL    HW261642   1.612   5.193   1.314  0.2961  0.6813  1.1595
19904SOL     OW61643   7.036   6.489   3.785 -0.0261 -0.2440  0.0852
19904SOL    HW161644   7.070   6.446   3.864 -3.0705 -0.0805  1.6813
19904SOL    HW261645   7.012   6.417   3.727  0.1270 -0.4657  0.2946
19905SOL     OW61646   2.613   8.047   2.032 -0.1550  0.3011  0.0786
19905SOL    HW161647   2.650   8.134   2.021 -0.3060  0.2771 -0.6572
19905SOL    HW261648   2.520   8.058   2.012 -0.1795 -0.0219  0.0067
19906SOL     OW61649   5.917   5.055   1.929 -0.0544  0.4935  0.5758
19906SOL    HW161650   5.964   5.133   1.900  0.8543 -0.6631 -1.2450
19906SOL    HW261651   5.978   4.983   1.914 -1.9682 -0.9503 -0.8615
19907SOL     OW61652   6.489   5.888   2.377 -0.0716  0.0066 -0.1889
19907SOL    HW161653   6.418   5.893   2.313  0.0243 -1.0341 -0.3904
19907SOL    HW261654   6.518   5.979   2.388 -0.3979  0.2496 -1.2697
19908SOL     OW61655   5.347   6.275   8.640 -0.4011  0.2801  0.5658
19908SOL    HW161656   5.325   6.218   8.566  0.5318  0.8397 -0.1574
19908SOL    HW261657   5.397   6.347   8.602  2.5078 -0.7896  2.0779
19909SOL     OW61658   2.297   4.365   1.975 -0.2369 -0.0357  0.3900
19909SOL    HW161659   2.215   4.414   1.976 -0.0168  0.3757  2.1263
19909SOL    HW261660   2.286   4.300   1.906 -1.5783  0.7475 -0.1674
19910SOL     OW61661   8.277   5.038   7.078 -0.2516  0.3154  0.7350
19910SOL    HW161662   8.268   4.973   7.148  0.2278 -1.3546 -0.6600
19910SOL    HW261663   8.368   5.066   7.082  0.2522 -1.0522 -0.2036
19911SOL     OW61664   0.136   2.243   2.404  0.1034 -0.0551 -0.7116
19911SOL    HW161665   0.172   2.315   2.455  1.1374 -2.3875  2.1376
19911SOL    HW261666   0.053   2.275   2.371  0.7247  2.5463  0.0502
19912SOL     OW61667   2.626   7.808   4.537 -0.4930 -0.9372  0.0361
19912SOL    HW161668   2.640   7.827   4.630  0.3103 -0.7665 -0.1074
19912SOL    HW261669   2.605   7.715   4.534 -0.2856 -0.9962  0.3740
19913SOL     OW61670   4.743   2.517   0.917 -0.0738  0.1755 -0.2930
19913SOL    HW161671   4.836   2.533   0.933 -0.3157  0.5634  0.8343
19913SOL    HW261672   4.715   2.461   0.989 -0.2957 -1.5737 -1.6846
19914SOL     OW61673   8.672   3.551   4.203  0.6572 -0.3818 -0.0056
19914SOL    HW161674   8.585   3.550   4.163  1.4538 -0.1783 -1.8383
19914SOL    HW261675   8.730   3.514   4.136  2.0853  0.0858  0.9250
19915SOL     OW61676   2.014   6.283   1.494 -0.3015  1.2383 -0.5822
19915SOL    HW161677   1.976   6.223   1.559  0.8583 -0.5720 -1.4860
19915SOL    HW261678   2.022   6.366   1.540  0.4031  0.0554  1.5942
19916SOL     OW61679   6.984   5.749   3.130 -0.0475  0.6595 -0.5600
19916SOL    HW161680   7.044   5.719   3.199 -1.3679  1.0687  0.8196
19916SOL    HW261681   6.972   5.672   3.074  0.5028  0.1068  0.0537
19917SOL     OW61682   6.423   5.599   4.966 -0.2838 -0.0507  0.1339
19917SOL    HW161683   6.422   5.536   5.037 -1.2027 -0.3692 -0.1561
19917SOL    HW261684   6.452   5.681   5.007 -2.2151  0.1428  1.1928
19918SOL     OW61685   5.054   2.621   0.807  0.0149  0.0870  0.4862
19918SOL    HW161686   5.091   2.691   0.861 -0.0207 -0.7161  1.5696
19918SOL    HW261687   5.025   2.554   0.869  0.2911 -1.0215 -0.5295
19919SOL     OW61688   4.468   6.791   5.965  0.1699  0.2337 -0.3337
19919SOL    HW161689   4.523   6.809   5.889 -0.9403  0.7652 -1.0331
19919SOL    HW261690   4.465   6.873   6.013  1.4433 -0.2872  0.7035
19920SOL     OW61691   1.006   5.014   4.097  0.0526 -0.1008 -0.7918
19920SOL    HW161692   1.015   5.039   4.005  0.9611 -1.1724 -1.0124
19920SOL    HW261693   0.948   5.081   4.134 -0.0161  0.5681 -2.0429
19921SOL     OW61694   0.365   7.298   0.627  0.1461  0.0707 -0.0651
19921SOL    HW161695   0.366   7.393   0.637 -2.9899  0.1550  0.4222
19921SOL    HW261696   0.313   7.266   0.700  0.2796 -1.9527 -0.7766
19922SOL     OW61697   6.886   3.259   3.128 -0.0297  0.1578 -0.6064
19922SOL    HW161698   6.829   3.228   3.057  1.5878  0.8793 -2.3118
19922SOL    HW261699   6.850   3.219   3.207 -0.7994 -2.2354 -2.0575
19923SOL     OW61700   7.940   5.798   5.529  0.3612 -0.0518  0.1554
19923SOL    HW161701   7.980   5.819   5.445 -0.5460 -1.2019 -0.5745
19923SOL    HW261702   7.966   5.708   5.547  1.0159  0.3478  1.4080
19924SOL     OW61703   7.039   0.734   4.776 -0.5509 -0.0520 -0.3426
19924SOL    HW161704   7.088   0.660   4.739 -1.8749 -0.7095 -0.8333
19924SOL    HW261705   6.968   0.693   4.825 -0.2053  0.8725  0.9642
19925SOL     OW61706   6.447   2.498   5.935 -0.6653 -0.1730  0.3285
19925SOL    HW161707   6.437   2.503   6.030 -0.2549 -0.6630  0.4018
19925SOL    HW261708   6.357   2.492   5.902 -0.7768 -0.8835  0.7444
19926SOL     OW61709   8.108   1.864   7.250 -0.0448  0.0211 -0.0133
19926SOL    HW161710   8.200   1.840   7.238 -0.1933 -0.9200  0.5705
19926SOL    HW261711   8.110   1.958   7.268  0.5827  0.4807 -2.2625
19927SOL     OW61712   8.114   0.240   5.391  0.9283 -0.5838  1.2854
19927SOL    HW161713   8.119   0.306   5.460  2.2642 -0.4116  1.0456
19927SOL    HW261714   8.027   0.202   5.401 -0.3669  2.0076  0.6831
19928SOL     OW61715   8.449   2.008   1.710  0.2335 -0.1636  0.5321
19928SOL    HW161716   8.473   1.933   1.656  0.4898 -0.0368  0.4645
19928SOL    HW261717   8.353   2.008   1.713  0.2362 -1.6661  2.1827
19929SOL     OW61718   4.198   1.755   7.807 -0.0705 -0.2457 -0.7819
19929SOL    HW161719   4.142   1.769   7.883  1.2389  2.1098 -0.1487
19929SOL    HW261720   4.225   1.663   7.813 -1.9964 -0.8091  0.1237
19930SOL     OW61721   3.286   0.071   3.530 -0.0135 -0.5014  0.4527
19930SOL    HW161722   3.317   0.001   3.473 -1.4493 -1.2527  0.5621
19930SOL    HW261723   3.356   0.137   3.526  2.0627 -2.4993  1.4821
19931SOL     OW61724   1.591   5.805   5.691  0.2886 -0.5630  0.1528
19931SOL    HW161725   1.546   5.861   5.755  0.1618 -0.6882  0.1742
19931SOL    HW261726   1.537   5.812   5.612  0.4302 -0.4298  0.0662
19932SOL     OW61727   8.039   0.085   5.982  0.4446 -0.4573 -0.0949
19932SOL    HW161728   8.089   0.011   5.950 -1.0117 -0.8253 -1.6784
19932SOL    HW261729   8.063   0.093   6.074  1.4114 -2.2287 -0.1651
19933SOL     OW61730   4.617   3.974   7.633  0.1661  0.5117  0.3506
19933SOL    HW161731   4.597   4.038   7.565  1.2988 -0.4915 -0.9771
19933SOL    HW261732   4.596   4.019   7.715  1.5999  2.8471 -0.4727
19934SOL     OW61733   2.794   4.934   4.834 -0.1695  0.3577 -0.2266
19934SOL    HW161734   2.760   4.869   4.896 -2.0306  2.3596  1.0320
19934SOL    HW261735   2.881   4.956   4.868 -0.3073 -0.1125  0.4588
19935SOL     OW61736   4.762   1.964   4.888 -0.1775  0.2384 -0.0942
19935SOL    HW161737   4.674   1.995   4.910 -0.1548  0.3403 -0.1461
19935SOL    HW261738   4.768   1.973   4.793  0.6208  2.1977  0.0960
19936SOL     OW61739   4.766   2.515   3.018 -0.5373 -0.4882 -0.3572
19936SOL    HW161740   4.728   2.491   2.933  0.4691 -0.6170 -0.7894
19936SOL    HW261741   4.717   2.463   3.082 -2.2169  0.6144 -0.6970
19937SOL     OW61742   2.686   5.148   6.340  0.0768  0.4393 -0.6273
19937SOL    HW161743   2.756   5.154   6.274  0.7248 -1.3389 -0.1612
19937SOL    HW261744   2.732   5.130   6.422 -0.8463  0.9026  0.0132
19938SOL     OW61745   3.953   8.468   7.564 -0.1115  0.1615 -0.0890
19938SOL    HW161746   3.906   8.498   7.643  0.5901 -1.2363  0.9000
19938SOL    HW261747   4.022   8.532   7.552  0.4898 -0.2188  1.1457
19939SOL     OW61748   4.645   6.782   7.211  0.0864  0.3757 -0.3313
19939SOL    HW161749   4.569   6.833   7.238  1.0311  2.1077 -0.8274
19939SOL    HW261750   4.612   6.726   7.140 -0.8821  0.5728 -0.0499
19940SOL     OW61751   4.090   0.085   2.635 -0.4656 -0.0668 -0.0655
19940SOL    HW161752   4.027   0.061   2.703  0.4951 -0.8174  0.5865
19940SOL    HW261753   4.126   0.169   2.663 -0.1635 -0.3147  0.2967
19941SOL     OW61754   5.368   5.194   0.518  0.5500  0.5353  0.0294
19941SOL    HW161755   5.333   5.116   0.559 -2.6756  1.7408 -0.0979
19941SOL    HW261756   5.366   5.261   0.586  3.6459  0.5530  0.2606
19942SOL     OW61757   7.098   6.251   7.400 -0.3999 -0.4239  0.3737
19942SOL    HW161758   7.081   6.224   7.310  0.6885 -1.1810  0.3752
19942SOL    HW261759   7.121   6.170   7.446  0.7314  0.1771  0.9156
19943SOL     OW61760   1.194   6.832   2.092  0.3812  0.3964 -0.1118
19943SOL    HW161761   1.269   6.884   2.065  0.1857  0.2663 -0.9420
19943SOL    HW261762   1.122   6.862   2.036  0.0015 -0.0106  0.1436
19944SOL     OW61763   7.037   0.663   8.015  0.2576 -0.6081  0.0961
19944SOL    HW161764   7.037   0.750   7.975 -1.1279  0.0530  1.4194
19944SOL    HW261765   6.977   0.612   7.960 -2.3856  0.5593  1.6833
19945SOL     OW61766   6.266   4.010   8.130 -0.4140  0.1556  0.3119
19945SOL    HW161767   6.228   3.924   8.113 -1.6829  0.6484  0.5423
19945SOL    HW261768   6.338   4.018   8.068 -1.3069 -0.4179 -0.8366
19946SOL     OW61769   3.054   7.411   5.481  0.3844  0.2769 -0.1119
19946SOL    HW161770   3.116   7.478   5.509  1.2097 -0.4263 -0.2275
19946SOL    HW261771   3.064   7.406   5.386  0.7254 -0.3784 -0.0525
19947SOL     OW61772   6.690   4.523   4.537 -0.4711 -0.3140 -0.3859
19947SOL    HW161773   6.709   4.430   4.527 -1.6391 -0.9312  2.3549
19947SOL    HW261774   6.617   4.539   4.477  0.5786 -0.7763 -1.8593
19948SOL     OW61775   0.401   2.928   1.261  0.3290 -0.1283  0.0304
19948SOL    HW161776   0.431   2.921   1.351 -2.2519  0.9954  1.0756
19948SOL    HW261777   0.462   2.989   1.220  2.7793 -2.2090  0.3293
19949SOL     OW61778   0.466   7.990   0.665  0.2719 -0.5334  0.1456
19949SOL    HW161779   0.416   8.023   0.740  0.7152  0.2762  0.1023
19949SOL    HW261780   0.546   7.954   0.703  1.2067  1.2528 -0.0148
19950SOL     OW61781   5.300   4.342   0.560  0.2133  0.1213  0.1337
19950SOL    HW161782   5.259   4.262   0.524  0.8775  0.5330 -1.6167
19950SOL    HW261783   5.366   4.309   0.621  1.8544 -0.8229 -2.0063
19951SOL     OW61784   0.298   7.653   4.007  0.1783 -0.5085 -0.3936
19951SOL    HW161785   0.244   7.595   3.953 -0.6869 -0.6556  0.6190
19951SOL    HW261786   0.281   7.626   4.097  0.9660  0.2891  0.0091
19952SOL     OW61787   7.336   4.211   4.240  0.3374 -0.3255  0.2850
19952SOL    HW161788   7.354   4.209   4.334  0.8497 -1.3068  0.1855
19952SOL    HW261789   7.334   4.304   4.218 -0.6170 -0.0563  1.4056
19953SOL     OW61790   4.351   4.660   1.845 -0.2089  0.0363  0.1869
19953SOL    HW161791   4.375   4.643   1.753  0.0771 -0.5335  0.3629
19953SOL    HW261792   4.420   4.617   1.895 -0.9535 -0.5752  0.6925
19954SOL     OW61793   6.825   0.852   3.153 -0.0018 -0.0683 -0.2244
19954SOL    HW161794   6.862   0.817   3.072  0.7843  1.2653 -0.4585
19954SOL    HW261795   6.875   0.808   3.223  1.3071  0.8930 -0.5211
19955SOL     OW61796   3.772   6.095   5.311 -0.6004 -0.3332  0.0907
19955SOL    HW161797   3.821   6.140   5.380 -0.0285 -0.0815 -0.4642
19955SOL    HW261798   3.816   6.011   5.302 -0.0557  0.0126 -0.6191
19956SOL     OW61799   4.108   3.200   6.521 -0.0626 -0.1984  0.2260
19956SOL    HW161800   4.054   3.137   6.569  0.3484  0.2865  1.3621
19956SOL    HW261801   4.054   3.227   6.447 -0.5017 -1.3878  0.0784
19957SOL     OW61802   3.390   2.069   2.620  0.5851  0.2114  0.1838
19957SOL    HW161803   3.315   2.066   2.561 -0.0248 -0.1980  0.9635
19957SOL    HW261804   3.455   2.121   2.573 -0.7091  1.8109  0.0969
19958SOL     OW61805   5.060   5.074   1.607 -1.0704 -0.4073  0.2846
19958SOL    HW161806   5.001   5.148   1.592  1.0654  2.2895  3.6211
19958SOL    HW261807   5.021   5.027   1.681 -0.7968 -0.6929  0.2495
19959SOL     OW61808   4.580   4.460   7.610 -0.1630  0.3062 -0.3869
19959SOL    HW161809   4.570   4.383   7.554  2.0352 -1.0068  0.8893
19959SOL    HW261810   4.591   4.533   7.549 -0.8984 -0.5792 -1.6246
19960SOL     OW61811   2.863   1.036   0.002  0.3367 -0.5760 -0.7488
19960SOL    HW161812   2.774   1.002   0.013  0.6694 -2.0653 -2.2989
19960SOL    HW261813   2.908   1.011   0.083 -1.1274  2.0668  1.0234
19961SOL     OW61814   3.683   0.082   4.251 -0.1158 -0.5700  0.1400
19961SOL    HW161815   3.676   0.062   4.157  1.0633 -1.0006  0.1217
19961SOL    HW261816   3.662  -0.001   4.294 -0.5212 -0.4085  0.2525
19962SOL     OW61817   8.531   1.604   5.141 -0.7134  0.4640  0.7397
19962SOL    HW161818   8.533   1.670   5.211  0.0904  0.5312  0.6642
19962SOL    HW261819   8.487   1.647   5.069 -0.8805  0.6532  0.9532
19963SOL     OW61820   3.159   2.505   2.632 -0.5356 -0.1831  0.6235
19963SOL    HW161821   3.159   2.515   2.537 -1.5702 -0.7170  0.5524
19963SOL    HW261822   3.249   2.481   2.654 -0.5195 -1.0366 -0.3398
19964SOL     OW61823   6.610   7.068   1.604 -0.3276 -0.6027  0.2188
19964SOL    HW161824   6.584   7.153   1.640  1.0914 -0.6275  1.4128
19964SOL    HW261825   6.587   7.005   1.672 -1.2924 -1.1791 -0.6238
19965SOL     OW61826   4.941   5.186   7.465 -0.2946 -0.3944  0.4283
19965SOL    HW161827   4.894   5.231   7.536  1.2443  0.5566  0.8953
19965SOL    HW261828   5.002   5.252   7.431 -1.1647 -0.7509 -1.9999
19966SOL     OW61829   5.908   4.332   8.788 -0.7656  0.4577 -0.2421
19966SOL    HW161830   5.940   4.245   8.810 -0.8146  0.6397  0.5499
19966SOL    HW261831   5.849   4.355   8.860 -3.6543 -0.3422 -2.1371
19967SOL     OW61832   6.243   5.650   6.412  0.1051  0.2388 -0.4312
19967SOL    HW161833   6.221   5.736   6.377 -1.3599 -0.1934 -0.6800
19967SOL    HW261834   6.320   5.664   6.466 -0.5158  1.8288  0.0957
19968SOL     OW61835   1.376   3.293   0.965 -0.6894 -0.4702 -0.3173
19968SOL    HW161836   1.432   3.217   0.954  0.2998  0.3659 -1.2688
19968SOL    HW261837   1.287   3.258   0.962 -0.2512 -1.8239  1.2906
19969SOL     OW61838   5.133   1.509   5.264 -0.1144  0.2623  0.4599
19969SOL    HW161839   5.118   1.432   5.318 -1.3554 -0.6096 -1.0437
19969SOL    HW261840   5.227   1.510   5.248 -0.2961 -2.2553 -1.3013
19970SOL     OW61841   7.222   0.841   8.515 -0.3969  0.9157 -0.5102
19970SOL    HW161842   7.306   0.799   8.531 -0.7404  0.5783  0.5099
19970SOL    HW261843   7.177   0.782   8.454 -0.2691  0.5919 -0.2936
19971SOL     OW61844   1.643   4.420   7.566  0.2915 -0.5514 -0.1743
19971SOL    HW161845   1.718   4.408   7.625  0.4763  1.3119  0.0326
19971SOL    HW261846   1.655   4.355   7.498  2.0993 -0.3231 -0.1208
19972SOL     OW61847   2.268   0.365   7.577 -0.3572 -0.2258  0.0878
19972SOL    HW161848   2.322   0.287   7.561 -0.1351 -0.1500  0.4469
19972SOL    HW261849   2.191   0.331   7.623  1.0963  0.0816  3.0269
19973SOL     OW61850   4.531   0.270   7.250 -0.4553 -0.8616 -0.2164
19973SOL    HW161851   4.552   0.205   7.183  1.4705 -1.6179  1.0263
19973SOL    HW261852   4.610   0.276   7.304 -1.2731  1.0826  0.8953
19974SOL     OW61853   5.186   8.146   0.663  0.3528  0.0243 -0.1217
19974SOL    HW161854   5.217   8.091   0.734  0.2738  0.4989  0.2811
19974SOL    HW261855   5.204   8.095   0.584 -3.7115 -2.6822  0.3678
19975SOL     OW61856   6.831   1.565   5.025 -0.2063 -0.3228  0.5111
19975SOL    HW161857   6.760   1.547   4.964 -0.8755 -0.2283  1.2400
19975SOL    HW261858   6.895   1.615   4.974 -0.6732 -0.3822 -0.1487
19976SOL     OW61859   0.399   0.554   5.978 -0.9180  0.0453  0.4736
19976SOL    HW161860   0.484   0.597   5.979  0.2513 -2.0032 -2.0010
19976SOL    HW261861   0.352   0.593   6.052  2.4475  0.5965  2.5191
19977SOL     OW61862   6.529   3.184   3.718 -0.1128 -0.8753 -0.4950
19977SOL    HW161863   6.585   3.134   3.658  1.1462 -0.0562 -0.0371
19977SOL    HW261864   6.580   3.189   3.799 -0.8514 -0.1006 -0.0700
19978SOL     OW61865   8.025   7.649   6.053 -0.2426  0.2686 -0.2267
19978SOL    HW161866   8.053   7.610   6.135  0.7709  1.6100  0.0929
19978SOL    HW261867   7.943   7.694   6.074  0.1613  0.8489  0.1305
19979SOL     OW61868   4.731   6.615   5.452 -0.4109  0.2260 -0.2963
19979SOL    HW161869   4.742   6.522   5.471  0.2532  0.6425  1.5635
19979SOL    HW261870   4.804   6.637   5.395 -0.2014 -0.2495 -0.2166
19980SOL     OW61871   4.262   1.152   1.687  0.3058  0.0093 -0.1361
19980SOL    HW161872   4.321   1.226   1.671  0.2494  0.0966  0.0486
19980SOL    HW261873   4.187   1.167   1.629 -0.1835  0.6491  0.6326
19981SOL     OW61874   2.088   3.981   1.162 -0.2026  0.1631  0.7416
19981SOL    HW161875   2.110   3.915   1.227 -0.1305 -1.3505 -0.7647
19981SOL    HW261876   1.994   3.996   1.175  0.1143  1.1673  2.2696
19982SOL     OW61877   0.454   7.905   6.654 -0.4201  0.4092  0.7137
19982SOL    HW161878   0.367   7.930   6.687 -0.4466 -0.7470  1.5917
19982SOL    HW261879   0.501   7.875   6.732  1.4658  2.7774  0.5931
19983SOL     OW61880   7.589   6.038   2.909 -0.2973  0.5480 -0.1773
19983SOL    HW161881   7.538   6.017   2.831  0.0914 -1.1489 -0.0079
19983SOL    HW261882   7.580   5.961   2.966 -1.4440  2.1366  1.9575
19984SOL     OW61883   6.991   1.359   0.106  0.2715  0.1214  0.3703
19984SOL    HW161884   6.944   1.297   0.050 -0.8544 -0.3410  1.7691
19984SOL    HW261885   7.066   1.309   0.139  0.4108  0.1046  0.0369
19985SOL     OW61886   4.750   7.990   7.451 -0.6082 -0.5798 -0.1513
19985SOL    HW161887   4.729   8.082   7.433 -0.5998 -0.4009  0.7226
19985SOL    HW261888   4.845   7.990   7.463 -0.6150 -0.6920 -0.1013
19986SOL     OW61889   8.602   4.254   7.470 -0.0992 -0.1407 -0.5083
19986SOL    HW161890   8.648   4.228   7.391  0.4153  0.5240 -0.4306
19986SOL    HW261891   8.535   4.315   7.440 -1.0593 -1.2210 -0.6415
19987SOL     OW61892   4.216   0.510   1.934  0.5283  0.3348 -0.1121
19987SOL    HW161893   4.185   0.499   2.024  1.0942 -0.9457 -0.0582
19987SOL    HW261894   4.137   0.525   1.883  0.0550 -0.4157  0.3865
19988SOL     OW61895   7.443   3.368   4.625 -0.4718 -0.3119  0.4579
19988SOL    HW161896   7.400   3.443   4.585 -1.5063 -0.6276  0.9597
19988SOL    HW261897   7.498   3.405   4.694 -0.9828 -0.0092  0.7080
19989SOL     OW61898   7.880   7.799   7.738 -0.2339 -0.3989  0.7095
19989SOL    HW161899   7.790   7.831   7.741  0.0456  0.3566  3.1281
19989SOL    HW261900   7.934   7.874   7.763  0.9203 -1.2846  1.0025
19990SOL     OW61901   4.815   0.507   0.602 -0.6168 -0.0011 -0.3122
19990SOL    HW161902   4.771   0.431   0.641  0.2675  0.2814  1.2782
19990SOL    HW261903   4.892   0.521   0.656 -0.1511  1.3498 -1.2763
19991SOL     OW61904   0.531   4.257   6.249  0.2230 -0.2268 -0.3477
19991SOL    HW161905   0.582   4.265   6.168  1.3497  0.1615  0.3802
19991SOL    HW261906   0.581   4.307   6.314 -0.8962 -0.1622  0.4861
19992SOL     OW61907   4.415   1.618   0.726  0.1109 -0.2948 -0.7138
19992SOL    HW161908   4.433   1.533   0.768  0.8047 -0.9360 -2.2360
19992SOL    HW261909   4.319   1.620   0.719 -0.0647 -0.0130  1.1381
19993SOL     OW61910   3.872   2.896   3.538 -0.1698  0.0201  1.1059
19993SOL    HW161911   3.919   2.813   3.526  1.2558  0.9527  0.0518
19993SOL    HW261912   3.782   2.876   3.510  0.5664 -0.7459 -0.9045
19994SOL     OW61913   7.924   2.363   2.353 -0.3419 -0.0164 -0.0064
19994SOL    HW161914   7.862   2.431   2.328  0.3693  0.2193 -1.2522
19994SOL    HW261915   7.958   2.331   2.269 -0.9002 -2.1472  0.5258
19995SOL     OW61916   3.203   7.034   2.904  0.3822  0.2246  0.0151
19995SOL    HW161917   3.259   6.978   2.850 -1.5101 -1.2861 -0.4969
19995SOL    HW261918   3.246   7.036   2.989  1.6373 -0.1636 -0.5829
19996SOL     OW61919   1.132   1.206   5.188  0.1441  0.9960  0.1977
19996SOL    HW161920   1.171   1.125   5.221  1.1544  0.6950 -1.5882
19996SOL    HW261921   1.067   1.230   5.254  1.3673 -0.0567  1.8639
19997SOL     OW61922   8.649   8.696   3.770 -0.5540 -0.0375 -0.5555
19997SOL    HW161923   8.644   8.600   3.771  0.8888 -0.1387 -0.9477
19997SOL    HW261924   8.677   8.718   3.682 -0.6405  0.7397 -0.3983
19998SOL     OW61925   1.826   7.998   2.053  0.1143  0.5444  0.1089
19998SOL    HW161926   1.890   7.966   1.990  0.3565  1.4900 -0.1356
19998SOL    HW261927   1.747   7.947   2.035  0.6849 -0.4026  0.1991
19999SOL     OW61928   8.768   1.446   2.399 -0.5288  0.3668 -0.3379
19999SOL    HW161929   8.722   1.406   2.326 -0.3212  0.5348 -0.5626
19999SOL    HW261930   8.840   1.495   2.359 -0.4956  0.5741 -0.0346
20000SOL     OW61931   8.869   2.867   3.883 -0.0818  0.2060 -0.1537
20000SOL    HW161932   8.796   2.845   3.826 -0.8005  0.2497  0.7285
20000SOL    HW261933   8.828   2.887   3.968  0.4975  4.3120 -0.6564
20001SOL     OW61934   4.161   1.572   3.974  0.6037  0.1061 -0.3309
20001SOL    HW161935   4.099   1.633   4.012  1.9803  1.8240 -0.7262
20001SOL    HW261936   4.138   1.569   3.881 -0.1166 -0.8399 -0.1433
20002SOL     OW61937   1.274   3.249   2.899  0.8469  0.4468  0.0890
20002SOL    HW161938   1.252   3.303   2.975  0.2221  0.3439 -0.0139
20002SOL    HW261939   1.230   3.165   2.915 -1.0175  1.0953 -1.3311
20003SOL     OW61940   6.958   5.022   1.811  0.1282 -0.0485  0.3776
20003SOL    HW161941   7.016   5.097   1.824 -0.5587  0.7194 -0.7821
20003SOL    HW261942   6.873   5.060   1.791 -0.3738 -1.1470  0.3157
20004SOL     OW61943   3.693   8.833   5.793 -0.1981  0.0066  0.5601
20004SOL    HW161944   3.766   8.783   5.829 -0.0093  0.1868  0.4281
20004SOL    HW261945   3.689   8.807   5.701 -0.7624 -0.5522  0.7256
20005SOL     OW61946   4.204   1.859   4.389 -0.3570 -0.2532 -0.1879
20005SOL    HW161947   4.182   1.892   4.302 -1.5309 -0.9227 -0.1728
20005SOL    HW261948   4.147   1.783   4.400 -1.4239  0.7638  1.8083
20006SOL     OW61949   4.463   7.322   4.788  0.2634 -0.2578  0.3223
20006SOL    HW161950   4.494   7.413   4.793 -1.0167  0.1464  1.4738
20006SOL    HW261951   4.369   7.328   4.804 -0.0611 -1.6704 -0.8807
20007SOL     OW61952   8.422   5.000   8.472  0.3299 -0.4604 -0.0876
20007SOL    HW161953   8.461   5.011   8.559  0.2025 -0.8477  0.0200
20007SOL    HW261954   8.490   4.956   8.421 -0.0616 -1.4217  0.1878
20008SOL     OW61955   8.324   8.186   3.968 -0.7751 -1.0601 -0.2199
20008SOL    HW161956   8.375   8.116   3.927  1.0294 -0.2296  0.5108
20008SOL    HW261957   8.275   8.142   4.037 -0.5270 -1.7797 -0.4873
20009SOL     OW61958   3.254   2.272   2.061  0.2566 -0.0398 -0.2980
20009SOL    HW161959   3.162   2.296   2.046  0.4803 -0.4109 -2.6111
20009SOL    HW261960   3.250   2.204   2.129 -1.1881 -0.1725 -0.4888
20010SOL     OW61961   4.715   5.127   3.485 -0.1335 -0.3136  0.1834
20010SOL    HW161962   4.683   5.214   3.509  1.6247  0.6408 -0.7409
20010SOL    HW261963   4.792   5.113   3.539 -0.6095 -1.4824  0.5929
20011SOL     OW61964   6.747   6.576   6.768  0.5045  0.5675 -0.1301
20011SOL    HW161965   6.782   6.648   6.716  0.9706 -0.5259 -1.3766
20011SOL    HW261966   6.734   6.614   6.855  1.4428  1.9521 -0.5551
20012SOL     OW61967   0.188   3.610   3.651 -0.1397  0.0872 -0.3377
20012SOL    HW161968   0.246   3.613   3.727 -2.7705  2.2574  1.8098
20012SOL    HW261969   0.141   3.526   3.661 -0.3343  0.2714  0.3686
20013SOL     OW61970   1.065   2.009   5.226 -0.1147 -0.1782  0.1160
20013SOL    HW161971   1.041   2.033   5.136  0.7371 -1.1223 -0.3853
20013SOL    HW261972   1.157   1.982   5.219  0.1914  0.4777  1.4213
20014SOL     OW61973   4.919   4.199   7.887 -0.2090 -0.7043  0.6906
20014SOL    HW161974   4.991   4.221   7.946  0.7020 -1.1870 -0.2100
20014SOL    HW261975   4.949   4.227   7.800 -1.3863 -0.3101  0.3854
20015SOL     OW61976   2.691   4.873   7.945 -0.9150 -0.4864  0.2585
20015SOL    HW161977   2.687   4.943   7.880 -0.3692  0.8307  1.5868
20015SOL    HW261978   2.649   4.798   7.902 -1.9223  0.7712 -1.0545
20016SOL     OW61979   8.424   4.450   5.133 -0.2225  0.0043 -0.1737
20016SOL    HW161980   8.410   4.355   5.137  1.2861 -0.2771 -0.7993
20016SOL    HW261981   8.352   4.487   5.184 -0.3348 -1.5271  0.8588
20017SOL     OW61982   8.694   2.648   7.417  0.1864  0.2890  0.4104
20017SOL    HW161983   8.645   2.712   7.468  0.7286  1.7551 -0.8362
20017SOL    HW261984   8.727   2.586   7.482  1.5032  2.4986  1.9841
20018SOL     OW61985   5.249   1.555   6.480 -0.4699  0.1294 -0.0725
20018SOL    HW161986   5.181   1.558   6.413 -1.6040 -0.2836  1.0263
20018SOL    HW261987   5.274   1.463   6.485 -0.2801  0.1826 -0.0462
20019SOL     OW61988   4.834   6.512   4.427  0.0121  0.5268  0.2997
20019SOL    HW161989   4.824   6.517   4.522 -0.7566  0.8785  0.2120
20019SOL    HW261990   4.921   6.474   4.414 -1.2775 -3.0973  1.1531
20020SOL     OW61991   4.508   3.074   8.001 -0.0050 -0.4988  0.1588
20020SOL    HW161992   4.524   3.112   7.915  0.9741  0.5234  0.7782
20020SOL    HW261993   4.412   3.070   8.008 -0.1063 -1.3430 -1.2730
20021SOL     OW61994   6.174   4.694   3.956  0.5201 -0.1404  0.3152
20021SOL    HW161995   6.125   4.769   3.922  1.6198 -0.7423 -2.9513
20021SOL    HW261996   6.114   4.620   3.946  0.6831 -0.2451  0.1053
20022SOL     OW61997   3.605   7.224   5.349 -0.1045  0.4084  0.1806
20022SOL    HW161998   3.606   7.305   5.298  0.0216  0.9123  0.9772
20022SOL    HW261999   3.680   7.174   5.316 -1.4452 -0.3969 -1.8806
20023SOL     OW62000   1.768   8.690   1.892  0.5121 -0.2105  0.3769
20023SOL    HW162001   1.744   8.600   1.911  1.0986 -0.9295 -2.0481
20023SOL    HW262002   1.707   8.719   1.825  1.0372  0.8075  0.3099
20024SOL     OW62003   7.806   5.613   4.384 -0.0343  0.1357  0.3709
20024SOL    HW162004   7.806   5.708   4.398 -0.6256  0.4432 -1.4149
20024SOL    HW262005   7.714   5.593   4.364  0.6456 -0.1704 -2.8324
20025SOL     OW62006   1.683   1.059   2.759 -0.5184  0.9835  0.6005
20025SOL    HW162007   1.640   1.117   2.821 -1.3501 -0.4362  1.4222
20025SOL    HW262008   1.721   0.989   2.813  0.7303  0.9028 -0.3171
20026SOL     OW62009   3.050   5.453   3.376 -0.4806 -0.1265 -0.3006
20026SOL    HW162010   3.001   5.535   3.368  0.5399  0.4491 -0.9446
20026SOL    HW262011   3.139   5.476   3.350  0.3266 -0.9674  1.5286
20027SOL     OW62012   4.924   3.470   0.076  0.6495  0.5303  0.0945
20027SOL    HW162013   4.896   3.423   0.154  0.7914  1.1401  0.5154
20027SOL    HW262014   4.910   3.407   0.005  0.4072  0.0130  0.5863
20028SOL     OW62015   3.800   6.057   0.298  0.7810  0.7223 -0.5035
20028SOL    HW162016   3.733   6.031   0.361  0.1408  1.5454 -0.8275
20028SOL    HW262017   3.770   6.018   0.215  1.8144 -0.6773 -0.2623
20029SOL     OW62018   1.986   2.939   7.673 -0.0789 -0.4230 -0.4932
20029SOL    HW162019   2.066   2.972   7.715  0.4441 -3.0451  0.7791
20029SOL    HW262020   1.915   2.970   7.730  0.3847 -1.3037  0.6122
20030SOL     OW62021   5.331   2.707   2.168 -0.4548 -0.0233  0.9861
20030SOL    HW162022   5.284   2.654   2.104 -1.3148 -0.2661  1.7911
20030SOL    HW262023   5.396   2.647   2.206  1.7132  0.7318 -1.2659
20031SOL     OW62024   4.588   5.488   8.293  0.5781  0.4582 -0.6072
20031SOL    HW162025   4.518   5.515   8.352 -0.2158 -2.4374 -0.0287
20031SOL    HW262026   4.601   5.563   8.235 -1.2770  1.9976  0.8218
20032SOL     OW62027   7.234   3.798   7.351 -0.6198 -0.3361 -0.0404
20032SOL    HW162028   7.205   3.707   7.340  0.3588 -0.7322  0.5498
20032SOL    HW262029   7.325   3.798   7.320  0.2458 -0.1605  2.2990
20033SOL     OW62030   6.080   3.090   2.657 -0.4760 -0.3643  0.1141
20033SOL    HW162031   6.104   3.020   2.717  2.1305  0.5215  0.2389
20033SOL    HW262032   6.061   3.046   2.574  0.2083 -1.2914  0.4361
20034SOL     OW62033   7.956   2.253   0.575  0.1620  0.1550  0.1948
20034SOL    HW162034   8.051   2.251   0.574  0.2329  1.1265  1.6457
20034SOL    HW262035   7.934   2.347   0.575 -0.7535 -0.0468  0.5257
20035SOL     OW62036   4.888   2.195   8.834 -0.4254 -0.1789 -0.2020
20035SOL    HW162037   4.943   2.125   8.868 -1.4995 -0.5071  0.9454
20035SOL    HW262038   4.940   2.275   8.845  0.1315 -0.5772  0.0897
20036SOL     OW62039   7.776   0.215   1.539  0.4288  0.8267  0.0636
20036SOL    HW162040   7.737   0.282   1.595 -0.6277  0.5826 -0.3555
20036SOL    HW262041   7.809   0.149   1.600  0.7888  1.3512  0.4497
20037SOL     OW62042   8.188   4.335   3.358 -0.0171  0.6259 -0.1039
20037SOL    HW162043   8.190   4.275   3.432  0.0691  0.1810 -0.4566
20037SOL    HW262044   8.133   4.408   3.387  0.0711  0.4887  0.4154
20038SOL     OW62045   8.214   3.162   2.075 -0.4864 -0.4793  0.1767
20038SOL    HW162046   8.204   3.250   2.111  1.5903  0.0262 -0.3241
20038SOL    HW262047   8.196   3.173   1.981  0.1758 -0.4746  0.0434
20039SOL     OW62048   3.363   6.498   8.591 -0.0424 -0.6767 -0.2013
20039SOL    HW162049   3.306   6.564   8.631  1.1274  0.1753  0.0887
20039SOL    HW262050   3.302   6.432   8.558 -1.2440  0.4824 -0.4039
20040SOL     OW62051   8.672   2.523   4.363 -0.5943 -0.1549 -0.1079
20040SOL    HW162052   8.710   2.609   4.385  0.9150 -0.7895 -0.0797
20040SOL    HW262053   8.723   2.461   4.416 -1.5470 -1.0903 -0.2649
20041SOL     OW62054   8.108   6.931   2.080  0.3610  0.1108  0.0816
20041SOL    HW162055   8.091   6.903   2.170  2.1286 -0.3847  0.2992
20041SOL    HW262056   8.064   7.016   2.073 -1.3880 -0.6922  0.7862
20042SOL     OW62057   5.741   7.596   3.881 -0.0369  0.3558  0.2410
20042SOL    HW162058   5.681   7.533   3.921 -2.0506  0.5780 -2.1852
20042SOL    HW262059   5.716   7.680   3.919  1.5663 -0.0097  2.2662
20043SOL     OW62060   1.632   0.740   2.513  0.1101  0.3928 -0.2519
20043SOL    HW162061   1.574   0.766   2.585  0.9693  1.0491  0.2177
20043SOL    HW262062   1.572   0.711   2.444 -0.8462  2.2620 -0.2595
20044SOL     OW62063   3.353   2.460   6.084 -0.1208 -0.9287 -0.6810
20044SOL    HW162064   3.420   2.413   6.133  0.6411  1.0551  0.2921
20044SOL    HW262065   3.299   2.502   6.151 -1.3539 -1.1644 -1.4893
20045SOL     OW62066   8.711   3.974   3.036 -0.4171  0.0057 -0.5107
20045SOL    HW162067   8.713   4.066   3.062 -1.6665 -0.2670  0.7046
20045SOL    HW262068   8.758   3.928   3.106 -1.1857 -0.4300 -0.2637
20046SOL     OW62069   6.850   0.225   5.443 -0.1428 -0.1628  0.0765
20046SOL    HW162070   6.836   0.190   5.531 -1.8230  0.8734  0.2570
20046SOL    HW262071   6.945   0.239   5.438 -0.2050  1.9728  2.6190
20047SOL     OW62072   5.015   5.358   6.536  0.7910  0.5566 -0.1358
20047SOL    HW162073   4.985   5.280   6.583  1.0812  0.0505 -0.7717
20047SOL    HW262074   5.010   5.429   6.601  2.6816 -0.4006  1.1385
20048SOL     OW62075   2.028   1.287   5.829 -0.4273 -0.3920 -0.1275
20048SOL    HW162076   2.095   1.239   5.781 -0.3671  1.1775 -1.7074
20048SOL    HW262077   2.063   1.376   5.836 -0.8873 -0.3282  1.9979
20049SOL     OW62078   1.571   2.698   2.871 -0.0392 -0.3011  0.0513
20049SOL    HW162079   1.476   2.689   2.871 -0.0384 -0.3035 -0.3422
20049SOL    HW262080   1.589   2.768   2.809  0.2632 -0.8069 -0.4405
20050SOL     OW62081   8.659   5.908   8.306  0.2287 -0.5918  0.1988
20050SOL    HW162082   8.636   5.823   8.345  0.6131 -1.4368 -1.3631
20050SOL    HW262083   8.580   5.935   8.260 -0.4138  0.6837  1.9518
20051SOL     OW62084   4.588   7.615   5.665  0.0256  0.6024 -0.2470
20051SOL    HW162085   4.599   7.709   5.656  0.2989  0.7370  1.2623
20051SOL    HW262086   4.652   7.578   5.604  0.1678  1.3823 -0.5843
20052SOL     OW62087   3.323   2.903   2.586 -0.2492  0.2389  0.2837
20052SOL    HW162088   3.329   2.967   2.656 -1.8385  0.7025  0.0414
20052SOL    HW262089   3.408   2.906   2.543  1.4018 -1.2797  3.1793
20053SOL     OW62090   6.853   4.170   3.534 -0.1459  0.0231 -0.6882
20053SOL    HW162091   6.846   4.082   3.497  2.0624 -0.6556  0.3205
20053SOL    HW262092   6.774   4.180   3.587 -0.4688 -1.3373 -0.8729
20054SOL     OW62093   2.650   1.426   4.436  0.1173 -0.3514 -0.5079
20054SOL    HW162094   2.571   1.450   4.387  0.1292 -1.1022 -0.9159
20054SOL    HW262095   2.668   1.336   4.409  3.2507  0.8726 -3.3579
20055SOL     OW62096   3.737   5.216   8.425 -0.4496  0.5173  0.0135
20055SOL    HW162097   3.798   5.146   8.449  1.9636  1.7078 -2.1346
20055SOL    HW262098   3.651   5.174   8.423  0.3481 -1.4402  2.3938
20056SOL     OW62099   6.268   1.781   1.945  0.2977  0.2379 -0.2105
20056SOL    HW162100   6.285   1.689   1.926  0.7597  0.3333 -0.2648
20056SOL    HW262101   6.340   1.808   2.002  0.3352  0.6450 -0.4470
20057SOL     OW62102   5.804   7.261   2.063  0.0180 -0.5410  0.4790
20057SOL    HW162103   5.731   7.277   2.122  0.0317  1.0250  0.1054
20057SOL    HW262104   5.794   7.170   2.036 -2.3601 -0.0957 -0.3407
20058SOL     OW62105   3.596   1.481   5.838  0.0661  0.6183 -0.2211
20058SOL    HW162106   3.624   1.516   5.753  0.3261  0.3394 -0.2528
20058SOL    HW262107   3.551   1.555   5.880 -0.6019  0.5831 -0.8453
20059SOL     OW62108   8.681   8.491   1.644 -0.4317  0.5504  0.1327
20059SOL    HW162109   8.619   8.564   1.634  0.7424  1.5722  0.1112
20059SOL    HW262110   8.687   8.477   1.738  0.0226  1.1019  0.1920
20060SOL     OW62111   2.194   8.804   0.839  0.5450 -0.5012  0.4035
20060SOL    HW162112   2.152   8.795   0.925 -0.6183 -0.7632 -0.1695
20060SOL    HW262113   2.215   8.714   0.814  1.9530 -0.3292  0.9128
20061SOL     OW62114   7.368   4.785   2.380  0.2887  0.1820 -0.5059
20061SOL    HW162115   7.352   4.868   2.335  1.7814  0.9765  0.3259
20061SOL    HW262116   7.457   4.762   2.356 -0.6177 -2.0692 -1.9932
20062SOL     OW62117   8.847   1.200   8.637  0.3222 -0.6189  0.0386
20062SOL    HW162118   8.856   1.286   8.677  0.9546  0.2299 -1.8238
20062SOL    HW262119   8.777   1.211   8.572 -0.7873 -1.9920  0.9302
20063SOL     OW62120   4.576   5.991   0.222  0.0034  0.2374  0.0461
20063SOL    HW162121   4.657   5.962   0.262  0.0464  1.4811  0.9175
20063SOL    HW262122   4.511   5.990   0.293 -0.3452  0.7971 -0.2512
20064SOL     OW62123   2.354   0.124   1.229  0.6901  0.6734 -0.1339
20064SOL    HW162124   2.382   0.173   1.306 -1.3061 -0.2067  1.2504
20064SOL    HW262125   2.412   0.048   1.226  0.3504  0.3592  0.9377
20065SOL     OW62126   5.695   0.718   0.470 -0.2854  0.2593 -0.2615
20065SOL    HW162127   5.654   0.631   0.464 -0.3094  0.2625 -0.1489
20065SOL    HW262128   5.659   0.755   0.551  1.7359 -0.6644  1.1300
20066SOL     OW62129   4.746   6.103   6.078  0.1314 -0.5551 -0.2677
20066SOL    HW162130   4.791   6.024   6.047  0.6174 -0.6349  0.6037
20066SOL    HW262131   4.803   6.174   6.050  0.1654 -0.5733 -0.2455
20067SOL     OW62132   7.496   6.712   7.933 -0.6921  0.1866  0.2330
20067SOL    HW162133   7.481   6.620   7.957 -0.8540 -0.2059 -1.2729
20067SOL    HW262134   7.476   6.716   7.840 -1.1101  1.8664  0.3631
20068SOL     OW62135   0.442   6.266   8.343  0.1026  0.3782 -0.2597
20068SOL    HW162136   0.444   6.312   8.427 -1.5939  1.3486 -0.7113
20068SOL    HW262137   0.447   6.335   8.277  0.3365 -0.2971 -0.9785
20069SOL     OW62138   7.665   2.949   4.178  0.4756 -0.1404  0.1639
20069SOL    HW162139   7.741   2.892   4.188  0.1355 -0.3421  1.9522
20069SOL    HW262140   7.595   2.904   4.225  0.2378  1.7956  1.7899
20070SOL     OW62141   6.323   4.625   6.388  0.6141  0.0732 -0.6756
20070SOL    HW162142   6.405   4.618   6.437 -0.4557 -0.3687  1.1544
20070SOL    HW262143   6.324   4.712   6.349  2.0753 -0.0489 -0.9402
20071SOL     OW62144   4.417   2.933   4.296  0.4984 -0.0183 -0.5360
20071SOL    HW162145   4.511   2.946   4.288  0.5688 -0.6468 -0.7860
20071SOL    HW262146   4.404   2.906   4.387  0.3042  2.0845  0.1068
20072SOL     OW62147   0.776   5.405   1.603 -0.1615  0.0351  0.2005
20072SOL    HW162148   0.717   5.459   1.656  0.9706  0.6984  0.8202
20072SOL    HW262149   0.741   5.412   1.514  0.3425  2.4001  0.1241
20073SOL     OW62150   0.820   1.306   3.467 -0.3372 -0.0579 -0.0720
20073SOL    HW162151   0.835   1.221   3.507  0.2862  0.4688  0.8446
20073SOL    HW262152   0.730   1.329   3.492 -0.8988 -0.9179 -1.2409
20074SOL     OW62153   5.545   4.340   5.433 -0.4005 -0.2622  0.0850
20074SOL    HW162154   5.538   4.244   5.433 -0.1915 -0.2903  0.9835
20074SOL    HW262155   5.570   4.362   5.343  1.7207 -1.2410  0.3630
20075SOL     OW62156   6.469   5.554   7.301 -0.0952  0.0018  0.0344
20075SOL    HW162157   6.482   5.639   7.258  1.9733 -0.1007  0.3713
20075SOL    HW262158   6.501   5.567   7.390  0.2450 -1.1225  0.0927
20076SOL     OW62159   2.642   2.364   6.473 -0.0851  0.0215  0.3339
20076SOL    HW162160   2.593   2.327   6.400 -2.3047 -1.9939  2.6546
20076SOL    HW262161   2.714   2.303   6.488 -0.0311  0.0668  0.2583
20077SOL     OW62162   7.528   8.261   7.250  0.0153 -0.0469 -0.0663
20077SOL    HW162163   7.526   8.184   7.193 -1.4220 -0.6986  0.8105
20077SOL    HW262164   7.436   8.284   7.262  0.1356 -0.7598  3.0506
20078SOL     OW62165   8.630   6.370   8.235 -0.3161  0.6139 -0.0812
20078SOL    HW162166   8.631   6.459   8.200 -1.5401  0.7523  0.1932
20078SOL    HW262167   8.556   6.328   8.191  0.8253 -0.5902 -0.9413
20079SOL     OW62168   3.821   6.656   0.639 -0.3090 -0.7777 -0.5312
20079SOL    HW162169   3.806   6.616   0.553 -0.0356 -1.0531 -0.4539
20079SOL    HW262170   3.897   6.713   0.626 -1.2557  0.4338 -0.8665
20080SOL     OW62171   7.484   3.332   2.927 -0.3296  0.1869 -0.1402
20080SOL    HW162172   7.465   3.285   3.008 -1.2410  1.1156  0.2072
20080SOL    HW262173   7.424   3.295   2.862  0.7938 -0.9575 -0.5695
20081SOL     OW62174   3.854   7.352   8.424  0.0361  0.1239 -0.1152
20081SOL    HW162175   3.855   7.259   8.447  1.3002 -0.4319 -2.1304
20081SOL    HW262176   3.777   7.362   8.369  0.2134  0.1451 -0.3578
20082SOL     OW62177   7.796   7.479   5.553  0.4904 -0.0580 -0.1401
20082SOL    HW162178   7.810   7.464   5.647  0.0884 -0.1282 -0.0892
20082SOL    HW262179   7.723   7.540   5.549  0.7703  0.2596 -0.4017
20083SOL     OW62180   1.989   4.434   6.953  0.1323  0.6182 -0.0351
20083SOL    HW162181   1.986   4.346   6.916  0.7152  0.6874 -0.2504
20083SOL    HW262182   1.947   4.425   7.039 -2.2327  0.6805 -1.1045
20084SOL     OW62183   2.973   6.827   3.804  0.6246  0.2326 -0.0987
20084SOL    HW162184   3.027   6.901   3.829 -0.3877  0.3769  1.9214
20084SOL    HW262185   2.884   6.862   3.799  0.1365 -0.7789  0.8383
20085SOL     OW62186   5.273   6.593   6.092 -0.1168 -0.1015  0.5848
20085SOL    HW162187   5.285   6.665   6.154  0.0487 -0.8517  1.4329
20085SOL    HW262188   5.219   6.529   6.138 -1.2016 -0.0548 -0.5542
20086SOL     OW62189   1.939   4.782   0.111 -0.0582  0.7176  0.0687
20086SOL    HW162190   1.995   4.724   0.059  0.3307  0.0968  1.1472
20086SOL    HW262191   1.999   4.840   0.157 -0.3059  0.2374  1.0161
20087SOL     OW62192   3.566   4.975   2.332  0.1638 -0.4310 -0.4173
20087SOL    HW162193   3.632   4.939   2.273  0.3612 -1.2816  0.3117
20087SOL    HW262194   3.581   5.070   2.329  0.5432 -0.5110 -1.2857
20088SOL     OW62195   6.010   1.197   0.408  0.1709  0.4701 -0.3505
20088SOL    HW162196   5.956   1.192   0.329 -0.6089 -0.9108  0.2158
20088SOL    HW262197   6.036   1.106   0.425 -0.1714  0.6338  1.2759
20089SOL     OW62198   8.221   3.796   8.866 -0.3759  0.0412  0.5770
20089SOL    HW162199   8.145   3.834   8.822 -0.2943 -0.0781  0.3322
20089SOL    HW262200   8.248   3.725   8.809  0.2325  0.4040  0.4038
20090SOL     OW62201   8.393   0.660   5.857 -0.0444  0.2427 -0.0750
20090SOL    HW162202   8.412   0.568   5.871 -0.7847 -0.2642 -2.0400
20090SOL    HW262203   8.297   0.665   5.857 -0.0157  1.1584  0.7700
20091SOL     OW62204   0.615   7.710   7.869 -0.2156 -0.3176  0.3029
20091SOL    HW162205   0.707   7.719   7.843 -0.2045  3.0974  0.9889
20091SOL    HW262206   0.617   7.713   7.964 -1.0398  1.0008  0.3088
20092SOL     OW62207   6.279   4.313   3.609 -0.4406 -0.1944 -0.6010
20092SOL    HW162208   6.212   4.257   3.648  0.8741 -1.6135 -0.2476
20092SOL    HW262209   6.317   4.360   3.684  0.7870 -1.4894 -0.3499
20093SOL     OW62210   5.259   6.623   0.675  0.1796  0.1184 -0.0312
20093SOL    HW162211   5.327   6.690   0.690  1.1747 -0.1577 -2.7040
20093SOL    HW262212   5.182   6.656   0.721  1.1438  2.2130  0.1949
20094SOL     OW62213   5.992   8.073   2.137  0.1125 -0.5822 -0.1818
20094SOL    HW162214   6.039   8.156   2.122 -0.0836 -0.0102  2.0145
20094SOL    HW262215   6.061   8.007   2.143  0.4216 -0.2519 -0.0311
20095SOL     OW62216   1.367   7.839   7.168  0.3775 -0.6483  0.1855
20095SOL    HW162217   1.293   7.779   7.174 -0.2901  0.3067  2.2768
20095SOL    HW262218   1.359   7.878   7.080 -1.3171 -0.9366  0.1807
20096SOL     OW62219   3.808   4.560   5.668  0.0856  0.1563 -0.0609
20096SOL    HW162220   3.751   4.559   5.745 -0.4340  1.0760 -0.4118
20096SOL    HW262221   3.886   4.608   5.697  0.8156 -1.2841  0.4818
20097SOL     OW62222   2.964   1.304   3.159 -0.2942 -0.3091  0.2845
20097SOL    HW162223   2.962   1.258   3.243  0.8089  1.1501  1.1526
20097SOL    HW262224   3.043   1.271   3.115 -0.7287 -0.8745 -0.1037
20098SOL     OW62225   5.056   4.254   1.703 -0.0363  0.0628 -0.0188
20098SOL    HW162226   5.081   4.199   1.629 -0.2590  0.1164 -0.1343
20098SOL    HW262227   4.999   4.321   1.665  1.0572  0.9969 -0.0541
20099SOL     OW62228   7.813   2.010   2.194  0.4455  0.3988 -0.5845
20099SOL    HW162229   7.812   2.073   2.122  0.3985 -0.7667 -1.6297
20099SOL    HW262230   7.845   1.929   2.155  1.0813 -0.0877  0.8737
20100SOL     OW62231   6.002   1.269   0.672  0.3970 -0.1710 -0.0215
20100SOL    HW162232   6.003   1.250   0.578  0.6480  2.2267 -0.5795
20100SOL    HW262233   5.910   1.263   0.697  0.3225 -0.7491 -0.4162
20101SOL     OW62234   0.830   0.186   4.915 -0.2457 -0.3409  0.2475
20101SOL    HW162235   0.831   0.200   4.820  0.1025  1.7758  0.5126
20101SOL    HW262236   0.738   0.194   4.939 -0.2719 -0.3867  0.1652
20102SOL     OW62237   1.662   6.306   1.629  0.3545  0.7372 -0.0961
20102SOL    HW162238   1.669   6.392   1.587 -2.0082  0.6492 -0.8212
20102SOL    HW262239   1.613   6.253   1.566 -0.7615 -0.2797  1.5514
20103SOL     OW62240   4.370   2.517   2.029 -0.6146 -0.3282  0.4095
20103SOL    HW162241   4.276   2.500   2.022 -0.9712  0.8054  1.9233
20103SOL    HW262242   4.379   2.612   2.021  0.5964 -0.5369 -1.1990
20104SOL     OW62243   8.377   7.456   0.594 -0.4764 -0.2660 -0.1367
20104SOL    HW162244   8.303   7.479   0.537 -0.3410 -1.4523 -0.8262
20104SOL    HW262245   8.412   7.540   0.622 -0.9598  0.3488 -1.2867
20105SOL     OW62246   4.234   3.654   7.750  0.8653 -0.1225 -0.4914
20105SOL    HW162247   4.228   3.561   7.730 -1.8175  0.0868 -1.0962
20105SOL    HW262248   4.156   3.692   7.710  1.4628  2.2773  0.4287
20106SOL     OW62249   7.531   4.109   1.757  1.1091  0.1336 -0.1615
20106SOL    HW162250   7.560   4.196   1.784 -1.4956  0.4832  1.9747
20106SOL    HW262251   7.559   4.051   1.828 -1.5624  0.2038  1.0759
20107SOL     OW62252   1.884   2.960   7.934 -0.1155 -0.1189 -0.3164
20107SOL    HW162253   1.960   2.927   7.982  0.0856  0.0761 -0.4992
20107SOL    HW262254   1.811   2.907   7.966 -0.5077  1.7618  2.2279
20108SOL     OW62255   7.108   5.081   5.394  0.1713  0.7258 -0.1195
20108SOL    HW162256   7.049   5.029   5.339  1.5600 -0.3348 -0.6551
20108SOL    HW262257   7.086   5.056   5.484 -0.2005  0.3497 -0.3149
20109SOL     OW62258   4.101   4.981   3.580 -0.1468 -0.1248  0.4730
20109SOL    HW162259   4.086   5.062   3.628 -1.5036 -0.3606  0.4730
20109SOL    HW262260   4.162   5.005   3.510  0.7211  0.5301  1.4185
20110SOL     OW62261   5.222   2.226   5.658  0.3337  0.1466 -0.4689
20110SOL    HW162262   5.248   2.154   5.601  1.3796 -0.2696  0.4860
20110SOL    HW262263   5.175   2.184   5.730  1.6025  0.2929  0.4855
20111SOL     OW62264   4.074   8.809   6.419  0.2327  0.1760  0.0303
20111SOL    HW162265   4.093   8.842   6.331  0.7091  0.8961  0.3973
20111SOL    HW262266   4.156   8.769   6.448  0.9917  2.4193  1.2299
20112SOL     OW62267   5.236   1.348   4.898  0.7804 -0.5089 -0.1663
20112SOL    HW162268   5.324   1.315   4.918  0.7585 -0.5207 -0.0901
20112SOL    HW262269   5.216   1.408   4.970  0.8416 -0.2884 -0.3333
20113SOL     OW62270   4.672   3.470   6.577  0.9446  0.1042  0.1134
20113SOL    HW162271   4.682   3.565   6.583  0.0727  0.4072 -2.2102
20113SOL    HW262272   4.610   3.457   6.505 -1.7935 -2.1442  2.6423
20114SOL     OW62273   5.765   7.360   8.746  0.3785 -0.2231  0.6142
20114SOL    HW162274   5.760   7.412   8.666  0.5477 -3.8638 -1.9748
20114SOL    HW262275   5.832   7.404   8.799  1.0116  1.7690 -1.6735
20115SOL     OW62276   0.580   7.017   1.715 -0.4493  0.0696 -0.0014
20115SOL    HW162277   0.586   7.082   1.785 -1.0017 -0.7855  0.8728
20115SOL    HW262278   0.633   7.052   1.644 -0.6010  1.3872  0.5134
20116SOL     OW62279   4.191   0.561   7.751  0.8085 -0.0455  0.2404
20116SOL    HW162280   4.130   0.628   7.722  0.2749 -0.8745 -0.6346
20116SOL    HW262281   4.210   0.583   7.842  0.5224  1.1818  0.0274
20117SOL     OW62282   6.075   0.697   4.722  0.1261  0.2859 -0.6320
20117SOL    HW162283   6.066   0.603   4.740 -1.0374  0.6672  1.0109
20117SOL    HW262284   6.049   0.739   4.804  1.0092  2.0490 -1.2171
20118SOL     OW62285   8.501   4.537   7.067 -0.4366  0.6063  0.1801
20118SOL    HW162286   8.575   4.539   7.128  0.1126  0.6522 -0.4716
20118SOL    HW262287   8.466   4.449   7.075 -0.5267  0.6881  0.7399
20119SOL     OW62288   6.019   7.003   7.236  0.0574 -0.6728 -0.7336
20119SOL    HW162289   6.103   6.962   7.254  0.0142  0.0748  1.4495
20119SOL    HW262290   5.957   6.958   7.294 -0.2046  1.5714  0.8667
20120SOL     OW62291   6.301   0.631   4.891 -0.0985 -0.3641 -0.2139
20120SOL    HW162292   6.298   0.588   4.977  1.4052  0.0130  0.0599
20120SOL    HW262293   6.263   0.567   4.831 -2.0828 -0.2584  0.8507
20121SOL     OW62294   5.366   4.335   2.191 -0.3760 -0.1009 -0.5453
20121SOL    HW162295   5.419   4.410   2.164 -1.4266  0.0362 -2.3930
20121SOL    HW262296   5.359   4.343   2.286  0.8905  1.2098 -0.5350
20122SOL     OW62297   4.592   0.809   8.010  0.0616 -0.2119  0.4601
20122SOL    HW162298   4.685   0.818   7.992 -0.2987 -0.2966 -1.6689
20122SOL    HW262299   4.556   0.766   7.932 -1.6848 -0.6388  1.4442
20123SOL     OW62300   3.592   3.324   0.743  0.1388 -0.1532  0.2563
20123SOL    HW162301   3.560   3.236   0.764 -0.5131 -0.1616 -0.7384
20123SOL    HW262302   3.621   3.318   0.652 -0.5284  0.8249 -0.0316
20124SOL     OW62303   1.448   2.277   0.972  0.3381  0.3499 -0.1952
20124SOL    HW162304   1.357   2.302   0.955 -0.5972 -2.0638  0.7941
20124SOL    HW262305   1.461   2.296   1.065  0.5865 -0.0221 -0.1514
20125SOL     OW62306   1.700   0.231   6.673 -0.7830  0.3043 -0.2715
20125SOL    HW162307   1.719   0.137   6.663 -2.3565 -0.1202  0.3849
20125SOL    HW262308   1.615   0.243   6.630 -0.5881  1.4442 -0.3600
20126SOL     OW62309   1.760   2.156   1.461  0.0925  0.1859 -0.6675
20126SOL    HW162310   1.837   2.209   1.484  2.1631 -2.6252 -0.6606
20126SOL    HW262311   1.773   2.074   1.507 -1.8069 -1.1977 -2.4379
20127SOL     OW62312   5.514   6.408   0.253 -0.0179 -0.3946  0.3162
20127SOL    HW162313   5.495   6.437   0.342  0.9400 -1.3759  0.8754
20127SOL    HW262314   5.437   6.358   0.227 -0.8701  1.0118  0.0629
20128SOL     OW62315   3.903   1.488   6.370  0.4414 -0.1676 -0.2212
20128SOL    HW162316   3.822   1.438   6.362  0.7200 -0.6910  0.1865
20128SOL    HW262317   3.900   1.525   6.458  0.7461 -0.3742 -0.1218
20129SOL     OW62318   5.458   2.655   4.160  0.6563  0.1222 -0.3691
20129SOL    HW162319   5.448   2.662   4.255 -0.7791  0.8108 -0.5462
20129SOL    HW262320   5.410   2.576   4.136  0.5854  0.2257 -0.5757
20130SOL     OW62321   7.981   2.740   1.514 -0.6302  0.1293 -0.5804
20130SOL    HW162322   8.021   2.781   1.437 -0.4056  0.1862 -0.4355
20130SOL    HW262323   7.904   2.695   1.480 -0.1817 -0.3730 -0.9408
20131SOL     OW62324   7.131   6.807   4.180  0.2372  0.0939 -0.1166
20131SOL    HW162325   7.142   6.799   4.275 -1.9613 -0.7053  0.1390
20131SOL    HW262326   7.107   6.898   4.167  0.8394  0.2816  0.0390
20132SOL     OW62327   6.258   4.171   5.735 -0.1151  0.3046 -0.0269
20132SOL    HW162328   6.236   4.108   5.804  0.0274  1.9150  1.5624
20132SOL    HW262329   6.332   4.132   5.690 -1.5037 -1.7689 -0.6719
20133SOL     OW62330   0.754   2.776   6.767  0.0718 -0.6871  0.1673
20133SOL    HW162331   0.683   2.833   6.795  0.1160  0.4752 -1.9116
20133SOL    HW262332   0.833   2.817   6.805 -0.0673 -0.3331  0.0764
20134SOL     OW62333   7.316   7.195   0.747 -0.0432 -0.3944 -0.5966
20134SOL    HW162334   7.403   7.223   0.776 -0.3383  0.6300 -0.6720
20134SOL    HW262335   7.263   7.192   0.827  0.3290 -2.1045 -0.3846
20135SOL     OW62336   6.658   6.305   4.558  0.4382  0.3771  0.2510
20135SOL    HW162337   6.643   6.226   4.506  0.2800  1.2440 -1.0594
20135SOL    HW262338   6.618   6.376   4.507 -1.1511  1.0569  2.3133
20136SOL     OW62339   3.257   6.876   0.779 -0.4865 -0.1851 -0.2432
20136SOL    HW162340   3.282   6.787   0.803  0.4134  0.1107 -0.0622
20136SOL    HW262341   3.265   6.926   0.861 -0.5101  0.1669 -0.4545
20137SOL     OW62342   4.107   8.115   5.469  0.3366 -0.3959  0.2646
20137SOL    HW162343   4.027   8.122   5.417  0.2041 -0.0458  0.5080
20137SOL    HW262344   4.129   8.205   5.491  0.1099 -0.5608  1.2208
20138SOL     OW62345   7.142   1.375   1.965 -0.3320  0.2217 -0.0673
20138SOL    HW162346   7.194   1.411   2.036  0.2512  0.4694 -0.6155
20138SOL    HW262347   7.202   1.319   1.916 -1.2112 -1.5428  0.7666
20139SOL     OW62348   3.465   0.697   3.394 -0.3409 -0.0254 -0.5415
20139SOL    HW162349   3.377   0.687   3.429 -0.8477  1.3817 -1.3320
20139SOL    HW262350   3.514   0.738   3.465 -0.4248 -0.4149 -0.2534
20140SOL     OW62351   5.010   7.776   4.962 -0.2556 -0.4641 -0.6886
20140SOL    HW162352   5.099   7.775   4.998 -0.2478 -0.7879 -0.7141
20140SOL    HW262353   4.961   7.717   5.019 -0.2039 -1.1161 -1.3085
20141SOL     OW62354   2.498   4.357   6.822  0.1297  0.3761 -0.0255
20141SOL    HW162355   2.465   4.277   6.863 -2.3837  1.6272  0.5967
20141SOL    HW262356   2.429   4.421   6.836  1.6345  2.4156 -1.3713
20142SOL     OW62357   7.327   4.230   6.440  0.1225 -0.2951 -0.1806
20142SOL    HW162358   7.339   4.244   6.346  0.8025  0.6643  0.0362
20142SOL    HW262359   7.416   4.218   6.475 -0.1625 -1.2415  0.2594
20143SOL     OW62360   2.965   2.113   5.530 -0.1570  0.6194  0.2696
20143SOL    HW162361   2.946   2.147   5.617  0.7614 -0.1596  0.7905
20143SOL    HW262362   2.994   2.190   5.480  0.7484  0.8321  1.0863
20144SOL     OW62363   7.356   2.654   3.925  0.3546  0.2038  0.2739
20144SOL    HW162364   7.297   2.603   3.868  0.3148  0.2982  0.2304
20144SOL    HW262365   7.386   2.591   3.991  0.0933  0.1925  0.3807
20145SOL     OW62366   8.732   2.577   7.111 -0.4325  0.5594  0.2499
20145SOL    HW162367   8.812   2.587   7.060 -1.0720 -0.6280 -1.0461
20145SOL    HW262368   8.756   2.607   7.199  0.9477  1.8098 -0.5048
20146SOL     OW62369   4.445   0.238   4.173  0.1393  0.2979 -0.2811
20146SOL    HW162370   4.522   0.257   4.226 -0.3008  1.5957 -0.0590
20146SOL    HW262371   4.373   0.237   4.235 -0.0636 -0.6642 -0.5209
20147SOL     OW62372   7.173   2.540   5.537 -0.6028  0.2656  0.4069
20147SOL    HW162373   7.097   2.481   5.533 -0.5520  0.2740 -1.2804
20147SOL    HW262374   7.176   2.581   5.451  2.6096 -1.3803 -0.4320
20148SOL     OW62375   6.447   4.280   7.706 -0.1203  0.4368 -0.3294
20148SOL    HW162376   6.541   4.266   7.701 -0.1582  0.2714 -0.6590
20148SOL    HW262377   6.411   4.194   7.728 -0.2100  0.4499 -0.4248
20149SOL     OW62378   0.379   1.886   6.205  0.1108 -0.0138  0.0186
20149SOL    HW162379   0.444   1.835   6.157  1.4522  2.0774 -0.5265
20149SOL    HW262380   0.295   1.857   6.170  0.8121 -1.6816 -0.3670
20150SOL     OW62381   7.839   1.731   3.220 -0.4721 -0.5619 -0.0536
20150SOL    HW162382   7.881   1.651   3.254 -1.6781 -1.6183 -0.9597
20150SOL    HW262383   7.783   1.700   3.149 -0.3923  1.2056 -0.9390
20151SOL     OW62384   8.510   4.076   7.681 -0.3658 -0.0360  0.1326
20151SOL    HW162385   8.548   4.121   7.606 -0.6862 -2.0092 -1.3215
20151SOL    HW262386   8.541   3.986   7.673  0.7882 -0.0391  3.2555
20152SOL     OW62387   6.159   1.044   3.711 -0.2110  0.2174 -0.1946
20152SOL    HW162388   6.241   1.015   3.752 -1.3317 -1.3383  1.0998
20152SOL    HW262389   6.109   1.081   3.784 -1.3064 -0.3942 -0.6203
20153SOL     OW62390   5.004   3.633   6.317 -0.0023 -0.5449 -0.0494
20153SOL    HW162391   4.967   3.702   6.262  0.9614  0.4310  0.4937
20153SOL    HW262392   5.025   3.562   6.256 -1.6954 -0.6898 -0.5100
20154SOL     OW62393   5.312   4.044   8.558  0.0011  0.3075  0.9472
20154SOL    HW162394   5.346   3.955   8.554 -0.2085  0.1644  2.0393
20154SOL    HW262395   5.366   4.087   8.624  0.1847  1.0359  0.3331
20155SOL     OW62396   8.044   4.621   0.176  0.0767 -0.3965 -0.7476
20155SOL    HW162397   8.011   4.711   0.183 -1.2659 -0.7803 -1.6301
20155SOL    HW262398   7.966   4.569   0.157  1.2021 -1.3640 -3.1125
20156SOL     OW62399   6.490   7.106   3.788 -0.1763  0.3129  0.3025
20156SOL    HW162400   6.508   7.045   3.717 -2.0439  2.1508 -1.9024
20156SOL    HW262401   6.395   7.118   3.786  0.0168  2.4257  1.3913
20157SOL     OW62402   6.340   0.540   2.887 -0.3367  0.4558 -0.4157
20157SOL    HW162403   6.266   0.519   2.945 -0.7419  0.9280 -0.7482
20157SOL    HW262404   6.413   0.556   2.946  0.0691 -2.0175 -0.1257
20158SOL     OW62405   7.566   1.930   4.942 -0.2470 -0.2885  0.6337
20158SOL    HW162406   7.578   1.930   5.037 -1.3158  0.5815  0.7794
20158SOL    HW262407   7.631   1.867   4.910 -0.5012 -1.2976  2.0193
20159SOL     OW62408   8.591   1.804   4.877  0.6688 -0.0099 -0.3490
20159SOL    HW162409   8.507   1.759   4.890 -0.4101  1.8734 -0.4323
20159SOL    HW262410   8.613   1.788   4.785  0.3657 -0.4477 -0.3506
20160SOL     OW62411   7.991   4.911   1.686  0.2101 -0.0582  0.2618
20160SOL    HW162412   7.939   4.989   1.706 -0.3711 -0.0530 -1.1430
20160SOL    HW262413   8.068   4.919   1.741 -0.2168  1.1005  0.7309
20161SOL     OW62414   4.529   0.666   1.963 -0.4104  0.4308  0.1744
20161SOL    HW162415   4.449   0.691   1.917 -0.8659  0.8521  1.1699
20161SOL    HW262416   4.539   0.731   2.032  0.3721 -0.0603  0.5436
20162SOL     OW62417   4.256   6.230   6.125  0.2598 -0.1265 -0.1126
20162SOL    HW162418   4.311   6.161   6.087  0.0961  0.0203 -0.6223
20162SOL    HW262419   4.247   6.294   6.055  2.5308  1.6964  1.1086
20163SOL     OW62420   6.663   3.141   2.980 -0.5058  0.2194  0.1323
20163SOL    HW162421   6.650   3.047   2.966 -2.4237  0.4694  0.0352
20163SOL    HW262422   6.686   3.175   2.894  2.8010 -0.4775  0.6045
20164SOL     OW62423   1.627   3.048   7.713 -0.1070  0.0225  0.1808
20164SOL    HW162424   1.602   3.113   7.649  0.1396  0.9626  1.0160
20164SOL    HW262425   1.667   3.098   7.785 -1.0403 -0.9174  1.4043
20165SOL     OW62426   1.781   7.556   6.685  0.3495 -0.3672 -0.1147
20165SOL    HW162427   1.753   7.631   6.634 -1.3080 -1.0404 -0.2700
20165SOL    HW262428   1.868   7.579   6.718  0.9090  0.6044 -2.1453
20166SOL     OW62429   1.915   1.269   1.037  0.0553 -0.3724 -0.6309
20166SOL    HW162430   1.950   1.354   1.065  2.0266 -1.0390 -0.9162
20166SOL    HW262431   1.835   1.291   0.988 -0.8085  1.1290  1.2955
20167SOL     OW62432   7.913   7.517   0.108 -0.3663  0.1112  0.2820
20167SOL    HW162433   7.878   7.496   0.022 -1.2946 -0.3695  0.7552
20167SOL    HW262434   7.845   7.488   0.169  1.0466 -1.3272  1.2703
20168SOL     OW62435   0.116   3.562   4.803  0.3668 -0.4795 -0.2385
20168SOL    HW162436   0.124   3.468   4.787 -0.8386 -0.5759 -0.3621
20168SOL    HW262437   0.041   3.589   4.750  0.7474  0.5795 -0.2676
20169SOL     OW62438   1.659   0.788   8.396  0.1510 -0.3233 -0.0092
20169SOL    HW162439   1.563   0.788   8.403  0.1768 -2.2298  1.0153
20169SOL    HW262440   1.689   0.807   8.485  0.7320 -0.0854 -0.2549
20170SOL     OW62441   7.777   1.467   1.088 -0.4823 -0.2597 -0.6552
20170SOL    HW162442   7.690   1.462   1.127 -0.3857  0.3995 -0.3513
20170SOL    HW262443   7.791   1.559   1.069  0.2225 -0.3314 -0.5318
20171SOL     OW62444   7.268   3.634   1.914 -0.3451 -1.1087 -0.2169
20171SOL    HW162445   7.266   3.627   1.818  0.8029 -1.1794 -0.2505
20171SOL    HW262446   7.358   3.656   1.934 -0.1730 -2.7024  0.9614
20172SOL     OW62447   4.229   1.279   5.659  0.4885  0.5223 -0.3438
20172SOL    HW162448   4.300   1.281   5.595 -0.3341  0.8096 -1.2565
20172SOL    HW262449   4.272   1.298   5.743  1.4929  0.6270 -0.8679
20173SOL     OW62450   1.712   2.185   3.215 -0.0215 -0.0691 -0.3551
20173SOL    HW162451   1.719   2.277   3.242 -1.1568  0.0231 -0.3224
20173SOL    HW262452   1.659   2.144   3.283  1.4315 -1.0437  0.2573
20174SOL     OW62453   3.296   6.567   2.007 -0.2025 -0.2344  0.1259
20174SOL    HW162454   3.241   6.562   1.928 -0.1371  1.6720 -0.0847
20174SOL    HW262455   3.269   6.491   2.059 -0.0360 -1.7208 -1.8257
20175SOL     OW62456   8.427   7.067   2.948  0.1391  0.0502  0.6685
20175SOL    HW162457   8.474   6.986   2.924  2.9483  0.8498  2.8577
20175SOL    HW262458   8.382   7.093   2.868  0.3334 -2.8745 -0.5317
20176SOL     OW62459   1.631   7.148   4.759  0.0913 -0.4319 -0.0925
20176SOL    HW162460   1.595   7.218   4.813  2.5635  0.1152  0.9729
20176SOL    HW262461   1.672   7.194   4.685  0.7274 -0.8251  0.0070
20177SOL     OW62462   8.351   4.017   7.090  0.0261  0.1374  0.2882
20177SOL    HW162463   8.398   3.951   7.141  0.6998  0.2502 -0.1665
20177SOL    HW262464   8.267   3.978   7.070  0.4906 -0.6604 -0.1315
20178SOL     OW62465   8.831   6.031   8.792  0.4175  0.2654 -0.0444
20178SOL    HW162466   8.925   6.049   8.789  1.0461 -2.4295  0.8894
20178SOL    HW262467   8.810   5.996   8.705  0.7056 -0.8695  0.3325
20179SOL     OW62468   1.725   5.676   1.756  0.4565  0.3876 -0.2094
20179SOL    HW162469   1.761   5.764   1.762  2.1084 -0.3486  1.6756
20179SOL    HW262470   1.767   5.638   1.679  2.9120 -0.0304  1.2319
20180SOL     OW62471   4.471   8.487   0.980  0.2107  0.1215 -0.0434
20180SOL    HW162472   4.546   8.472   0.923 -0.4460 -1.6386 -0.5248
20180SOL    HW262473   4.496   8.561   1.036  1.8878  0.1900 -0.8469
20181SOL     OW62474   5.276   7.726   5.084  0.0061  0.7206  0.1409
20181SOL    HW162475   5.297   7.633   5.072 -0.5265  0.4437  1.2585
20181SOL    HW262476   5.353   7.762   5.127 -0.2782  0.5276  0.8151
20182SOL     OW62477   3.823   4.837   1.841 -0.4713 -0.4188  0.2764
20182SOL    HW162478   3.834   4.878   1.927  0.0919  0.6659 -0.3004
20182SOL    HW262479   3.897   4.777   1.834 -0.1742 -0.0571  0.2962
20183SOL     OW62480   8.090   4.134   4.700 -0.1383  0.1675 -0.3158
20183SOL    HW162481   8.096   4.125   4.795 -0.6819  1.2227 -0.1735
20183SOL    HW262482   8.131   4.218   4.680 -0.6839  0.3023 -0.9298
20184SOL     OW62483   5.735   0.931   8.676 -0.1313  0.1654 -0.2262
20184SOL    HW162484   5.656   0.910   8.725  0.6826 -1.5369  0.4232
20184SOL    HW262485   5.769   1.010   8.719 -0.1405 -0.5471  1.1545
20185SOL     OW62486   4.909   8.038   4.929  0.2050  0.0042  0.0912
20185SOL    HW162487   4.954   8.092   4.993 -0.8604  0.9739  0.0441
20185SOL    HW262488   4.958   7.955   4.929  1.7137  0.8591  0.3397
20186SOL     OW62489   8.513   1.390   0.759 -0.2077  0.1957 -0.1362
20186SOL    HW162490   8.449   1.320   0.761 -0.6274  0.5950  0.6064
20186SOL    HW262491   8.466   1.467   0.791  0.2233  0.8381 -1.0018
20187SOL     OW62492   0.740   5.976   6.944  0.3039 -0.1317 -0.1297
20187SOL    HW162493   0.774   6.043   7.004  0.7026  0.0222 -0.5291
20187SOL    HW262494   0.701   5.910   7.002 -1.9333  1.3943  0.2382
20188SOL     OW62495   3.271   7.457   1.736  0.0479  0.3176  0.4964
20188SOL    HW162496   3.218   7.407   1.798 -0.5181  0.0113 -0.2114
20188SOL    HW262497   3.336   7.502   1.790  0.0421 -0.5243  1.2338
20189SOL     OW62498   7.715   4.818   0.384 -0.2114 -0.2848  0.2234
20189SOL    HW162499   7.795   4.857   0.348 -0.7692  0.2201 -0.4945
20189SOL    HW262500   7.711   4.731   0.347  0.7384 -0.8467  1.3782
20190SOL     OW62501   4.183   6.963   3.595  0.1177  0.1561  0.6825
20190SOL    HW162502   4.229   7.015   3.661  1.3656  2.1390 -1.6071
20190SOL    HW262503   4.102   7.011   3.578 -0.1083 -0.2487  0.5946
20191SOL     OW62504   2.940   1.175   3.392 -0.1481  0.2981 -0.1982
20191SOL    HW162505   2.859   1.123   3.390 -0.6335  1.0585 -0.9633
20191SOL    HW262506   2.989   1.140   3.466 -1.2785 -0.0344  0.4167
20192SOL     OW62507   4.336   4.233   3.522  0.1123 -0.0465  0.2090
20192SOL    HW162508   4.405   4.279   3.571  0.2804 -1.5938  1.5280
20192SOL    HW262509   4.256   4.280   3.546  0.2481 -0.5094  1.6930
20193SOL     OW62510   2.437   0.964   7.206  0.4388 -0.3407 -0.0141
20193SOL    HW162511   2.477   0.878   7.197  0.2159 -0.4351 -0.1011
20193SOL    HW262512   2.487   1.020   7.147 -0.3359 -0.7257 -1.0617
20194SOL     OW62513   4.094   0.146   5.035  0.0417  0.1080  0.0273
20194SOL    HW162514   4.112   0.063   5.080  1.1749 -0.5918 -1.6035
20194SOL    HW262515   4.180   0.188   5.029 -0.2701  0.6854 -0.5020
20195SOL     OW62516   2.063   4.669   2.026  0.1723  0.5213  0.6291
20195SOL    HW162517   2.149   4.702   2.053  0.1157  0.1591  1.2761
20195SOL    HW262518   2.016   4.656   2.108 -0.0108 -0.6296  0.3553
20196SOL     OW62519   5.993   7.232   3.243  0.2356 -0.0748  0.0524
20196SOL    HW162520   6.033   7.292   3.180  0.8962 -0.1966  0.3510
20196SOL    HW262521   6.039   7.249   3.325 -0.5110 -0.0262  0.4755
20197SOL     OW62522   6.131   8.760   7.868  0.3223 -0.1873  0.6289
20197SOL    HW162523   6.049   8.806   7.852  0.8263  0.2779 -0.7311
20197SOL    HW262524   6.104   8.673   7.898 -0.6791 -0.0535  0.1624
20198SOL     OW62525   1.461   6.096   3.451  0.6772 -0.5202  0.1063
20198SOL    HW162526   1.435   6.004   3.441 -0.5229 -0.3446  1.2803
20198SOL    HW262527   1.538   6.092   3.508 -1.2208 -0.7066  2.8680
20199SOL     OW62528   5.681   6.745   6.494 -0.4393  0.1680 -0.3209
20199SOL    HW162529   5.616   6.688   6.536  0.0111 -0.3010 -0.2439
20199SOL    HW262530   5.766   6.709   6.522 -0.1422  1.0666 -0.0284
20200SOL     OW62531   8.750   7.532   7.085 -0.3602 -0.2965  0.1379
20200SOL    HW162532   8.815   7.600   7.103 -0.1740 -0.1880 -0.8753
20200SOL    HW262533   8.801   7.457   7.055 -0.6795 -0.2928 -0.4268
20201SOL     OW62534   3.730   2.348   8.016  0.0526  0.2710 -0.3764
20201SOL    HW162535   3.704   2.280   7.954 -0.5180  0.1008  0.0421
20201SOL    HW262536   3.820   2.369   7.992  0.9019 -1.9158  0.6131
20202SOL     OW62537   5.238   4.379   4.570 -0.2293 -0.3495  0.0519
20202SOL    HW162538   5.149   4.346   4.584 -0.7099  1.2127  0.8911
20202SOL    HW262539   5.229   4.475   4.573  1.8234 -0.1474  2.4424
20203SOL     OW62540   0.581   0.852   3.285 -0.2475 -0.1507 -0.4885
20203SOL    HW162541   0.639   0.919   3.251 -1.0947  0.9648  0.1836
20203SOL    HW262542   0.630   0.811   3.357  0.4274 -0.5424 -1.1644
20204SOL     OW62543   8.170   6.109   6.639 -0.6519  0.3151  0.0738
20204SOL    HW162544   8.157   6.079   6.729 -1.0635  0.0480 -0.0724
20204SOL    HW262545   8.148   6.202   6.641 -2.0769 -0.0062 -0.0531
20205SOL     OW62546   8.463   6.493   8.817  0.2981 -0.8983 -0.1849
20205SOL    HW162547   8.515   6.433   8.764 -0.4744 -0.6892 -1.2118
20205SOL    HW262548   8.398   6.529   8.756  0.8780  1.1702  0.3175
20206SOL     OW62549   3.119   5.079   7.089 -0.0415 -0.1642  0.1628
20206SOL    HW162550   3.078   5.083   7.176  1.6770  0.0625  1.0016
20206SOL    HW262551   3.047   5.094   7.028 -1.2514 -0.0892  1.5535
20207SOL     OW62552   5.283   0.731   1.804  0.9612  0.5083  0.2073
20207SOL    HW162553   5.344   0.794   1.766 -0.2541  0.9049 -1.1425
20207SOL    HW262554   5.216   0.784   1.847  2.2174  0.0903  2.9639
20208SOL     OW62555   7.493   6.993   1.290 -0.5408  0.1392 -0.2272
20208SOL    HW162556   7.449   7.013   1.372  0.2414 -1.2890  0.5857
20208SOL    HW262557   7.476   6.900   1.276  1.1292 -0.1479 -0.5429
20209SOL     OW62558   2.746   0.115   4.568 -0.1550  0.3309 -0.3019
20209SOL    HW162559   2.774   0.200   4.603 -3.1725  0.9527  0.8947
20209SOL    HW262560   2.666   0.095   4.616 -0.5905 -2.2980 -1.9500
20210SOL     OW62561   6.759   2.317   4.742 -0.5666 -0.3501 -0.0426
20210SOL    HW162562   6.731   2.361   4.822 -0.7028 -1.3086  0.4477
20210SOL    HW262563   6.854   2.332   4.738 -0.4605 -0.8122  0.6286
20211SOL     OW62564   2.043   4.016   5.427  0.4654  0.0065 -0.0597
20211SOL    HW162565   2.088   3.986   5.506  2.4813  0.6769 -0.8837
20211SOL    HW262566   1.988   3.942   5.401 -1.7764  0.4328  2.9692
20212SOL     OW62567   1.165   0.011   2.832 -0.1941 -0.1207 -0.3907
20212SOL    HW162568   1.133  -0.047   2.763 -2.8163 -0.1571  0.7508
20212SOL    HW262569   1.119   0.094   2.816  1.4499  0.8283 -0.3986
20213SOL     OW62570   8.096   6.674   4.140  0.1697 -0.0702  0.0473
20213SOL    HW162571   8.130   6.664   4.228  1.0042  0.2775 -0.2282
20213SOL    HW262572   8.146   6.747   4.103 -0.4344  0.0339 -0.5823
20214SOL     OW62573   5.814   8.688   5.234 -0.4174  0.1996 -0.4158
20214SOL    HW162574   5.901   8.650   5.221 -1.0778 -1.8623  0.7102
20214SOL    HW262575   5.831   8.769   5.282  0.9079  0.0279 -0.5532
20215SOL     OW62576   8.388   8.772   2.273 -0.0972 -0.2557 -0.4765
20215SOL    HW162577   8.443   8.748   2.348  0.0942  0.0499 -0.5179
20215SOL    HW262578   8.299   8.754   2.303  0.0774 -1.7347 -0.7731
20216SOL     OW62579   4.436   8.192   1.459  0.3687 -0.6700  0.0117
20216SOL    HW162580   4.483   8.151   1.531 -1.4072 -0.4250  1.3980
20216SOL    HW262581   4.403   8.119   1.407  1.3377 -0.8561 -0.3658
20217SOL     OW62582   1.588   0.676   6.905  0.1664 -0.1607 -0.3314
20217SOL    HW162583   1.543   0.593   6.889  1.3605 -0.5437 -1.9363
20217SOL    HW262584   1.583   0.722   6.821 -0.3741  1.3678  0.4977
20218SOL     OW62585   2.537   6.691   0.942 -0.0184 -0.1627  0.0859
20218SOL    HW162586   2.482   6.760   0.904  0.0263 -0.7142 -1.0041
20218SOL    HW262587   2.480   6.648   1.006 -0.7736 -0.5389 -0.8148
20219SOL     OW62588   0.431   8.411   8.832 -0.2547  0.0039 -0.0590
20219SOL    HW162589   0.386   8.327   8.839 -2.0015  0.9181  0.3023
20219SOL    HW262590   0.450   8.436   8.922  2.6676 -1.1508 -0.2379
20220SOL     OW62591   0.802   4.691   7.964  0.4758 -0.0417  0.1675
20220SOL    HW162592   0.818   4.702   7.870  1.7114  0.3596  0.3980
20220SOL    HW262593   0.748   4.766   7.989 -1.9113 -1.3872 -0.6310
20221SOL     OW62594   3.781   2.050   5.196  0.2982  0.1850 -0.4778
20221SOL    HW162595   3.694   2.010   5.200  1.0506 -1.4772 -0.0512
20221SOL    HW262596   3.805   2.065   5.288  0.6399  0.2534 -0.5759
20222SOL     OW62597   0.250   5.955   8.202 -0.7832 -0.7944 -0.5828
20222SOL    HW162598   0.225   6.002   8.123 -1.6385  0.5721  0.4453
20222SOL    HW262599   0.223   6.012   8.274 -0.1493 -2.0373  0.7136
20223SOL     OW62600   0.866   7.389   4.226 -0.5825  0.6368 -0.0620
20223SOL    HW162601   0.801   7.411   4.293  0.0863 -1.6030  1.4188
20223SOL    HW262602   0.948   7.423   4.261 -0.1324 -1.0386  0.6150
20224SOL     OW62603   8.353   5.354   2.134  0.1154  0.2993 -0.2442
20224SOL    HW162604   8.410   5.350   2.211 -0.4510  1.8060  0.2877
20224SOL    HW262605   8.368   5.441   2.098  0.3899 -0.3977 -1.8908
20225SOL     OW62606   3.844   4.568   6.562  0.0790  0.3431 -0.4493
20225SOL    HW162607   3.800   4.650   6.585 -1.2121 -0.3018 -0.5524
20225SOL    HW262608   3.937   4.591   6.561  0.0425  1.0723  2.7022
20226SOL     OW62609   7.318   7.103   1.922 -0.5206  0.0084 -0.1682
20226SOL    HW162610   7.381   7.031   1.931 -0.4346  0.0651 -0.2986
20226SOL    HW262611   7.242   7.063   1.881 -0.2578  0.1029 -0.7648
20227SOL     OW62612   2.333   4.067   7.698 -0.3265 -0.7312 -0.3293
20227SOL    HW162613   2.238   4.074   7.690 -0.3408 -1.7963 -1.2603
20227SOL    HW262614   2.359   4.008   7.628  0.6427 -3.1649  1.9109
20228SOL     OW62615   8.736   4.824   7.440 -0.4747  0.1659  0.1955
20228SOL    HW162616   8.769   4.811   7.351  0.0297  1.2591  0.2013
20228SOL    HW262617   8.790   4.894   7.475 -0.4017 -0.5364  1.5250
20229SOL     OW62618   5.758   2.635   8.863  0.1073  0.0127 -0.6432
20229SOL    HW162619   5.705   2.557   8.847  2.0662 -1.1485 -1.8254
20229SOL    HW262620   5.821   2.637   8.791 -1.3253  4.0894 -2.1328
20230SOL     OW62621   2.328   6.990   6.149 -0.1409 -0.2560 -0.1643
20230SOL    HW162622   2.419   6.990   6.119  0.1358 -0.5527  0.6476
20230SOL    HW262623   2.331   7.037   6.232 -0.9486  0.8471 -0.7243
20231SOL     OW62624   5.707   5.988   4.682  0.1338  0.4381 -0.0241
20231SOL    HW162625   5.800   5.965   4.687  0.0672 -0.3427 -1.7355
20231SOL    HW262626   5.706   6.067   4.627 -0.1751  0.8686  0.5860
20232SOL     OW62627   1.564   5.282   6.915  0.0731 -0.2795 -0.2494
20232SOL    HW162628   1.496   5.337   6.955  1.2082  0.4973  0.6843
20232SOL    HW262629   1.618   5.343   6.865  1.1595 -0.5663  0.5325
20233SOL     OW62630   2.158   1.304   6.313  0.0366 -0.2843 -0.0547
20233SOL    HW162631   2.071   1.343   6.302  0.0286 -0.7409 -2.0830
20233SOL    HW262632   2.219   1.377   6.300 -0.0220 -0.4509 -1.3862
20234SOL     OW62633   6.024   7.871   7.867  0.4335 -0.4595  0.0711
20234SOL    HW162634   5.973   7.905   7.940  0.5679  0.4690 -0.2540
20234SOL    HW262635   6.109   7.914   7.875  1.1333 -1.8571  0.5124
20235SOL     OW62636   7.686   5.010   3.829  0.1987  0.5244 -0.3393
20235SOL    HW162637   7.690   4.914   3.831 -1.1457  0.4612  0.9924
20235SOL    HW262638   7.627   5.033   3.901  0.0430  2.3347 -1.0033
20236SOL     OW62639   2.789   1.917   7.162 -0.1692  0.0343  0.1922
20236SOL    HW162640   2.760   1.846   7.105  0.5560 -0.3373  0.2699
20236SOL    HW262641   2.732   1.991   7.141 -0.9276 -0.5711  0.1035
20237SOL     OW62642   6.347   3.240   6.269  0.4261  0.0748  0.4882
20237SOL    HW162643   6.362   3.334   6.272  4.3611 -0.3713  0.3918
20237SOL    HW262644   6.367   3.210   6.358  0.4347 -0.7898  0.2051
20238SOL     OW62645   1.044   1.675   5.823 -0.6194  0.2481  0.3833
20238SOL    HW162646   1.069   1.694   5.913  0.1802 -3.0024  0.9828
20238SOL    HW262647   1.096   1.736   5.770  0.9158  0.4623  2.0439
20239SOL     OW62648   5.914   6.334   5.861 -0.5723  0.6178 -0.1796
20239SOL    HW162649   5.921   6.317   5.767 -1.2202 -0.2189 -0.0913
20239SOL    HW262650   5.942   6.425   5.871 -0.6858  0.7804 -1.2116
20240SOL     OW62651   5.444   4.420   1.616  0.2563  0.2449 -0.5444
20240SOL    HW162652   5.397   4.446   1.695 -0.8132 -1.1549 -0.6817
20240SOL    HW262653   5.523   4.475   1.615 -0.8586  1.9266  0.2348
20241SOL     OW62654   2.820   2.452   0.128  0.2002 -0.1189 -0.3115
20241SOL    HW162655   2.862   2.467   0.044  1.1778  1.0038  0.3484
20241SOL    HW262656   2.796   2.539   0.160 -0.8702 -0.5875  0.2303
20242SOL     OW62657   2.181   5.025   3.992  0.3288 -0.1238  0.2955
20242SOL    HW162658   2.184   4.941   3.947 -0.4889 -0.2032  0.3715
20242SOL    HW262659   2.109   5.073   3.950  0.4980  0.3649  0.5489
20243SOL     OW62660   6.476   0.589   8.675 -0.0501  0.3471 -0.0415
20243SOL    HW162661   6.570   0.584   8.692  0.1091  0.2175 -0.9255
20243SOL    HW262662   6.438   0.620   8.758  0.7911  0.6397  0.2419
20244SOL     OW62663   5.538   7.673   5.214  0.6610  0.1015 -0.6753
20244SOL    HW162664   5.600   7.743   5.233  0.5395 -0.4321  1.9835
20244SOL    HW262665   5.506   7.644   5.299 -1.0511 -1.6395 -1.8064
20245SOL     OW62666   4.250   0.359   8.774 -0.8323  0.1846 -0.5030
20245SOL    HW162667   4.267   0.270   8.742 -0.3338  0.1679 -0.2002
20245SOL    HW262668   4.320   0.376   8.837  0.2017  1.5051 -1.9475
20246SOL     OW62669   7.381   2.563   5.779  0.2413  0.1949  0.0000
20246SOL    HW162670   7.327   2.580   5.856  1.1956 -0.9716  0.9597
20246SOL    HW262671   7.319   2.567   5.705 -1.1460 -0.9619  1.0437
20247SOL     OW62672   8.751   8.562   6.914 -0.2368  0.5151  0.2459
20247SOL    HW162673   8.827   8.600   6.871  0.2873  0.7780  1.3729
20247SOL    HW262674   8.691   8.635   6.928 -0.7990  0.2697 -0.8372
20248SOL     OW62675   2.982   4.928   3.641 -0.1229 -0.7043  0.4288
20248SOL    HW162676   3.058   4.878   3.612 -1.0230 -1.6303 -0.4530
20248SOL    HW262677   2.937   4.952   3.560 -1.0896 -0.7205  0.9427
20249SOL     OW62678   8.680   3.454   3.738 -0.3219 -0.5043 -0.3170
20249SOL    HW162679   8.616   3.452   3.810  0.9054  0.9189  0.8702
20249SOL    HW262680   8.626   3.459   3.659 -1.7537  1.7245  0.6881
20250SOL     OW62681   2.790   1.051   3.849  0.0934  0.1118 -0.3052
20250SOL    HW162682   2.819   1.118   3.911 -0.8521  1.7488 -1.5526
20250SOL    HW262683   2.862   0.987   3.847  0.9103  0.9418  1.1225
20251SOL     OW62684   7.529   6.568   0.175  0.2343 -0.2346 -0.3511
20251SOL    HW162685   7.619   6.574   0.143  0.0765 -0.3888 -0.8314
20251SOL    HW262686   7.479   6.536   0.100 -0.2498  0.0057 -0.1356
20252SOL     OW62687   8.719   8.599   7.936 -0.1883 -0.3592  0.1682
20252SOL    HW162688   8.627   8.626   7.932 -0.4402 -0.5375  2.9760
20252SOL    HW262689   8.718   8.512   7.975  1.1858 -0.1075  0.8602
20253SOL     OW62690   0.769   1.643   5.872 -0.0300 -0.2813 -0.0645
20253SOL    HW162691   0.861   1.664   5.853 -0.0454 -1.1257 -1.1738
20253SOL    HW262692   0.770   1.549   5.891 -0.6823 -0.3167 -0.2003
20254SOL     OW62693   0.505   5.197   0.045  0.0197  0.8012  0.4900
20254SOL    HW162694   0.505   5.287   0.013 -0.3674  0.0154 -1.9223
20254SOL    HW262695   0.412   5.174   0.053  0.0983  0.2504 -0.0942
20255SOL     OW62696   3.342   0.793   4.652 -0.3500 -0.2496 -0.3780
20255SOL    HW162697   3.310   0.734   4.720 -0.4596 -1.4356 -1.4148
20255SOL    HW262698   3.380   0.735   4.586 -0.0294  0.8770 -1.2166
20256SOL     OW62699   5.361   7.985   6.272  0.1876  0.5949  0.0378
20256SOL    HW162700   5.331   8.076   6.268  1.7084  1.0839 -1.2639
20256SOL    HW262701   5.446   7.990   6.317  0.7248 -0.0325 -0.8780
20257SOL     OW62702   4.812   8.427   1.449 -0.2558  0.3754 -0.3178
20257SOL    HW162703   4.716   8.424   1.457 -0.2327  2.8430  2.7134
20257SOL    HW262704   4.842   8.345   1.489 -1.0038 -1.2049 -2.7382
20258SOL     OW62705   2.206   4.505   8.624 -0.1423  0.3192  0.2558
20258SOL    HW162706   2.294   4.482   8.594 -0.6134  0.0469 -0.9714
20258SOL    HW262707   2.148   4.450   8.573 -0.9805 -0.8226  2.3201
20259SOL     OW62708   3.283   1.098   6.725 -0.4112  0.1167  0.6513
20259SOL    HW162709   3.218   1.037   6.759 -1.7553  1.5563  0.7893
20259SOL    HW262710   3.279   1.173   6.785  0.7286  0.6205  0.1270
20260SOL     OW62711   0.849   3.711   1.736 -0.2463 -0.1548  0.5076
20260SOL    HW162712   0.920   3.679   1.791 -0.2857  0.3187  0.8430
20260SOL    HW262713   0.829   3.638   1.677 -0.0716 -0.5965  0.9901
20261SOL     OW62714   4.276   7.890   0.869 -0.4177 -0.4963  0.2445
20261SOL    HW162715   4.361   7.924   0.894 -0.4039  0.7980 -1.4027
20261SOL    HW262716   4.272   7.803   0.909  1.7713 -0.6821  0.1502
20262SOL     OW62717   3.821   5.842   8.811 -0.6443  0.4544  0.0843
20262SOL    HW162718   3.728   5.860   8.819 -0.4505  1.8164 -0.5588
20262SOL    HW262719   3.860   5.925   8.785  0.4162 -0.6699 -2.2225
20263SOL     OW62720   8.098   3.084   7.592  0.1208 -0.3176 -0.0351
20263SOL    HW162721   8.139   3.126   7.669  0.2057  1.1745 -0.8578
20263SOL    HW262722   8.006   3.074   7.617 -0.3461  2.1922 -0.4861
20264SOL     OW62723   0.525   3.656   6.050 -0.1418  0.5711  0.4489
20264SOL    HW162724   0.611   3.689   6.024  0.0001 -0.1508 -0.0257
20264SOL    HW262725   0.537   3.563   6.063 -0.7436  0.5455  0.8800
20265SOL     OW62726   2.305   6.039   2.058  0.0344  0.0824 -0.0138
20265SOL    HW162727   2.330   6.032   1.966  0.0954 -2.5754  0.1048
20265SOL    HW262728   2.210   6.027   2.059  0.1992 -1.5242  0.3103
20266SOL     OW62729   4.011   0.480   6.685  0.2453 -0.2224 -0.4495
20266SOL    HW162730   4.083   0.474   6.749 -1.0168 -3.1479  0.8934
20266SOL    HW262731   3.936   0.507   6.737  0.1355  2.1990 -1.7298
20267SOL     OW62732   1.155   1.459   1.629  0.1437  0.6506  0.3783
20267SOL    HW162733   1.194   1.522   1.569  0.0299  1.3410  1.0170
20267SOL    HW262734   1.102   1.512   1.689 -0.5933 -0.1203  0.4416
20268SOL     OW62735   4.615   6.920   4.823  0.0818 -0.2509 -0.0721
20268SOL    HW162736   4.610   6.826   4.842 -0.3510 -0.1262  0.4327
20268SOL    HW262737   4.538   6.957   4.865  0.2446  0.3330 -0.2846
20269SOL     OW62738   8.668   3.208   0.217  0.5130  0.1618  0.2461
20269SOL    HW162739   8.580   3.242   0.206  0.4943  0.0098 -0.0794
20269SOL    HW262740   8.677   3.194   0.312 -0.0133 -0.3702  0.2170
20270SOL     OW62741   1.162   4.136   5.156 -0.0386 -0.1789 -0.2351
20270SOL    HW162742   1.165   4.063   5.094  1.4051  1.3303 -2.0941
20270SOL    HW262743   1.233   4.119   5.217 -0.3041 -0.7857 -0.0925
20271SOL     OW62744   4.581   4.358   3.647  0.3487  0.7566 -0.1559
20271SOL    HW162745   4.672   4.331   3.649  0.6656  1.6109 -1.5365
20271SOL    HW262746   4.583   4.453   3.658 -0.5183  0.6351  1.4501
20272SOL     OW62747   6.887   6.134   8.235 -0.1502 -0.4953 -0.0748
20272SOL    HW162748   6.873   6.042   8.210 -0.4458 -0.0798 -1.5642
20272SOL    HW262749   6.982   6.142   8.243 -0.0704 -0.7732 -0.6511
20273SOL     OW62750   6.128   4.494   8.789 -0.2081  0.0221  0.2183
20273SOL    HW162751   6.141   4.497   8.695 -0.1842 -0.0710  0.2186
20273SOL    HW262752   6.061   4.428   8.803  0.9357 -1.1325  0.3861
20274SOL     OW62753   6.564   7.171   5.379 -0.3060 -0.0955  0.1335
20274SOL    HW162754   6.533   7.261   5.369 -0.0933  0.0138  0.4537
20274SOL    HW262755   6.604   7.150   5.295  1.3100  0.7569  0.6396
20275SOL     OW62756   6.773   5.805   1.032  0.1177 -0.4042  0.6511
20275SOL    HW162757   6.742   5.731   0.979  0.0695 -0.2501  0.4641
20275SOL    HW262758   6.696   5.862   1.040 -0.3441 -1.1878  2.2187
20276SOL     OW62759   4.742   7.723   5.901  0.3404 -0.2197  0.4146
20276SOL    HW162760   4.749   7.792   5.967 -0.0917  0.4436 -0.2096
20276SOL    HW262761   4.696   7.765   5.828  0.0708 -1.1701  0.0215
20277SOL     OW62762   8.024   2.253   5.727 -0.4032 -0.2281  0.0445
20277SOL    HW162763   8.113   2.245   5.693 -0.3310  0.0898  0.1612
20277SOL    HW262764   8.028   2.215   5.814 -0.6604 -1.3423 -0.4096
20278SOL     OW62765   7.789   0.234   3.459 -0.2529  0.1274 -0.3593
20278SOL    HW162766   7.761   0.243   3.368 -0.3946  0.0687 -0.3207
20278SOL    HW262767   7.771   0.320   3.498 -0.5905  0.0154 -0.2740
20279SOL     OW62768   3.245   6.234   6.414  1.0482 -1.1818 -0.0958
20279SOL    HW162769   3.278   6.177   6.345  1.6413  0.1890 -0.9732
20279SOL    HW262770   3.292   6.206   6.493  0.9825 -2.1922 -0.3915
20280SOL     OW62771   8.031   4.871   0.907  0.5523 -0.4945  0.5779
20280SOL    HW162772   8.014   4.821   0.987  1.4516 -0.6558  0.6762
20280SOL    HW262773   7.995   4.957   0.924 -2.3827 -1.4474 -0.1319
20281SOL     OW62774   0.822   8.356   6.862 -0.3609 -0.6408 -0.6958
20281SOL    HW162775   0.823   8.270   6.821 -1.4045 -1.0484  0.0816
20281SOL    HW262776   0.851   8.340   6.952 -2.0858 -0.4870 -0.0722
20282SOL     OW62777   7.637   0.297   1.032 -0.4737 -0.1341 -0.0321
20282SOL    HW162778   7.589   0.377   1.012  0.3728  0.6073  0.7637
20282SOL    HW262779   7.572   0.238   1.070 -1.2646 -0.1220 -1.3155
20283SOL     OW62780   2.918   2.525   7.050 -0.2511  1.0843 -0.5524
20283SOL    HW162781   2.845   2.585   7.064 -0.0958  0.7767  2.0439
20283SOL    HW262782   2.949   2.504   7.138 -0.3858 -2.9238 -1.2506
20284SOL     OW62783   5.785   2.971   8.795  0.0002 -0.4792 -0.8331
20284SOL    HW162784   5.738   3.014   8.724 -0.1842 -1.5390 -1.3787
20284SOL    HW262785   5.719   2.917   8.839  0.2624 -0.3607 -0.2846
20285SOL     OW62786   1.273   4.002   4.573  0.6395  0.6372  0.2431
20285SOL    HW162787   1.346   3.997   4.511 -0.5287 -0.9850 -1.1133
20285SOL    HW262788   1.223   4.079   4.546  0.2369  0.0428 -0.7753
20286SOL     OW62789   4.134   4.217   2.374 -0.2760  0.3490  0.2902
20286SOL    HW162790   4.205   4.231   2.437  0.7279  0.7209 -0.8987
20286SOL    HW262791   4.147   4.128   2.343  0.1549  0.6896 -0.5180
20287SOL     OW62792   6.662   8.279   7.491  0.0446  0.0610  0.2964
20287SOL    HW162793   6.642   8.193   7.527  0.2844 -0.3144 -0.4668
20287SOL    HW262794   6.584   8.303   7.441  0.8247 -0.7009 -1.3432
20288SOL     OW62795   0.541   4.140   3.954 -0.1833 -0.9539 -0.3769
20288SOL    HW162796   0.603   4.210   3.933 -2.0172  1.2597  0.9992
20288SOL    HW262797   0.473   4.148   3.888 -1.4263  0.0154  0.9489
20289SOL     OW62798   0.226   5.933   4.019 -0.1397 -0.0266 -0.0880
20289SOL    HW162799   0.228   5.967   4.108 -2.0583 -0.3587  0.1239
20289SOL    HW262800   0.197   5.842   4.028  0.5071 -0.3415 -0.9892
20290SOL     OW62801   6.881   7.344   6.699  0.5253 -0.5796  0.0326
20290SOL    HW162802   6.951   7.302   6.649  0.3806 -0.2174 -0.4686
20290SOL    HW262803   6.908   7.333   6.791  1.7344  0.4204 -0.1793
20291SOL     OW62804   1.962   0.266   2.797  0.0620  0.0271  0.0784
20291SOL    HW162805   1.885   0.278   2.852  0.9599  2.9477  0.8665
20291SOL    HW262806   2.035   0.300   2.849  1.1492  1.7332 -2.3617
20292SOL     OW62807   6.360   2.359   7.901  0.1672  0.3527  0.8831
20292SOL    HW162808   6.343   2.311   7.982  1.3677 -0.4287  0.6909
20292SOL    HW262809   6.285   2.419   7.892 -0.3972 -0.1473  2.1152
20293SOL     OW62810   3.345   1.419   2.533 -0.1429 -0.8889 -0.0815
20293SOL    HW162811   3.381   1.433   2.445  0.8135 -2.6737 -0.0021
20293SOL    HW262812   3.373   1.331   2.557 -0.3284 -0.4094  2.0591
20294SOL     OW62813   6.677   4.816   6.737  0.2107 -0.2745 -0.2801
20294SOL    HW162814   6.724   4.882   6.686  1.9935 -1.4142 -0.2130
20294SOL    HW262815   6.746   4.759   6.772 -1.0375 -0.4147  2.1923
20295SOL     OW62816   3.492   0.817   4.255  0.1785  0.3299  0.6471
20295SOL    HW162817   3.467   0.747   4.316 -1.8329 -0.7425 -1.2563
20295SOL    HW262818   3.510   0.892   4.311  1.3108 -1.3748  2.7064
20296SOL     OW62819   4.989   4.925   1.276 -0.4373 -0.3473  0.2184
20296SOL    HW162820   5.008   4.959   1.364  1.7647  1.1001 -0.7243
20296SOL    HW262821   4.952   5.000   1.229 -0.1449 -0.6472 -0.5014
20297SOL     OW62822   8.560   0.577   6.933  0.1121  0.1594 -0.2980
20297SOL    HW162823   8.487   0.639   6.939 -0.2431  0.0545 -2.5843
20297SOL    HW262824   8.600   0.596   6.848  1.0664 -1.6023 -0.2791
20298SOL     OW62825   0.159   6.336   3.670  0.7804  0.2247  0.3299
20298SOL    HW162826   0.194   6.416   3.631  0.9952 -1.0361 -2.2634
20298SOL    HW262827   0.191   6.337   3.760  0.0398  3.4335  0.6686
20299SOL     OW62828   8.650   0.272   0.730  0.0340  0.4562  0.1846
20299SOL    HW162829   8.600   0.338   0.681  2.8963  1.8859 -1.0088
20299SOL    HW262830   8.670   0.204   0.665  1.7483  1.1625 -0.0757
20300SOL     OW62831   5.535   6.115   1.847  0.0394  0.0362 -0.4015
20300SOL    HW162832   5.521   6.044   1.784  0.8800 -0.0952 -0.4562
20300SOL    HW262833   5.458   6.113   1.904  0.5355 -1.6061  0.2582
20301SOL     OW62834   1.406   3.479   4.780 -0.1187  0.6443  0.1649
20301SOL    HW162835   1.426   3.572   4.776  0.1644  0.6098  0.7140
20301SOL    HW262836   1.319   3.471   4.741  0.3887  0.9628 -1.0409
20302SOL     OW62837   2.164   2.854   3.412 -0.5066  0.5084 -0.1120
20302SOL    HW162838   2.117   2.883   3.334 -1.0814 -0.0251  0.0280
20302SOL    HW262839   2.103   2.869   3.484 -0.0038  0.9351  0.2247
20303SOL     OW62840   5.680   0.873   5.002 -0.4299  1.4081  0.2762
20303SOL    HW162841   5.614   0.840   5.062  0.8070  1.4893  1.7147
20303SOL    HW262842   5.651   0.842   4.916 -0.8793 -0.8799  1.1900
20304SOL     OW62843   3.881   5.237   0.581  0.3158 -0.7223  0.1541
20304SOL    HW162844   3.906   5.171   0.516  2.6590  3.1273 -3.4561
20304SOL    HW262845   3.964   5.261   0.623  0.4473  2.4972 -1.6273
20305SOL     OW62846   1.376   5.424   3.593 -0.0516  0.2441 -0.4131
20305SOL    HW162847   1.449   5.448   3.651 -0.3151 -0.9578  0.4622
20305SOL    HW262848   1.308   5.392   3.652 -1.2810  1.2749 -1.2250
20306SOL     OW62849   2.514   6.920   7.535  0.1964  0.4163  0.7635
20306SOL    HW162850   2.452   6.927   7.462 -0.6430  0.1930  1.4383
20306SOL    HW262851   2.600   6.933   7.495 -0.1284 -1.0602 -0.4949
20307SOL     OW62852   7.721   6.656   7.515 -0.0562  0.6012  0.2832
20307SOL    HW162853   7.801   6.669   7.566  0.5733  1.1543 -0.8051
20307SOL    HW262854   7.692   6.567   7.536 -0.0272  0.9474  1.8658
20308SOL     OW62855   1.853   4.088   6.340 -0.1009  0.0887  0.6602
20308SOL    HW162856   1.941   4.074   6.307  0.2141  0.4450  1.3208
20308SOL    HW262857   1.816   4.000   6.349  0.3976 -0.0970  0.9291
20309SOL     OW62858   1.284   2.093   3.481 -0.4827  0.3646  0.5199
20309SOL    HW162859   1.306   2.169   3.427  0.9743 -0.1367  0.3683
20309SOL    HW262860   1.367   2.046   3.492 -0.9699 -0.1563  2.2629
20310SOL     OW62861   8.600   1.628   0.956 -0.1838  0.4099 -0.3958
20310SOL    HW162862   8.567   1.669   1.035  2.9659  1.8535  0.3054
20310SOL    HW262863   8.527   1.632   0.894 -1.9335  1.4495  1.6299
20311SOL     OW62864   3.152   8.102   3.989 -0.0428 -0.6170  0.4244
20311SOL    HW162865   3.238   8.096   3.947 -0.2003 -0.6235  0.0982
20311SOL    HW262866   3.168   8.076   4.080  0.2409 -0.9354  0.2856
20312SOL     OW62867   3.505   7.455   4.646  0.1559  0.2604  0.4279
20312SOL    HW162868   3.478   7.471   4.555 -0.4128  1.7128  0.8138
20312SOL    HW262869   3.424   7.429   4.691  0.0825  1.1866  0.8527
20313SOL     OW62870   0.044   4.106   0.032 -0.1720  0.4926 -0.1232
20313SOL    HW162871   0.117   4.045   0.042 -0.6711  0.0792  1.1714
20313SOL    HW262872   0.051   4.164   0.108 -0.3211  1.3928 -0.7824
20314SOL     OW62873   0.776   0.886   4.620  0.6034  0.0074 -0.1857
20314SOL    HW162874   0.754   0.816   4.682  1.6558  0.1285  0.3433
20314SOL    HW262875   0.703   0.948   4.627  0.6924  0.0123  0.9372
20315SOL     OW62876   4.052   0.996   8.536 -0.5762 -0.1721  0.4045
20315SOL    HW162877   4.048   0.925   8.473 -1.5962  0.0718  0.1673
20315SOL    HW262878   4.072   1.074   8.484 -1.7304  0.0828  0.3099
20316SOL     OW62879   6.789   2.075   1.897  0.2760  0.0992  0.0211
20316SOL    HW162880   6.703   2.061   1.936  0.3350  1.7263  0.8441
20316SOL    HW262881   6.844   2.006   1.933 -0.0350  0.6871  1.7409
20317SOL     OW62882   1.876   5.186   0.194 -0.3902  0.0671  0.2153
20317SOL    HW162883   1.940   5.220   0.257 -1.0217  1.1946  0.2688
20317SOL    HW262884   1.927   5.172   0.114 -0.1245  1.2931  0.1482
20318SOL     OW62885   5.976   1.301   5.202  0.5791 -0.3199 -1.1108
20318SOL    HW162886   5.990   1.207   5.192 -4.5814 -1.3626 -1.2065
20318SOL    HW262887   5.969   1.334   5.112 -1.9287 -0.8561 -1.1845
20319SOL     OW62888   2.120   1.536   5.575  0.0996 -0.2910 -0.3714
20319SOL    HW162889   2.109   1.530   5.480  2.3016  1.6897 -0.8453
20319SOL    HW262890   2.173   1.460   5.598  2.2408  0.8442 -1.3077
20320SOL     OW62891   5.114   1.786   3.986 -0.3945  0.3302 -0.1812
20320SOL    HW162892   5.189   1.727   3.998 -0.8877 -0.1360  0.7390
20320SOL    HW262893   5.154   1.873   3.985  0.0451  0.2687  2.4888
20321SOL     OW62894   1.281   7.401   4.972  0.4950 -0.3090  0.2074
20321SOL    HW162895   1.228   7.467   5.017  2.5159  1.1090  0.6095
20321SOL    HW262896   1.253   7.406   4.881 -0.6238 -0.1793  0.5405
20322SOL     OW62897   5.331   2.173   7.572  0.0149  0.1125  0.3088
20322SOL    HW162898   5.382   2.253   7.561  0.6177 -0.1639  1.0073
20322SOL    HW262899   5.253   2.201   7.620 -0.5516  0.5495 -0.8264
20323SOL     OW62900   1.667   2.765   4.914 -0.1411 -0.3371  0.1030
20323SOL    HW162901   1.628   2.739   4.830 -1.0975  1.3817 -0.0302
20323SOL    HW262902   1.596   2.757   4.977  0.4228 -1.0824  0.6501
20324SOL     OW62903   2.018   4.974   2.420  0.0044  0.4999  0.1917
20324SOL    HW162904   2.041   5.063   2.392 -0.1032  0.4128 -0.1722
20324SOL    HW262905   2.102   4.933   2.441 -0.0137  0.9881  1.2734
20325SOL     OW62906   4.037   3.705   4.187  0.4191  0.1110 -0.0229
20325SOL    HW162907   3.999   3.743   4.108 -0.1215  1.2661  0.7693
20325SOL    HW262908   3.995   3.619   4.194 -0.2248  0.3753 -0.5000
20326SOL     OW62909   7.163   4.060   8.433  0.0119  0.4548  0.4172
20326SOL    HW162910   7.102   4.019   8.494 -0.7433  1.3158  0.2524
20326SOL    HW262911   7.161   4.003   8.356 -1.2374  0.8991  0.0865
20327SOL     OW62912   0.607   7.505   2.524  0.0054  0.0254 -0.0881
20327SOL    HW162913   0.569   7.557   2.453  1.5471  0.7679 -0.4180
20327SOL    HW262914   0.661   7.567   2.573  1.0876 -1.0380  0.1271
20328SOL     OW62915   2.489   7.869   5.429  0.1896  0.2761 -0.3648
20328SOL    HW162916   2.567   7.872   5.484  0.1292  0.3606 -0.2840
20328SOL    HW262917   2.523   7.864   5.340  0.2867  0.2842 -0.3283
20329SOL     OW62918   8.647   7.755   3.308 -0.2494  0.0113  0.1207
20329SOL    HW162919   8.737   7.741   3.337 -0.0925  1.2068  0.2553
20329SOL    HW262920   8.613   7.667   3.292  1.1960 -0.4239 -0.7252
20330SOL     OW62921   4.598   0.941   6.754 -0.4762  0.6360  0.4311
20330SOL    HW162922   4.677   0.964   6.802 -0.4938  1.7152 -0.0066
20330SOL    HW262923   4.526   0.955   6.816 -0.3936  0.6269  0.5281
20331SOL     OW62924   3.465   7.806   4.703  0.3779  0.2211 -0.1141
20331SOL    HW162925   3.446   7.888   4.749  0.1835  0.1796 -0.1241
20331SOL    HW262926   3.561   7.804   4.698  0.3953  0.2736  0.1988
20332SOL     OW62927   3.989   5.007   0.824 -0.1287  0.5206  0.3111
20332SOL    HW162928   3.917   4.945   0.834  0.1429 -0.3286 -2.2033
20332SOL    HW262929   3.948   5.093   0.825 -1.3828  0.0172 -2.0104
20333SOL     OW62930   0.970   4.367   0.538  0.2703 -0.3354  0.5611
20333SOL    HW162931   1.009   4.325   0.462 -0.5929  1.5206 -0.9978
20333SOL    HW262932   1.043   4.380   0.599  1.1910 -0.9007 -0.4003
20334SOL     OW62933   7.812   5.416   4.095 -0.6106 -0.4417  0.3229
20334SOL    HW162934   7.869   5.469   4.151 -1.8263  2.0409 -0.6160
20334SOL    HW262935   7.723   5.443   4.118 -1.1762  0.1346 -2.1699
20335SOL     OW62936   1.030   4.585   1.940 -0.5461 -0.1581 -0.3045
20335SOL    HW162937   1.036   4.492   1.963 -1.1080  0.1316  1.1310
20335SOL    HW262938   0.998   4.627   2.020 -0.3824  1.2625 -0.9607
20336SOL     OW62939   4.336   8.620   3.417 -0.2858 -0.1728  0.4895
20336SOL    HW162940   4.250   8.593   3.385 -0.1994  1.1193 -0.9196
20336SOL    HW262941   4.331   8.606   3.511 -2.2198  0.3423  0.5166
20337SOL     OW62942   5.610   8.373   6.074  0.2962 -0.1026 -0.3960
20337SOL    HW162943   5.601   8.469   6.074 -0.6734 -0.1850 -0.0924
20337SOL    HW262944   5.628   8.351   5.983 -1.7486  0.1872 -0.9144
20338SOL     OW62945   3.245   8.558   1.233 -0.1891 -0.0280 -0.0498
20338SOL    HW162946   3.266   8.578   1.324 -0.8764 -0.2652  0.1626
20338SOL    HW262947   3.233   8.463   1.232  1.2715 -0.2344 -0.6872
20339SOL     OW62948   0.580   1.811   5.341 -0.3076 -0.7013  0.1444
20339SOL    HW162949   0.644   1.806   5.271 -0.6512 -0.7264 -0.1705
20339SOL    HW262950   0.602   1.892   5.388 -0.2069 -0.5725 -0.1221
20340SOL     OW62951   4.196   4.179   5.211 -0.2686 -0.1654  0.2320
20340SOL    HW162952   4.233   4.264   5.235 -0.7673  0.5794 -1.4308
20340SOL    HW262953   4.141   4.155   5.285 -0.9714  1.5035  0.3145
20341SOL     OW62954   5.591   3.159   4.455  0.4306 -0.7530  0.3915
20341SOL    HW162955   5.660   3.142   4.391  0.4035  0.3953  0.0367
20341SOL    HW262956   5.588   3.080   4.509  1.8817 -0.9011  0.2926
20342SOL     OW62957   5.041   1.615   2.078  0.2570 -0.3001 -0.2920
20342SOL    HW162958   5.117   1.560   2.096  1.4172  0.3936 -2.6771
20342SOL    HW262959   5.078   1.696   2.043 -1.5675 -0.1390 -2.0257
20343SOL     OW62960   2.803   4.090   3.109 -0.9261  0.4334  0.1930
20343SOL    HW162961   2.727   4.137   3.142 -0.9273  0.4102  0.2223
20343SOL    HW262962   2.877   4.125   3.159 -0.8100  1.0154 -0.3648
20344SOL     OW62963   8.324   1.181   8.029  0.0186 -0.1073 -0.7250
20344SOL    HW162964   8.364   1.267   8.040 -1.7364  0.5601  1.0658
20344SOL    HW262965   8.267   1.191   7.953 -1.2096  0.7841  0.2707
20345SOL     OW62966   0.434   5.172   0.364 -0.0697 -0.6740 -0.4223
20345SOL    HW162967   0.375   5.108   0.405  0.2818 -1.3903 -1.0179
20345SOL    HW262968   0.428   5.154   0.271 -0.3233  0.4839 -0.6479
20346SOL     OW62969   4.936   7.144   7.388 -0.1351 -0.4099 -0.2510
20346SOL    HW162970   4.941   7.093   7.306  0.3580 -0.4460 -0.2006
20346SOL    HW262971   4.913   7.079   7.454  0.5413 -0.5784 -0.1789
20347SOL     OW62972   4.462   6.955   0.030  0.2452  0.3240  0.8081
20347SOL    HW162973   4.503   6.905   0.100 -1.0807 -0.6452  0.9349
20347SOL    HW262974   4.463   6.896  -0.045  0.3217  0.8080  0.4203
20348SOL     OW62975   8.777   7.012   7.397 -0.5353 -0.5015  0.8624
20348SOL    HW162976   8.768   6.920   7.422 -2.3576 -0.3155  1.0273
20348SOL    HW262977   8.751   7.062   7.475  0.8635  0.1711  0.9169
20349SOL     OW62978   8.353   0.566   2.566  0.2159 -0.5645 -0.1894
20349SOL    HW162979   8.396   0.493   2.520 -1.6764 -1.5934 -0.4511
20349SOL    HW262980   8.317   0.527   2.645  0.9584  0.5784  0.7432
20350SOL     OW62981   0.723   5.423   2.233 -0.0520  0.1379 -0.0871
20350SOL    HW162982   0.796   5.482   2.250  1.4978 -0.4365 -3.7707
20350SOL    HW262983   0.672   5.468   2.165 -0.3645 -1.5703 -1.0183
20351SOL     OW62984   4.138   6.692   3.683  0.0339  0.0463  0.7669
20351SOL    HW162985   4.171   6.763   3.628  0.4244 -0.1280  0.7719
20351SOL    HW262986   4.133   6.729   3.771  1.3333 -0.2563  0.9905
20352SOL     OW62987   4.307   3.750   6.001 -0.1478 -0.1329  0.3823
20352SOL    HW162988   4.399   3.727   5.988 -0.3788 -0.7726 -0.1366
20352SOL    HW262989   4.259   3.692   5.942 -0.9570 -0.4479  1.3321
20353SOL     OW62990   8.182   7.514   2.216  0.6018  0.1746 -0.1847
20353SOL    HW162991   8.220   7.585   2.165  1.4247 -1.0505 -1.3147
20353SOL    HW262992   8.222   7.435   2.182 -1.1049 -0.9526  0.2938
20354SOL     OW62993   3.885   8.855   0.580 -0.1347 -0.0687  0.3328
20354SOL    HW162994   3.980   8.850   0.591 -0.2782 -1.2612  1.3356
20354SOL    HW262995   3.871   8.931   0.524  1.3030  1.1273  1.4999
20355SOL     OW62996   3.354   0.661   3.837 -0.5996  0.4832 -0.7961
20355SOL    HW162997   3.446   0.654   3.811 -0.3996 -0.5385  0.0870
20355SOL    HW262998   3.351   0.736   3.896 -0.2930  0.4069 -0.6842
20356SOL     OW62999   7.372   0.309   7.001  0.9826  0.0121 -0.3432
20356SOL    HW163000   7.440   0.345   6.945  2.3630  0.5776  1.6060
20356SOL    HW263001   7.408   0.226   7.032 -0.1118 -0.6948 -0.8775
20357SOL     OW63002   8.066   8.411   8.134 -0.4451 -0.2788  0.6949
20357SOL    HW163003   7.986   8.361   8.149  0.1773 -0.8359  2.3822
20357SOL    HW263004   8.091   8.444   8.220  1.0562  0.0086  0.1863
20358SOL     OW63005   0.988   2.134   4.999  0.0459 -0.2275 -0.4786
20358SOL    HW163006   0.949   2.212   5.038 -0.6938 -0.9916  0.3560
20358SOL    HW263007   0.977   2.146   4.905  0.5455  0.9675 -0.4016
20359SOL     OW63008   2.541   7.224   5.715  0.2647 -0.3744 -0.3730
20359SOL    HW163009   2.633   7.212   5.739  0.6518  0.3203 -1.4426
20359SOL    HW263010   2.514   7.137   5.683  0.0757 -0.9923  1.3690
20360SOL     OW63011   4.420   6.859   8.647 -0.0139  0.1738  0.3338
20360SOL    HW163012   4.335   6.852   8.691 -0.1238 -1.4021 -0.0889
20360SOL    HW263013   4.399   6.888   8.559 -0.0230  0.6907  0.5020
20361SOL     OW63014   8.647   5.706   6.813 -0.2985 -0.0373  0.5297
20361SOL    HW163015   8.648   5.772   6.882 -2.0639  0.8775 -0.2606
20361SOL    HW263016   8.656   5.757   6.732  1.6685 -1.0808  0.0387
20362SOL     OW63017   1.792   6.470   0.343  0.2261 -1.0610 -0.1128
20362SOL    HW163018   1.808   6.428   0.428  1.4094  2.2371  1.4786
20362SOL    HW263019   1.878   6.475   0.302  0.2677  0.3553  0.0895
20363SOL     OW63020   5.765   5.089   6.468 -0.0709 -0.5802  0.1821
20363SOL    HW163021   5.835   5.060   6.526  0.0765  0.7323  0.6890
20363SOL    HW263022   5.810   5.116   6.388  0.1256  0.9563  0.7695
20364SOL     OW63023   6.941   6.377   7.946  0.0166  0.1735 -0.6879
20364SOL    HW163024   6.922   6.415   7.860  1.1893  0.3999 -0.8689
20364SOL    HW263025   7.006   6.309   7.928 -0.4269 -0.4199 -0.0885
20365SOL     OW63026   6.582   2.447   5.555 -0.1260 -0.0874  0.0158
20365SOL    HW163027   6.599   2.356   5.577  1.7496  0.2880  0.2775
20365SOL    HW263028   6.597   2.495   5.636  0.2950  0.6005 -0.4539
20366SOL     OW63029   5.732   7.324   6.139 -0.1382  0.0549  0.6643
20366SOL    HW163030   5.713   7.357   6.227 -0.9162 -1.6454  1.1641
20366SOL    HW263031   5.818   7.283   6.147  0.2899  0.8694  0.3399
20367SOL     OW63032   2.373   6.628   6.276  0.0963 -0.3011 -0.9535
20367SOL    HW163033   2.412   6.552   6.321  0.2548  0.0550 -0.4838
20367SOL    HW263034   2.307   6.660   6.337  0.2603  0.1402 -1.0080
20368SOL     OW63035   1.880   6.327   0.576 -0.0387 -0.2213 -0.6535
20368SOL    HW163036   1.930   6.288   0.647 -0.2732 -0.3458 -0.5526
20368SOL    HW263037   1.818   6.259   0.550  0.7624 -0.5770 -1.7171
20369SOL     OW63038   6.238   6.708   5.635  0.3134 -0.3055 -0.4898
20369SOL    HW163039   6.309   6.747   5.583  0.7943 -0.7550 -0.1776
20369SOL    HW263040   6.274   6.699   5.723  0.1863 -1.3632 -0.5302
20370SOL     OW63041   3.609   6.534   4.341 -0.4218  0.3415 -0.1478
20370SOL    HW163042   3.555   6.583   4.404  0.0005  1.4215 -0.6084
20370SOL    HW263043   3.681   6.498   4.394  0.0378  1.4034 -0.0353
20371SOL     OW63044   1.150   1.049   3.926  0.8383  0.3844  0.9106
20371SOL    HW163045   1.158   1.144   3.934  0.0456  0.6023 -0.5054
20371SOL    HW263046   1.056   1.033   3.922  0.9733 -0.2115 -1.0382
20372SOL     OW63047   2.379   3.506   1.515 -0.5350 -0.2137  0.2454
20372SOL    HW163048   2.305   3.561   1.488 -0.1537  0.5647  0.7302
20372SOL    HW263049   2.376   3.431   1.456 -0.7642  0.5888 -0.7982
20373SOL     OW63050   6.245   0.418   2.459  0.4180 -0.8414  0.1384
20373SOL    HW163051   6.316   0.354   2.453  1.2313  0.0202  0.4076
20373SOL    HW263052   6.171   0.368   2.495  0.9414 -1.7007  0.0443
20374SOL     OW63053   4.164   1.089   8.028  0.0477 -0.4356 -0.0580
20374SOL    HW163054   4.254   1.099   7.999  0.4733  0.6141  1.4806
20374SOL    HW263055   4.129   1.178   8.029 -1.0139 -0.8299 -0.6133
20375SOL     OW63056   1.872   5.377   6.669 -0.0291 -0.3260 -0.2919
20375SOL    HW163057   1.913   5.438   6.608  0.1398 -0.3893 -0.2421
20375SOL    HW263058   1.798   5.426   6.706  1.1986  0.5246  1.1523
20376SOL     OW63059   0.421   4.277   5.903  0.6531  0.6100 -0.3516
20376SOL    HW163060   0.513   4.271   5.931  1.2292  1.5078 -1.8950
20376SOL    HW263061   0.419   4.230   5.819  0.3911  2.9000 -1.7158
20377SOL     OW63062   3.817   5.711   1.254  0.2743 -0.1149 -0.4113
20377SOL    HW163063   3.843   5.792   1.300  1.9505 -1.3319  0.9414
20377SOL    HW263064   3.722   5.717   1.247  0.1031  0.9221  1.8261
20378SOL     OW63065   7.791   0.543   4.041  0.0764  0.5000  0.5402
20378SOL    HW163066   7.801   0.561   3.947  0.3545  0.4512  0.5608
20378SOL    HW263067   7.699   0.565   4.059  0.1508  0.9823  0.3611
20379SOL     OW63068   4.441   3.930   4.846  0.1106  0.5413 -0.1565
20379SOL    HW163069   4.487   3.864   4.795 -1.0107 -0.8900  0.5972
20379SOL    HW263070   4.354   3.936   4.806 -0.0535  0.9849  0.2450
20380SOL     OW63071   4.485   8.832   7.499  0.3507  1.0734 -0.2350
20380SOL    HW163072   4.520   8.790   7.420  1.4760 -0.2667  0.9136
20380SOL    HW263073   4.563   8.860   7.547 -0.2669  0.9058  0.8947
20381SOL     OW63074   4.008   5.901   3.199  0.4318  0.3444 -0.4971
20381SOL    HW163075   4.054   5.982   3.220  1.1230 -0.3867  0.9581
20381SOL    HW263076   3.927   5.930   3.156  0.6513  1.7981  0.0134
20382SOL     OW63077   3.142   7.325   1.936  0.6508  0.0913 -0.6342
20382SOL    HW163078   3.193   7.260   1.984 -0.2920  0.1127  0.4318
20382SOL    HW263079   3.052   7.294   1.940 -0.2176  2.5483  1.8961
20383SOL     OW63080   7.873   1.565   4.358 -1.0350 -0.2072  0.6364
20383SOL    HW163081   7.849   1.525   4.274 -1.6096 -0.2430  0.8105
20383SOL    HW263082   7.841   1.503   4.423  2.2893 -1.8678  0.9061
20384SOL     OW63083   0.894   6.574   1.812 -0.2024  0.1995  0.3519
20384SOL    HW163084   0.911   6.598   1.721  2.6427 -2.6716 -0.0404
20384SOL    HW263085   0.844   6.493   1.806 -0.7396  0.4331  1.4182
20385SOL     OW63086   8.692   6.453   3.025  0.1857 -0.0878  0.3407
20385SOL    HW163087   8.735   6.389   3.082 -0.8914 -1.3775 -0.2427
20385SOL    HW263088   8.623   6.492   3.080  0.4892  0.1930  0.5285
20386SOL     OW63089   5.360   5.461   1.449  0.7688  0.3106 -0.3606
20386SOL    HW163090   5.279   5.448   1.399  0.4531  1.0194 -0.0428
20386SOL    HW263091   5.352   5.399   1.522  1.4273 -1.0399 -1.3858
20387SOL     OW63092   5.038   8.643   5.202  0.2757 -0.2116  0.9464
20387SOL    HW163093   5.006   8.561   5.163  0.0888  0.2928  0.0138
20387SOL    HW263094   5.133   8.637   5.194  0.3991 -1.2036  2.6864
20388SOL     OW63095   3.734   4.499   5.002  0.6668  0.3118 -0.4828
20388SOL    HW163096   3.784   4.447   4.939  0.3378  0.2082 -0.6596
20388SOL    HW263097   3.643   4.471   4.989  0.8120 -1.3578  1.5625
20389SOL     OW63098   5.138   8.274   5.371 -0.5172 -0.1772 -0.0033
20389SOL    HW163099   5.082   8.346   5.400  1.6326  1.1795  1.0400
20389SOL    HW263100   5.087   8.230   5.303 -1.7538  2.6038 -1.0201
20390SOL     OW63101   1.499   4.435   6.153 -0.2472  0.0780  0.1311
20390SOL    HW163102   1.414   4.479   6.147 -0.4891 -0.4452 -0.2502
20390SOL    HW263103   1.503   4.378   6.077 -0.3804 -1.3566  1.1575
20391SOL     OW63104   1.601   5.318   2.117 -0.0248  0.3238  0.0006
20391SOL    HW163105   1.667   5.253   2.091  0.8542  0.7992  0.9588
20391SOL    HW263106   1.622   5.396   2.066  0.4855  0.6285  0.6472
20392SOL     OW63107   7.258   2.720   1.709 -0.2020 -0.1549 -0.4976
20392SOL    HW163108   7.216   2.710   1.624  1.2687 -0.5875 -1.2027
20392SOL    HW263109   7.276   2.631   1.738  1.2252  0.0401 -0.7381
20393SOL     OW63110   2.983   7.231   1.259  0.0780 -0.4148 -0.4922
20393SOL    HW163111   3.001   7.314   1.304 -1.2685 -0.0351 -0.6346
20393SOL    HW263112   3.011   7.247   1.169 -1.1576  0.2651 -0.7748
20394SOL     OW63113   2.814   5.516   2.634  0.8461 -0.1218  0.5422
20394SOL    HW163114   2.826   5.452   2.705 -0.7243  0.4861  1.4017
20394SOL    HW263115   2.780   5.593   2.678  1.3848  0.8453 -0.6850
20395SOL     OW63116   3.587   7.671   0.963  0.1472 -0.1293  0.2165
20395SOL    HW163117   3.643   7.749   0.962 -0.1497  0.1138  1.1913
20395SOL    HW263118   3.647   7.599   0.945  0.6164  0.2248  0.3228
20396SOL     OW63119   0.348   4.593   4.460 -0.3566 -0.4078 -0.4442
20396SOL    HW163120   0.410   4.601   4.532  1.5344 -0.8700 -1.9409
20396SOL    HW263121   0.373   4.661   4.398 -0.1082 -1.7744 -1.9293
20397SOL     OW63122   2.479   4.512   5.328  0.0076  0.0284 -0.2644
20397SOL    HW163123   2.513   4.440   5.381 -0.6858 -0.7484 -0.8493
20397SOL    HW263124   2.522   4.590   5.363  0.6765 -0.6510  0.4630
20398SOL     OW63125   1.041   1.909   8.568 -0.4835 -0.2460 -0.4660
20398SOL    HW163126   1.059   1.829   8.519 -0.7298 -1.6738  1.6362
20398SOL    HW263127   1.049   1.979   8.503 -0.8437 -1.9969 -2.5167
20399SOL     OW63128   8.718   3.619   4.634  0.0682  0.3164  0.4855
20399SOL    HW163129   8.738   3.579   4.549  2.3168 -0.1380  1.1628
20399SOL    HW263130   8.670   3.551   4.682  2.2373 -0.9499  0.9570
20400SOL     OW63131   6.246   4.677   8.269  0.1618  0.3837 -1.1472
20400SOL    HW163132   6.300   4.602   8.246  1.6588  0.4809  1.5671
20400SOL    HW263133   6.304   4.732   8.323 -2.3743  0.9238  1.2256
20401SOL     OW63134   0.695   1.738   8.822 -0.4728  0.8294  0.1878
20401SOL    HW163135   0.765   1.749   8.887  0.3953 -0.7495 -0.4509
20401SOL    HW263136   0.718   1.800   8.752 -0.7314  1.6232  0.7794
20402SOL     OW63137   8.853   3.652   2.036  0.3276 -0.2467 -0.4169
20402SOL    HW163138   8.945   3.629   2.051  1.1793  1.2950 -2.7414
20402SOL    HW263139   8.827   3.696   2.117  0.9726 -2.4249  1.0583
20403SOL     OW63140   6.845   1.127   6.396  0.6452 -0.3338  0.1621
20403SOL    HW163141   6.824   1.039   6.365 -1.2306  0.1116  0.0224
20403SOL    HW263142   6.810   1.185   6.329 -0.5086  0.5565  1.4791
20404SOL     OW63143   8.632   2.080   7.869  0.3697 -0.3148 -0.6411
20404SOL    HW163144   8.671   2.009   7.818 -0.7886 -1.2290 -0.2901
20404SOL    HW263145   8.538   2.062   7.869  0.0923  0.9687 -0.1466
20405SOL     OW63146   6.256   5.007   2.520  0.0077  0.3733  0.1121
20405SOL    HW163147   6.178   5.035   2.569  0.6332 -0.1992  1.5046
20405SOL    HW263148   6.310   4.963   2.585  1.0096 -0.2108 -1.0783
20406SOL     OW63149   2.875   5.861   8.844  0.9439 -0.0514 -0.4929
20406SOL    HW163150   2.782   5.840   8.843  0.6436  1.1084 -2.5644
20406SOL    HW263151   2.907   5.822   8.926 -1.1283 -1.3191 -0.1991
20407SOL     OW63152   7.708   7.965   3.758 -0.1061  0.0860  0.0178
20407SOL    HW163153   7.758   7.884   3.751  1.0909  0.7788  0.3458
20407SOL    HW263154   7.716   7.990   3.850  0.5580  1.1990 -0.3264
20408SOL     OW63155   2.397   2.707   6.891  0.8795  0.3183  0.1819
20408SOL    HW163156   2.358   2.656   6.962  1.8718 -0.1773  0.3911
20408SOL    HW263157   2.330   2.773   6.869 -0.1218 -0.6041  0.3923
20409SOL     OW63158   5.665   0.649   1.276  0.2350  0.5401 -0.1370
20409SOL    HW163159   5.731   0.644   1.345 -1.6328  0.2009  1.6965
20409SOL    HW263160   5.627   0.562   1.272 -2.2121  1.4403  1.0854
20410SOL     OW63161   8.278   0.811   6.865  0.2984 -0.4841 -0.1731
20410SOL    HW163162   8.334   0.877   6.906  0.2035 -0.1193 -0.6152
20410SOL    HW263163   8.225   0.777   6.936  0.1811  0.0938  0.0240
20411SOL     OW63164   5.193   7.211   5.097  0.1360 -0.2027  0.2393
20411SOL    HW163165   5.135   7.138   5.121  0.6125 -0.5129  0.4767
20411SOL    HW263166   5.256   7.172   5.036  0.7388 -0.1246  0.8084
20412SOL     OW63167   7.083   5.479   4.073 -0.7177 -0.2542 -0.4889
20412SOL    HW163168   7.157   5.510   4.020  0.1322 -0.4748  0.5332
20412SOL    HW263169   7.085   5.533   4.151 -0.7592 -1.1902  0.1791
20413SOL     OW63170   4.766   4.417   8.468  0.1100  0.4561  0.4186
20413SOL    HW163171   4.766   4.513   8.469  0.8340  0.4637  1.0605
20413SOL    HW263172   4.807   4.395   8.385  1.0574  0.7264  0.7993
20414SOL     OW63173   5.218   6.178   2.893  0.1964  0.2231  0.5034
20414SOL    HW163174   5.127   6.207   2.894 -0.0002 -0.4019  0.8266
20414SOL    HW263175   5.214   6.083   2.905  0.7875 -0.0740 -1.2858
20415SOL     OW63176   4.153   0.514   0.779  0.4981 -0.3608  0.3762
20415SOL    HW163177   4.090   0.572   0.821 -2.3155 -1.5274 -1.9007
20415SOL    HW263178   4.233   0.566   0.773  0.0697  0.9816  3.9569
20416SOL     OW63179   2.336   2.900   0.201 -0.1133 -0.3390 -0.1685
20416SOL    HW163180   2.298   2.868   0.282 -1.3611  2.5765  0.5400
20416SOL    HW263181   2.265   2.895   0.137 -0.2470  0.6317 -0.1159
20417SOL     OW63182   2.093   3.909   4.460 -0.0880 -0.3002 -0.1563
20417SOL    HW163183   2.059   3.827   4.495  1.0625 -0.3542  0.9050
20417SOL    HW263184   2.019   3.947   4.413 -1.3437 -0.8545  1.2597
20418SOL     OW63185   8.366   6.152   1.564 -0.4922  0.3336  0.0249
20418SOL    HW163186   8.369   6.058   1.582 -0.7586 -0.0938 -1.9259
20418SOL    HW263187   8.399   6.160   1.475 -1.8294  1.9305 -0.3718
20419SOL     OW63188   2.477   6.343   5.246 -0.4484  0.0812 -0.7901
20419SOL    HW163189   2.454   6.405   5.315 -0.9705 -0.6522 -0.2996
20419SOL    HW263190   2.434   6.378   5.168 -1.7996 -0.3232 -0.2547
20420SOL     OW63191   6.601   8.800   7.663  0.2122 -0.4465 -0.6283
20420SOL    HW163192   6.624   8.806   7.755 -0.5552  1.9927 -0.5233
20420SOL    HW263193   6.506   8.787   7.661  0.2013 -0.3417 -1.0765
20421SOL     OW63194   6.120   4.892   8.864  0.0543  0.2710  0.2105
20421SOL    HW163195   6.178   4.912   8.790 -0.2479 -0.0786 -0.1311
20421SOL    HW263196   6.060   4.966   8.867  1.9470  1.8590  2.0785
20422SOL     OW63197   7.011   1.465   7.019 -0.2706  0.1513 -0.5877
20422SOL    HW163198   7.051   1.547   6.992 -1.2937  0.6658 -0.5681
20422SOL    HW263199   6.930   1.490   7.063 -0.6899 -0.8722 -0.7395
20423SOL     OW63200   6.161   7.453   4.159 -0.1650  0.0551 -0.5628
20423SOL    HW163201   6.179   7.372   4.112  2.4418  0.1850  0.0091
20423SOL    HW263202   6.243   7.503   4.152 -1.5921  2.5415 -0.6715
20424SOL     OW63203   0.256   2.435   3.377  0.0935  0.2757  0.1525
20424SOL    HW163204   0.167   2.405   3.359  0.2190 -0.7118  1.0636
20424SOL    HW263205   0.268   2.421   3.471  0.9267  1.1925  0.2033
20425SOL     OW63206   7.122   0.010   3.370  0.1234  0.5098  0.4012
20425SOL    HW163207   7.180  -0.055   3.329 -0.6743 -0.2822  0.4981
20425SOL    HW263208   7.162   0.028   3.455  0.0717 -0.2696  0.6000
20426SOL     OW63209   6.681   2.644   8.603 -0.3021 -0.1266 -0.1553
20426SOL    HW163210   6.764   2.601   8.584  1.3763  2.4959  0.6856
20426SOL    HW263211   6.673   2.640   8.698 -0.7736  0.2362 -0.1741
20427SOL     OW63212   5.576   5.005   0.065 -0.1343 -0.0352 -0.1568
20427SOL    HW163213   5.512   4.971   0.002  0.6895 -0.3918 -0.8101
20427SOL    HW263214   5.524   5.020   0.145 -0.5878 -2.7233  0.1532
20428SOL     OW63215   2.900   2.446   0.588 -0.0758  0.3903 -0.4512
20428SOL    HW163216   2.968   2.421   0.525  0.9744 -0.8010  1.0553
20428SOL    HW263217   2.917   2.390   0.664 -0.7286  2.3661  1.2332
20429SOL     OW63218   5.475   1.130   6.006  0.3630  0.4904  0.1136
20429SOL    HW163219   5.437   1.097   6.087 -0.6054 -0.4749 -0.7089
20429SOL    HW263220   5.550   1.072   5.990 -1.0085 -1.0293 -1.0382
20430SOL     OW63221   1.174   1.047   7.600  0.0581 -0.1424  0.2709
20430SOL    HW163222   1.148   0.981   7.664 -0.1888 -0.3591 -0.0471
20430SOL    HW263223   1.198   0.997   7.522  0.3088  0.1200  0.1766
20431SOL     OW63224   3.993   6.825   8.384 -0.5588 -0.0671 -0.6367
20431SOL    HW163225   4.022   6.784   8.466  1.1359  0.1138 -1.1016
20431SOL    HW263226   3.971   6.751   8.327 -1.8208 -0.1935 -0.0233
20432SOL     OW63227   8.314   6.040   7.928 -0.4824  0.0907 -0.1494
20432SOL    HW163228   8.305   5.995   7.844  1.9257 -0.4451 -0.1720
20432SOL    HW263229   8.255   6.115   7.920 -2.1156 -1.2242 -1.3667
20433SOL     OW63230   2.384   6.290   6.541  0.4171 -0.5155 -0.0764
20433SOL    HW163231   2.419   6.249   6.620  0.8491 -0.3305 -0.1667
20433SOL    HW263232   2.460   6.333   6.501 -0.0585  0.5548  0.1263
20434SOL     OW63233   7.988   3.991   8.676  0.0650  0.4508  0.6300
20434SOL    HW163234   7.943   3.912   8.706  0.0684 -0.0835 -0.6990
20434SOL    HW263235   7.924   4.036   8.621  0.3601  0.9124  0.6611
20435SOL     OW63236   7.880   7.852   5.714  0.0172 -0.4215 -0.0296
20435SOL    HW163237   7.928   7.921   5.759  2.1412 -0.5312 -1.9207
20435SOL    HW263238   7.878   7.779   5.775  0.4848  0.2775  0.8363
20436SOL     OW63239   5.405   2.456   1.305 -0.4963  0.2606  0.0858
20436SOL    HW163240   5.464   2.411   1.366 -1.4189 -0.9695  0.0938
20436SOL    HW263241   5.415   2.549   1.327  0.1664 -0.0621  1.2328
20437SOL     OW63242   0.635   3.313   8.764  0.0395 -0.0917  0.0037
20437SOL    HW163243   0.631   3.365   8.845  0.9444  1.6355 -0.9982
20437SOL    HW263244   0.569   3.245   8.776  0.1268  0.1364  2.1719
20438SOL     OW63245   6.414   1.349   3.352 -0.2052  0.5289  0.0972
20438SOL    HW163246   6.366   1.293   3.412  0.5378  0.0987  0.3079
20438SOL    HW263247   6.488   1.383   3.403 -0.3973  1.3606 -0.1494
20439SOL     OW63248   3.630   6.924   4.098 -0.2839 -0.2040  0.0142
20439SOL    HW163249   3.653   6.897   4.187 -0.8474  0.3520  0.3385
20439SOL    HW263250   3.591   7.010   4.109  2.6459  1.4133 -1.1091
20440SOL     OW63251   2.573   7.561   6.074 -0.6992  0.6358  0.0057
20440SOL    HW163252   2.643   7.562   6.139 -0.2873 -1.4059 -0.3178
20440SOL    HW263253   2.603   7.620   6.005 -0.1999  1.2624  0.7450
20441SOL     OW63254   2.662   7.057   0.808 -0.3272 -0.4756 -0.5759
20441SOL    HW163255   2.727   7.114   0.849 -0.6659 -1.2026  1.0727
20441SOL    HW263256   2.713   6.996   0.755  0.5048 -1.7421  1.5485
20442SOL     OW63257   2.880   5.370   3.177  0.0247 -0.2532 -0.0512
20442SOL    HW163258   2.889   5.283   3.137  0.0039  0.2558 -1.1795
20442SOL    HW263259   2.937   5.367   3.254  0.3415 -1.1250 -0.3131
20443SOL     OW63260   1.834   6.712   1.071 -0.1057  0.2345  0.1356
20443SOL    HW163261   1.873   6.694   1.156  0.3516  1.3574  0.1751
20443SOL    HW263262   1.820   6.807   1.070  0.0842  0.2664 -1.1115
20444SOL     OW63263   5.572   1.786   2.048  0.2397 -0.0274  0.5236
20444SOL    HW163264   5.570   1.866   2.101  0.2978 -0.0407  0.5465
20444SOL    HW263265   5.574   1.715   2.112  1.0235 -0.0289  0.5167
20445SOL     OW63266   6.201   8.416   5.300 -0.3146 -0.1132  0.3653
20445SOL    HW163267   6.150   8.469   5.238 -0.1431 -1.0028 -0.5703
20445SOL    HW263268   6.142   8.405   5.375 -0.4825  1.0878  0.4281
20446SOL     OW63269   4.171   0.049   8.872 -0.5563 -0.3023 -0.1489
20446SOL    HW163270   4.143   0.006   8.790  0.6830  0.3365 -0.9403
20446SOL    HW263271   4.091   0.058   8.923 -1.8507  1.4734 -2.3124
20447SOL     OW63272   0.432   1.402   2.011  0.2615 -0.5403 -0.6692
20447SOL    HW163273   0.480   1.370   2.088  1.3332  2.3636 -0.0161
20447SOL    HW263274   0.499   1.443   1.956 -0.6963 -1.4013 -2.5473
20448SOL     OW63275   2.638   4.408   1.061  0.2990 -0.7447  0.0695
20448SOL    HW163276   2.598   4.412   1.148 -1.9829  1.4464 -0.9570
20448SOL    HW263277   2.728   4.437   1.075  0.0962 -0.7994  1.7582
20449SOL     OW63278   8.252   8.287   2.124  0.0873 -0.0593  0.3663
20449SOL    HW163279   8.191   8.215   2.135 -0.1068 -0.0385 -0.5320
20449SOL    HW263280   8.338   8.246   2.121 -0.1291 -0.4690 -1.9070
20450SOL     OW63281   6.370   0.524   3.438 -0.3509 -0.5443 -0.3839
20450SOL    HW163282   6.456   0.513   3.399  0.6613  0.1085  1.5271
20450SOL    HW263283   6.388   0.549   3.529 -2.5524 -1.1438  0.2821
20451SOL     OW63284   0.961   3.535   7.187 -0.0462 -0.3446  0.0586
20451SOL    HW163285   1.038   3.569   7.233  0.1060 -1.2059  0.4595
20451SOL    HW263286   0.954   3.590   7.109 -0.0246  0.8246  0.8535
20452SOL     OW63287   8.276   7.177   2.705 -1.1907 -0.2294 -0.5179
20452SOL    HW163288   8.329   7.168   2.625 -1.8958  0.1490 -1.0294
20452SOL    HW263289   8.287   7.268   2.731  0.0211 -0.6353  0.5310
20453SOL     OW63290   3.751   5.439   0.474  0.2238 -0.2452  0.0968
20453SOL    HW163291   3.782   5.360   0.519  1.2656 -0.1592 -0.4388
20453SOL    HW263292   3.830   5.492   0.462  0.0641 -0.3946 -2.0873
20454SOL     OW63293   4.399   7.267   8.042  0.6201 -0.3479  0.1721
20454SOL    HW163294   4.422   7.274   7.949 -0.9286 -0.8290 -0.2836
20454SOL    HW263295   4.357   7.351   8.062 -1.5254 -1.2402 -0.3459
20455SOL     OW63296   4.970   7.994   5.844  0.6036 -0.0032 -0.1238
20455SOL    HW163297   4.977   7.906   5.882  0.7484  0.1231  0.1528
20455SOL    HW263298   4.965   8.052   5.920  0.6594  0.2387 -0.3026
20456SOL     OW63299   7.368   7.279   2.300  0.1160 -0.3134  0.3857
20456SOL    HW163300   7.421   7.334   2.242  0.4323 -1.0278 -0.0238
20456SOL    HW263301   7.404   7.191   2.288 -2.8616 -1.3878 -2.0282
20457SOL     OW63302   4.090   8.124   1.286  0.0630 -0.2009  0.0188
20457SOL    HW163303   4.170   8.127   1.234 -1.1367  0.7499 -1.9186
20457SOL    HW263304   4.115   8.082   1.368  2.4024 -0.3912 -0.7329
20458SOL     OW63305   8.551   2.692   2.781  0.4739  0.3036 -0.5237
20458SOL    HW163306   8.482   2.651   2.833  0.7330  0.0458 -0.3841
20458SOL    HW263307   8.633   2.665   2.823  0.7505 -0.8819 -1.7549
20459SOL     OW63308   1.592   4.740   1.128  0.0048  0.3150 -0.0702
20459SOL    HW163309   1.653   4.668   1.113  0.1063 -0.0821  1.9702
20459SOL    HW263310   1.640   4.818   1.099  0.1490 -0.3271 -1.6585
20460SOL     OW63311   5.761   2.152   5.748  0.7237 -0.2849  0.3756
20460SOL    HW163312   5.760   2.226   5.809  1.9537  0.1376 -0.0805
20460SOL    HW263313   5.674   2.151   5.710  0.7885  1.1617  0.1319
20461SOL     OW63314   5.404   1.686   8.552 -0.4126  0.0978 -0.1357
20461SOL    HW163315   5.379   1.753   8.488  0.4022 -0.9542 -1.6147
20461SOL    HW263316   5.497   1.701   8.567 -0.5754  0.2746  0.7534
20462SOL     OW63317   0.865   4.203   7.021 -0.6085  0.3297  0.4262
20462SOL    HW163318   0.895   4.139   7.085  0.4042 -1.0429 -1.3101
20462SOL    HW263319   0.931   4.273   7.023  0.3366 -0.5055 -0.2090
20463SOL     OW63320   4.577   5.664   3.677 -0.2075 -0.5491  0.3263
20463SOL    HW163321   4.562   5.583   3.726  1.6743 -0.2221  1.5306
20463SOL    HW263322   4.515   5.727   3.714 -2.0951 -1.5017 -1.0065
20464SOL     OW63323   3.785   6.468   5.364 -0.4319 -0.0722  0.1727
20464SOL    HW163324   3.828   6.385   5.387 -1.2261 -1.3027 -2.4230
20464SOL    HW263325   3.691   6.448   5.370 -0.6673  1.2375  1.3447
20465SOL     OW63326   5.660   3.122   6.535  0.2448  0.1828 -0.3599
20465SOL    HW163327   5.735   3.088   6.486  1.3299  1.5003  0.3241
20465SOL    HW263328   5.662   3.217   6.519  1.3290  0.8559  3.0316
20466SOL     OW63329   7.073   7.710   2.665 -0.4940 -0.3208  0.6854
20466SOL    HW163330   7.042   7.620   2.658 -1.1151 -0.0332 -0.4487
20466SOL    HW263331   6.995   7.764   2.652  0.1017  0.3897 -0.0851
20467SOL     OW63332   6.200   1.577   8.309  0.2903 -0.0690  0.1290
20467SOL    HW163333   6.209   1.518   8.234 -0.1230 -0.3889  0.3274
20467SOL    HW263334   6.140   1.645   8.278 -0.2877 -0.4806  0.3337
20468SOL     OW63335   3.055   0.579   8.532 -0.2291 -0.3190  0.2552
20468SOL    HW163336   3.020   0.651   8.585  0.4828  0.4328 -0.2755
20468SOL    HW263337   3.148   0.579   8.552  0.3480  0.9895 -2.1327
20469SOL     OW63338   3.960   1.514   7.684 -0.1418  0.2458 -0.2915
20469SOL    HW163339   3.903   1.562   7.744  0.9279  2.9344 -1.2516
20469SOL    HW263340   3.901   1.478   7.618 -0.8848  1.7555 -0.4817
20470SOL     OW63341   1.319   4.073   0.307 -0.0751 -0.1114 -0.4851
20470SOL    HW163342   1.322   4.064   0.403 -1.1611  0.4333 -0.3859
20470SOL    HW263343   1.411   4.068   0.280  0.2479 -0.2553  0.5886
20471SOL     OW63344   0.989   2.046   7.664 -0.5242 -0.0803  0.5011
20471SOL    HW163345   0.906   2.049   7.711 -0.2520  0.6191  0.9487
20471SOL    HW263346   0.983   2.116   7.599 -1.7054 -2.2767 -1.9570
20472SOL     OW63347   4.985   8.533   2.146 -0.5378  0.2952  0.2144
20472SOL    HW163348   4.899   8.491   2.137  0.7712 -2.4389 -0.7910
20472SOL    HW263349   5.019   8.498   2.229  0.8794 -1.3899 -0.9968
20473SOL     OW63350   6.533   1.513   0.913 -0.3479 -0.4819 -0.0674
20473SOL    HW163351   6.478   1.437   0.932 -0.5939  0.3622  3.1336
20473SOL    HW263352   6.529   1.566   0.992  2.3925  1.3091 -0.9847
20474SOL     OW63353   0.464   2.986   7.843 -0.0166 -0.0786 -0.1573
20474SOL    HW163354   0.443   3.078   7.827 -0.1849 -0.0843  0.0358
20474SOL    HW263355   0.549   2.988   7.887 -0.4789  0.0328  0.7395
20475SOL     OW63356   5.075   6.040   1.776 -0.0775  0.0129  0.1632
20475SOL    HW163357   5.098   6.003   1.690  0.6287 -0.3688  0.5006
20475SOL    HW263358   5.064   6.134   1.760  0.4252  0.0010 -0.2788
20476SOL     OW63359   4.262   3.225   8.364  0.4113 -0.2614 -0.3489
20476SOL    HW163360   4.216   3.301   8.399  0.5083 -0.7873  0.9811
20476SOL    HW263361   4.193   3.171   8.324 -0.0304 -0.5950  0.8092
20477SOL     OW63362   0.019   2.985   6.108 -0.1177  0.2735 -0.3810
20477SOL    HW163363   0.093   3.006   6.165 -1.2928 -0.2344  1.4249
20477SOL    HW263364  -0.047   2.949   6.167 -1.2740 -0.6506 -2.1478
20478SOL     OW63365   5.140   3.867   0.020  0.1207 -0.0422  0.1829
20478SOL    HW163366   5.096   3.787  -0.009  1.5611 -0.3055 -1.4366
20478SOL    HW263367   5.115   3.933  -0.045 -0.3648  0.6392  1.0292
20479SOL     OW63368   0.424   1.375   3.911  0.9298  0.8732  0.2645
20479SOL    HW163369   0.395   1.448   3.966 -0.3005 -0.4847  1.4836
20479SOL    HW263370   0.394   1.398   3.823 -1.0599  1.0240  0.9400
20480SOL     OW63371   0.318   0.319   2.852  0.3826 -0.7278 -0.1396
20480SOL    HW163372   0.398   0.329   2.902  0.4409  2.6323 -0.6775
20480SOL    HW263373   0.266   0.397   2.873 -1.5569 -1.4503 -1.8474
20481SOL     OW63374   4.847   8.788   1.292  0.4001 -0.2399  0.0365
20481SOL    HW163375   4.801   8.823   1.368  1.7079 -0.2908  0.8898
20481SOL    HW263376   4.930   8.836   1.291 -0.4284  1.3150 -2.6474
20482SOL     OW63377   8.437   0.175   0.377 -0.0088 -0.0647  0.4124
20482SOL    HW163378   8.500   0.248   0.378  2.0922 -1.5869 -2.9599
20482SOL    HW263379   8.491   0.096   0.375 -1.8598 -1.4548 -2.8813
20483SOL     OW63380   4.860   0.776   7.926  0.4025 -0.0101  0.3010
20483SOL    HW163381   4.842   0.718   7.851 -1.3631 -0.7830  1.2540
20483SOL    HW263382   4.930   0.833   7.896  0.5883 -1.1112 -1.5139
20484SOL     OW63383   2.478   0.789   6.040 -0.4379  0.0935 -0.4085
20484SOL    HW163384   2.497   0.775   6.132  1.1244 -0.6967 -0.7990
20484SOL    HW263385   2.408   0.727   6.019  1.5095 -2.2402 -0.4670
20485SOL     OW63386   8.525   3.614   8.582  0.2475 -0.3809  0.3703
20485SOL    HW163387   8.527   3.629   8.488  0.3052 -1.6353  0.1629
20485SOL    HW263388   8.604   3.565   8.601  1.7279  2.2243  1.5409
20486SOL     OW63389   3.465   0.738   5.592 -0.0056  0.0678  0.3744
20486SOL    HW163390   3.438   0.675   5.658  0.2158  1.0096  1.3869
20486SOL    HW263391   3.560   0.725   5.584 -0.0266 -0.0211  0.2692
20487SOL     OW63392   7.040   6.755   7.295 -0.8309  0.1966  0.0664
20487SOL    HW163393   7.060   6.760   7.388 -0.5791  0.0229  0.0219
20487SOL    HW263394   7.045   6.662   7.273 -2.1264  0.0844  0.1459
20488SOL     OW63395   7.119   0.601   4.303 -0.0858 -0.2850  0.2263
20488SOL    HW163396   7.076   0.637   4.381 -0.8293  0.6179 -0.5922
20488SOL    HW263397   7.048   0.580   4.243  0.3108 -2.9127  0.5312
20489SOL     OW63398   3.573   2.885   4.815  0.1804  0.0592 -0.1190
20489SOL    HW163399   3.569   2.820   4.885 -0.0041 -1.6129 -1.5969
20489SOL    HW263400   3.482   2.909   4.799  0.2013  0.2569  0.0682
20490SOL     OW63401   2.443   8.745   1.772  0.4138 -0.0247 -0.5275
20490SOL    HW163402   2.369   8.805   1.785 -1.7268 -2.7383  0.7939
20490SOL    HW263403   2.402   8.661   1.751  3.2118 -1.4495 -0.7170
20491SOL     OW63404   8.730   0.119   0.979  0.0436 -0.1202  0.5679
20491SOL    HW163405   8.673   0.097   1.052 -1.4478 -0.5428 -0.6755
20491SOL    HW263406   8.678   0.099   0.901  1.5853  0.3044 -0.6146
20492SOL     OW63407   8.831   3.579   8.610 -0.0634 -0.0802  1.2780
20492SOL    HW163408   8.834   3.515   8.539 -1.8031  0.1921  0.9011
20492SOL    HW263409   8.871   3.658   8.572  2.8001 -1.0611  1.9955
20493SOL     OW63410   8.078   1.497   1.920 -0.2510 -0.1953 -0.2427
20493SOL    HW163411   7.986   1.520   1.930 -0.2524 -0.9713  2.5593
20493SOL    HW263412   8.115   1.508   2.008  2.3180 -0.0653 -1.2374
20494SOL     OW63413   3.772   3.085   5.939 -0.8279  0.3808  0.7729
20494SOL    HW163414   3.714   3.143   5.890 -0.8169  0.9714  1.4499
20494SOL    HW263415   3.732   3.079   6.026  0.4735  1.3518  1.4716
20495SOL     OW63416   5.819   6.754   6.820  0.2014 -0.1996 -0.0433
20495SOL    HW163417   5.806   6.833   6.872  1.8532 -0.0353  0.1785
20495SOL    HW263418   5.731   6.722   6.801 -0.5061  1.8685 -0.4272
20496SOL     OW63419   2.274   7.032   2.063 -0.7429  0.2847  0.3808
20496SOL    HW163420   2.238   7.080   1.988 -1.1591 -1.3226 -0.4939
20496SOL    HW263421   2.197   6.993   2.104 -0.2584 -1.0401  0.0471
20497SOL     OW63422   0.459   5.923   6.535  0.2428 -0.3413 -0.0698
20497SOL    HW163423   0.425   5.945   6.621 -1.9471  0.5364 -1.0795
20497SOL    HW263424   0.393   5.957   6.474  2.5565  0.6566 -2.1731
20498SOL     OW63425   7.069   8.602   6.896 -0.4196 -0.1756 -0.4953
20498SOL    HW163426   7.094   8.693   6.911 -0.3973  0.1227 -2.1532
20498SOL    HW263427   7.148   8.551   6.914  0.5837  0.4757 -2.8145
20499SOL     OW63428   8.241   0.444   7.521  0.2893  0.0005  0.4675
20499SOL    HW163429   8.279   0.367   7.563  0.5388 -0.5483 -0.7100
20499SOL    HW263430   8.261   0.516   7.581  0.7498 -0.7210  1.2070
20500SOL     OW63431   4.973   4.616   3.657  0.0204  0.9605  0.1241
20500SOL    HW163432   5.007   4.562   3.729 -0.4843  0.5527  0.0643
20500SOL    HW263433   5.048   4.629   3.600  0.6956  2.1752  1.2429
20501SOL     OW63434   7.346   3.839   8.638  0.3975 -0.5451 -0.0055
20501SOL    HW163435   7.271   3.789   8.671 -0.2695  1.3179  1.4716
20501SOL    HW263436   7.404   3.850   8.713  1.3326 -0.4812 -0.7100
20502SOL     OW63437   5.805   5.427   8.445 -0.3014  0.1139 -0.8105
20502SOL    HW163438   5.814   5.511   8.491  0.0277  0.1233 -0.8861
20502SOL    HW263439   5.890   5.414   8.403  0.0791 -0.8512  0.2049
20503SOL     OW63440   3.785   2.208   3.042 -0.1831  0.2403  0.1146
20503SOL    HW163441   3.804   2.279   2.981 -2.0565  0.3723 -0.3719
20503SOL    HW263442   3.844   2.137   3.015 -0.1108  0.7265 -1.0474
20504SOL     OW63443   4.696   7.580   3.857  0.0268  0.3173 -0.1072
20504SOL    HW163444   4.698   7.498   3.807 -0.1220 -0.1529  0.6438
20504SOL    HW263445   4.695   7.552   3.948 -1.2596  1.1358  0.1485
20505SOL     OW63446   7.266   6.252   1.866 -0.1370 -0.2414  0.4514
20505SOL    HW163447   7.214   6.298   1.933  0.1038 -0.4617  0.7955
20505SOL    HW263448   7.201   6.199   1.819 -0.1417 -1.0255  1.3144
20506SOL     OW63449   6.923   3.540   5.566  0.0320  0.4820  0.2695
20506SOL    HW163450   6.881   3.626   5.572  0.8902  0.9553 -0.2605
20506SOL    HW263451   6.851   3.478   5.567 -0.5597  1.1258  1.8883
20507SOL     OW63452   0.995   2.959   4.216  0.0993  0.2631  0.9149
20507SOL    HW163453   1.003   2.937   4.123  2.6063  0.6423  0.9848
20507SOL    HW263454   0.985   2.874   4.259  1.4730 -0.1388  0.4868
20508SOL     OW63455   0.013   4.337   8.744 -0.1228  0.1383 -0.2432
20508SOL    HW163456   0.039   4.406   8.804  1.6560 -0.3098 -0.4480
20508SOL    HW263457   0.057   4.258   8.777 -0.3300 -0.4212 -1.2614
20509SOL     OW63458   5.095   5.226   1.969  0.4782 -0.3043  0.3177
20509SOL    HW163459   5.145   5.307   1.970  1.7988 -1.0836  0.8938
20509SOL    HW263460   5.005   5.253   1.955  0.7579  1.3311  1.4468
20510SOL     OW63461   0.488   1.688   2.072 -0.0469  0.0884 -0.1380
20510SOL    HW163462   0.555   1.680   2.004  1.0566 -1.2994  1.0396
20510SOL    HW263463   0.461   1.598   2.090  0.7243  0.2699  2.2140
20511SOL     OW63464   5.284   5.838   0.409  0.6519 -0.3000 -0.8682
20511SOL    HW163465   5.270   5.887   0.489 -0.4505  1.2647 -1.9516
20511SOL    HW263466   5.292   5.747   0.437  1.4730  0.3373  1.0933
20512SOL     OW63467   4.696   1.774   4.524  1.1432 -0.1640 -0.5042
20512SOL    HW163468   4.684   1.781   4.430  1.1237  0.2537 -0.4729
20512SOL    HW263469   4.734   1.687   4.537 -0.7574 -1.0685 -0.6904
20513SOL     OW63470   5.826   3.074   1.261  0.3738  0.3660  0.2902
20513SOL    HW163471   5.840   3.020   1.338 -0.6318 -2.6671 -1.4816
20513SOL    HW263472   5.808   3.161   1.295  3.9804  0.1723  3.2577
20514SOL     OW63473   6.273   0.819   6.008 -0.1935 -0.4024 -0.4993
20514SOL    HW163474   6.190   0.851   5.971 -0.4586 -1.0870 -0.4989
20514SOL    HW263475   6.257   0.815   6.102 -0.0312 -0.1568 -0.4620
20515SOL     OW63476   2.040   6.871   1.273 -0.2391 -0.1165  0.4466
20515SOL    HW163477   2.114   6.832   1.320 -0.3413  1.6023  2.1284
20515SOL    HW263478   1.966   6.860   1.332 -1.3378 -1.5366 -1.0888
20516SOL     OW63479   0.249   3.471   0.934  0.2011 -0.2683 -0.7308
20516SOL    HW163480   0.227   3.382   0.961  1.8721 -0.3448  0.5718
20516SOL    HW263481   0.208   3.527   1.001  0.5584 -0.1792 -0.5814
20517SOL     OW63482   7.398   4.722   7.911  0.2629 -0.6269  0.2924
20517SOL    HW163483   7.381   4.763   7.996  0.6242 -2.1816  1.1537
20517SOL    HW263484   7.349   4.776   7.848 -0.4827  0.2160  1.5483
20518SOL     OW63485   5.013   8.275   0.034 -0.2036  0.2320 -0.2045
20518SOL    HW163486   5.095   8.265   0.082 -1.1022  0.7055  1.4923
20518SOL    HW263487   5.025   8.223  -0.045  1.2414 -0.7806  0.6427
20519SOL     OW63488   1.713   4.135   8.771 -0.4298  0.0965 -0.3371
20519SOL    HW163489   1.747   4.127   8.860  0.7844 -0.5196 -0.8308
20519SOL    HW263490   1.736   4.053   8.728  1.4039  1.3702 -1.9716
20520SOL     OW63491   7.187   2.031   0.469 -0.2134  0.3833  0.1590
20520SOL    HW163492   7.155   2.085   0.541 -2.1321 -1.1879  0.5823
20520SOL    HW263493   7.108   1.994   0.429  0.9021 -0.3849 -1.4829
20521SOL     OW63494   0.054   7.789   7.516 -0.2886  0.5914  0.5321
20521SOL    HW163495  -0.010   7.859   7.500  0.7867  1.2073 -1.4029
20521SOL    HW263496   0.018   7.712   7.472 -0.1675  0.6715  0.2928
20522SOL     OW63497   8.724   3.792   2.248  1.0065  0.8521  0.2773
20522SOL    HW163498   8.679   3.868   2.213  1.6352  0.1863 -2.2137
20522SOL    HW263499   8.697   3.788   2.340 -1.6452  2.1334 -0.3392
20523SOL     OW63500   1.616   4.718   7.710 -1.0151  0.0068 -0.2592
20523SOL    HW163501   1.528   4.690   7.686 -2.4480  0.9351  3.2344
20523SOL    HW263502   1.604   4.803   7.753  1.7169  0.5854 -0.4142
20524SOL     OW63503   1.855   3.650   7.291  0.4798  0.0840 -0.2460
20524SOL    HW163504   1.762   3.631   7.307  0.5551 -0.3510 -0.3212
20524SOL    HW263505   1.900   3.568   7.313  0.9369  0.5590  0.6300
20525SOL     OW63506   6.117   0.119   5.132 -0.3058 -0.3406  0.4601
20525SOL    HW163507   6.129   0.154   5.220 -0.2119  0.2393  0.2248
20525SOL    HW263508   6.163   0.035   5.132 -2.3192 -1.5219  1.6716
20526SOL     OW63509   1.637   4.569   2.687  0.2504 -0.4784  0.0168
20526SOL    HW163510   1.670   4.532   2.769  0.0777  0.0907  0.3560
20526SOL    HW263511   1.542   4.575   2.700  0.0097 -1.9484 -0.8859
20527SOL     OW63512   8.186   4.592   0.551 -0.0020 -0.0716 -0.0773
20527SOL    HW163513   8.270   4.632   0.529 -1.4882  1.6410 -3.5234
20527SOL    HW263514   8.188   4.506   0.509 -0.4279  0.5725 -1.4900
20528SOL     OW63515   3.786   2.916   2.845  0.1144 -0.0042  0.1448
20528SOL    HW163516   3.836   2.963   2.912 -0.1309 -0.5933  0.7562
20528SOL    HW263517   3.698   2.910   2.882 -0.0539 -0.2245 -0.2931
20529SOL     OW63518   6.860   8.486   1.532 -0.8461  0.2059  0.4914
20529SOL    HW163519   6.917   8.561   1.549  0.4795 -1.0967  2.2518
20529SOL    HW263520   6.782   8.502   1.585 -1.1438  0.9486 -0.1665
20530SOL     OW63521   3.792   2.715   6.041  0.1616 -0.4638  0.4020
20530SOL    HW163522   3.712   2.723   6.094  0.5343 -0.6302  1.0107
20530SOL    HW263523   3.768   2.750   5.956  0.0787  1.6073  1.2180
20531SOL     OW63524   7.168   7.894   4.373  0.7908  0.1893  0.0493
20531SOL    HW163525   7.094   7.913   4.430 -0.1291  0.6782 -1.2785
20531SOL    HW263526   7.224   7.836   4.426  1.2314  2.5320  2.3794
20532SOL     OW63527   6.257   3.218   7.287 -0.2412 -0.2877 -0.0428
20532SOL    HW163528   6.202   3.169   7.225 -1.6657  0.9590  0.1884
20532SOL    HW263529   6.195   3.259   7.347  0.9354  1.2598  0.1804
20533SOL     OW63530   4.055   0.956   3.256  0.1613 -0.3372  0.2819
20533SOL    HW163531   4.148   0.963   3.233  0.1832  1.3700  0.7562
20533SOL    HW263532   4.050   0.880   3.314  0.9638 -1.4634 -1.0378
20534SOL     OW63533   5.920   6.241   8.470  0.0714 -0.2630 -0.1280
20534SOL    HW163534   5.905   6.302   8.397  1.2141  1.8140  1.2829
20534SOL    HW263535   5.847   6.257   8.530 -0.9637 -2.0941 -0.8264
20535SOL     OW63536   1.551   8.174   7.500  0.0585 -0.1524 -0.4266
20535SOL    HW163537   1.512   8.228   7.431  1.3842  1.7356  0.2207
20535SOL    HW263538   1.491   8.100   7.509 -1.2862  0.6518 -2.0970
20536SOL     OW63539   3.162   4.555   5.632 -0.6060  0.1345 -0.1404
20536SOL    HW163540   3.191   4.573   5.542  0.7707  2.8314  0.7410
20536SOL    HW263541   3.242   4.528   5.678 -1.4148 -1.8625  0.2082
20537SOL     OW63542   8.257   5.089   1.227  0.1142  0.2674 -0.7557
20537SOL    HW163543   8.343   5.115   1.193  0.6395  0.2938  0.5546
20537SOL    HW263544   8.267   4.996   1.248 -0.7545 -0.2208 -2.2869
20538SOL     OW63545   3.854   4.422   4.184 -0.3657 -0.2769 -0.5015
20538SOL    HW163546   3.879   4.490   4.247  0.6444 -1.5388  0.5326
20538SOL    HW263547   3.879   4.340   4.227 -1.8440 -1.3312 -1.5705
20539SOL     OW63548   6.019   2.843   8.470  0.0613  0.5665 -0.2665
20539SOL    HW163549   5.975   2.921   8.505  0.2109  0.5818 -0.1130
20539SOL    HW263550   6.005   2.849   8.375 -1.3111 -0.0638 -0.1275
20540SOL     OW63551   7.316   3.129   7.701  0.9039 -0.4336  0.3286
20540SOL    HW163552   7.384   3.116   7.767  0.6992 -1.1356  0.4112
20540SOL    HW263553   7.331   3.060   7.637 -0.7108 -1.6341  1.1841
20541SOL     OW63554   6.418   5.345   4.806 -0.5327 -0.1423 -0.2214
20541SOL    HW163555   6.481   5.284   4.847 -0.2194  1.3979  1.7237
20541SOL    HW263556   6.458   5.431   4.816 -2.7676  0.8501  0.7195
20542SOL     OW63557   5.413   5.789   2.967  0.1649  0.6406 -0.3344
20542SOL    HW163558   5.391   5.751   3.052 -0.4385  0.5797 -0.5175
20542SOL    HW263559   5.331   5.824   2.934 -0.3429 -2.1037 -2.3168
20543SOL     OW63560   4.977   7.612   6.200  0.5651 -0.6550  0.4986
20543SOL    HW163561   4.971   7.567   6.116  0.7145 -1.4075  0.8885
20543SOL    HW263562   5.056   7.577   6.241  0.1616 -0.7430  1.2139
20544SOL     OW63563   5.188   4.231   8.390 -0.0441 -0.1999 -0.5567
20544SOL    HW163564   5.117   4.256   8.449 -0.1764  1.4483 -1.3586
20544SOL    HW263565   5.249   4.183   8.445 -0.5367  0.6159  0.7486
20545SOL     OW63566   5.483   6.328   7.621  0.0144 -0.0289  0.2442
20545SOL    HW163567   5.564   6.282   7.642 -0.4332 -0.4102  1.1722
20545SOL    HW263568   5.486   6.339   7.526  1.9453  1.4762  0.4244
20546SOL     OW63569   2.912   2.999   6.914 -0.4138  0.7222 -0.6361
20546SOL    HW163570   2.899   2.905   6.900  0.6006  0.2544  1.2739
20546SOL    HW263571   3.006   3.012   6.902 -0.1937  1.0607  1.2029
20547SOL     OW63572   4.336   3.179   4.156  0.2699  0.2223 -0.1492
20547SOL    HW163573   4.362   3.106   4.101 -0.6764  0.9806 -1.6865
20547SOL    HW263574   4.366   3.257   4.109 -1.8025  0.9595 -0.3765
20548SOL     OW63575   2.720   8.423   0.623  0.2267 -0.1572 -1.0594
20548SOL    HW163576   2.776   8.430   0.700  1.0258 -0.7105 -1.5710
20548SOL    HW263577   2.710   8.329   0.609  0.7659 -0.0791 -2.0860
20549SOL     OW63578   4.441   2.151   6.730  0.5492 -0.4898 -0.0018
20549SOL    HW163579   4.524   2.122   6.767  0.8538 -0.2305 -0.4655
20549SOL    HW263580   4.464   2.186   6.644 -0.0413 -0.4166 -0.1371
20550SOL     OW63581   7.201   2.257   8.116 -0.1573 -0.1607 -0.0082
20550SOL    HW163582   7.132   2.210   8.070  0.0539  0.8720 -1.4503
20550SOL    HW263583   7.272   2.265   8.052  0.7297  0.0707  0.9664
20551SOL     OW63584   2.418   8.446   8.520 -0.0696 -0.1019 -0.3052
20551SOL    HW163585   2.506   8.411   8.510  0.1139 -0.0330  0.9373
20551SOL    HW263586   2.360   8.377   8.488  0.3111 -1.3659  1.5415
20552SOL     OW63587   0.632   8.383   0.586  0.3834 -0.2944  0.0585
20552SOL    HW163588   0.580   8.328   0.527  1.2727 -0.4235 -0.6363
20552SOL    HW263589   0.668   8.452   0.529  1.1970 -0.3790  0.4519
20553SOL     OW63590   5.208   7.653   2.920  0.0476 -0.2190  0.4255
20553SOL    HW163591   5.241   7.717   2.858  0.7888 -0.5740  0.4427
20553SOL    HW263592   5.144   7.701   2.972 -3.1597 -0.6826 -2.7256
20554SOL     OW63593   6.106   4.412   1.460 -0.4805  0.2663 -0.4230
20554SOL    HW163594   6.153   4.481   1.506  0.6902 -1.2302  0.7063
20554SOL    HW263595   6.132   4.423   1.368  2.9499 -1.0238  0.2232
20555SOL     OW63596   3.862   8.517   0.665 -0.2776 -0.4411 -0.0030
20555SOL    HW163597   3.906   8.595   0.634  0.1721 -0.5583  0.3321
20555SOL    HW263598   3.922   8.479   0.730 -0.6638 -0.8462  0.1257
20556SOL     OW63599   4.686   4.650   0.366  0.4786  0.5065  0.4119
20556SOL    HW163600   4.616   4.591   0.339  2.0927 -1.4366  0.2298
20556SOL    HW263601   4.647   4.737   0.362 -1.3060 -0.2985 -1.7308
20557SOL     OW63602   0.494   2.132   0.783  0.0630 -0.1714 -0.4221
20557SOL    HW163603   0.441   2.195   0.734 -1.7169  0.9512  2.6893
20557SOL    HW263604   0.521   2.179   0.862  0.8121 -2.5553  0.8346
20558SOL     OW63605   3.087   4.877   4.906 -0.1116  0.2649  0.9311
20558SOL    HW163606   3.058   4.808   4.966  1.6296 -0.7496  0.6707
20558SOL    HW263607   3.144   4.932   4.960  3.7935 -2.2309 -0.2393
20559SOL     OW63608   1.541   5.554   0.256  0.1630 -0.0037  0.9616
20559SOL    HW163609   1.486   5.610   0.312 -0.2051 -0.1139  0.7160
20559SOL    HW263610   1.478   5.509   0.199  0.6286  1.4337 -0.7707
20560SOL     OW63611   3.433   1.927   1.970  0.1793  0.3759  0.5296
20560SOL    HW163612   3.457   1.948   1.880  1.1842 -1.6290  0.2756
20560SOL    HW263613   3.346   1.887   1.963  0.5540 -0.4174  0.3508
20561SOL     OW63614   7.032   2.367   6.578  0.0474  0.6032  0.1289
20561SOL    HW163615   7.020   2.424   6.654 -0.5423 -0.3037  0.7341
20561SOL    HW263616   7.103   2.409   6.528  0.3216  1.3105  1.0738
20562SOL     OW63617   5.001   1.802   0.985 -0.4888  0.6053 -0.2109
20562SOL    HW163618   5.013   1.895   0.963  0.9584  0.1957 -1.3009
20562SOL    HW263619   5.019   1.756   0.903 -0.4197 -0.6897  0.5120
20563SOL     OW63620   8.199   5.377   8.693  0.3459  0.1583 -0.6589
20563SOL    HW163621   8.282   5.345   8.727 -0.2759  0.7664  1.6018
20563SOL    HW263622   8.156   5.299   8.658  1.3637 -0.3673 -0.7849
20564SOL     OW63623   3.764   7.727   3.156  0.1978  0.1203  0.4803
20564SOL    HW163624   3.855   7.723   3.183  0.7077 -3.4505 -1.1917
20564SOL    HW263625   3.729   7.641   3.178 -1.6333 -0.0149 -2.4907
20565SOL     OW63626   7.275   7.339   0.194 -0.2161  0.5876 -0.1897
20565SOL    HW163627   7.227   7.422   0.189  0.2685  0.8893  0.0060
20565SOL    HW263628   7.287   7.324   0.287 -1.3509 -0.3315 -0.1865
20566SOL     OW63629   0.413   4.768   0.877  0.2869 -0.4516  0.0465
20566SOL    HW163630   0.419   4.808   0.791 -0.9396  1.7513  0.8834
20566SOL    HW263631   0.503   4.748   0.901  0.9712  1.6090 -0.5926
20567SOL     OW63632   4.552   1.931   4.045 -0.0601 -0.5471  0.1857
20567SOL    HW163633   4.525   1.999   4.106 -0.2684 -0.1903 -0.2967
20567SOL    HW263634   4.525   1.964   3.959 -1.3991 -1.8370  0.0748
20568SOL     OW63635   6.823   0.112   5.696  0.1883  0.0604 -0.3755
20568SOL    HW163636   6.728   0.123   5.709  0.3111  1.1505 -0.3799
20568SOL    HW263637   6.842   0.028   5.738 -0.7769 -0.1599 -0.3492
20569SOL     OW63638   1.795   3.912   5.310  0.0354  0.1774  0.4942
20569SOL    HW163639   1.768   3.858   5.236  1.7064 -1.4618  1.0144
20569SOL    HW263640   1.770   3.862   5.388 -1.1457  1.6026  1.1022
20570SOL     OW63641   6.229   7.648   3.834 -0.0080 -0.2644  0.1107
20570SOL    HW163642   6.260   7.676   3.920  1.0320  0.3050 -0.4338
20570SOL    HW263643   6.229   7.728   3.782 -0.7160 -0.5903 -0.4087
20571SOL     OW63644   3.689   3.159   0.085 -0.1583 -0.0057 -0.6008
20571SOL    HW163645   3.649   3.149   0.172 -0.4978  0.3325 -0.7145
20571SOL    HW263646   3.768   3.211   0.100 -0.3699  0.2999 -0.5306
20572SOL     OW63647   4.681   2.652   1.876  0.1022  0.5121 -0.7282
20572SOL    HW163648   4.695   2.640   1.970 -1.1988  3.2234 -0.0653
20572SOL    HW263649   4.640   2.571   1.847 -2.4305  0.7082  1.8034
20573SOL     OW63650   3.899   6.263   3.356 -0.0815  0.5563 -0.1004
20573SOL    HW163651   3.912   6.343   3.303 -1.0574  2.3603  2.2004
20573SOL    HW263652   3.985   6.221   3.358  1.2800  3.1626  0.9914
20574SOL     OW63653   7.262   1.280   7.704  0.1712  0.0513  0.2111
20574SOL    HW163654   7.211   1.218   7.652  1.6769  0.2784 -1.6461
20574SOL    HW263655   7.307   1.225   7.769 -0.7358 -0.4183  0.4555
20575SOL     OW63656   1.199   3.484   5.059 -0.1659 -0.0865  0.8257
20575SOL    HW163657   1.166   3.469   4.970 -0.1661 -0.6356  0.9122
20575SOL    HW263658   1.194   3.398   5.101  0.9379 -0.0828  0.9896
20576SOL     OW63659   5.176   7.504   2.088  0.3779 -0.6689 -0.1935
20576SOL    HW163660   5.095   7.456   2.106 -0.5010  1.0893  0.7254
20576SOL    HW263661   5.246   7.444   2.115 -0.5417 -2.4782 -1.6236
20577SOL     OW63662   5.070   5.593   0.500  0.4161  0.2581 -0.3029
20577SOL    HW163663   5.164   5.587   0.479  0.6810 -1.6154  1.1515
20577SOL    HW263664   5.068   5.613   0.594 -0.6890  1.5584 -0.5680
20578SOL     OW63665   2.262   2.811   0.475 -0.0958  0.0087  0.3600
20578SOL    HW163666   2.211   2.862   0.539  0.1520 -0.1372  0.6773
20578SOL    HW263667   2.349   2.851   0.477 -0.0054 -0.1891  0.3364
20579SOL     OW63668   1.199   5.469   1.174 -0.2434 -0.8177 -0.3396
20579SOL    HW163669   1.179   5.386   1.130  0.7501 -0.3954 -1.6430
20579SOL    HW263670   1.115   5.514   1.180 -0.4281 -0.9466 -1.7112
20580SOL     OW63671   2.990   2.057   1.760  0.5315  0.0764  0.0461
20580SOL    HW163672   2.915   2.085   1.813 -0.4872 -0.5578 -1.0165
20580SOL    HW263673   3.065   2.097   1.802 -0.0702 -1.3751  2.7179
20581SOL     OW63674   5.455   3.664   8.035  0.4690 -0.1614 -0.6445
20581SOL    HW163675   5.415   3.703   8.113 -0.1221 -1.0409 -0.5053
20581SOL    HW263676   5.538   3.629   8.067 -0.1048 -1.1816 -0.2346
20582SOL     OW63677   0.372   1.516   2.706 -0.3430  0.0406 -0.0944
20582SOL    HW163678   0.380   1.422   2.723 -0.4151 -0.1381 -0.9829
20582SOL    HW263679   0.373   1.557   2.793  0.5647 -0.7100  0.2601
20583SOL     OW63680   5.579   6.854   7.846  0.4737  0.6022 -0.0995
20583SOL    HW163681   5.541   6.786   7.790  0.1266  0.2331  0.5673
20583SOL    HW263682   5.516   6.926   7.843  1.0281  1.0529 -1.1114
20584SOL     OW63683   3.693   4.309   7.583 -0.1781 -0.0017  0.1423
20584SOL    HW163684   3.653   4.293   7.668  0.1439  1.4151  0.5864
20584SOL    HW263685   3.783   4.334   7.603  0.0191 -0.0599 -0.6445
20585SOL     OW63686   2.244   2.713   5.165  0.4535 -0.2676 -0.0618
20585SOL    HW163687   2.166   2.706   5.110 -0.6066  1.7902  1.0547
20585SOL    HW263688   2.216   2.682   5.251  1.1516 -0.4304  0.1187
20586SOL     OW63689   5.905   8.685   7.400  0.5048  0.2110 -0.2860
20586SOL    HW163690   5.965   8.759   7.407 -0.3862  0.8918  0.4605
20586SOL    HW263691   5.832   8.708   7.457  0.4109 -1.4690  0.3286
20587SOL     OW63692   0.680   4.190   7.593  0.6665  0.3207 -0.4614
20587SOL    HW163693   0.691   4.184   7.498 -1.3243 -0.3673 -0.6980
20587SOL    HW263694   0.753   4.140   7.629  0.6535 -0.6093 -1.6788
20588SOL     OW63695   2.066   6.471   1.725  0.4812 -0.5157  0.5033
20588SOL    HW163696   1.978   6.498   1.752 -0.3824 -1.2787 -1.4058
20588SOL    HW263697   2.120   6.549   1.737 -0.3264 -0.1587  2.1185
20589SOL     OW63698   2.237   7.575   8.590 -0.6215  0.6826 -0.7944
20589SOL    HW163699   2.236   7.632   8.667  1.0759 -1.1156  0.6576
20589SOL    HW263700   2.282   7.626   8.523  1.8349  0.7687  0.8055
20590SOL     OW63701   5.393   7.355   2.084 -0.1412 -0.2429  0.1902
20590SOL    HW163702   5.421   7.362   1.993 -2.7995 -0.9980 -0.7825
20590SOL    HW263703   5.472   7.371   2.135  1.8566 -1.6977 -2.2438
20591SOL     OW63704   1.303   7.911   3.196  0.3044  0.5561  0.3890
20591SOL    HW163705   1.340   7.961   3.124 -1.6532 -1.0975 -1.9194
20591SOL    HW263706   1.363   7.927   3.269  1.5372  3.5586 -1.0951
20592SOL     OW63707   2.190   3.850   5.608 -0.2241 -0.0209 -0.4311
20592SOL    HW163708   2.169   3.887   5.694  0.0036  1.8125 -1.1141
20592SOL    HW263709   2.118   3.790   5.590  0.0511 -0.9476  1.2873
20593SOL     OW63710   4.717   8.226   6.166 -0.4895 -0.8728 -0.3717
20593SOL    HW163711   4.664   8.303   6.184  0.4730 -0.8077  2.7749
20593SOL    HW263712   4.668   8.153   6.205  0.1070 -1.3294 -0.4651
20594SOL     OW63713   4.727   6.656   0.364  0.3450 -0.1368  0.3773
20594SOL    HW163714   4.766   6.660   0.451 -1.6729  0.5401  1.3085
20594SOL    HW263715   4.796   6.687   0.305  2.0904 -1.5815  1.5751
20595SOL     OW63716   2.679   2.967   2.993 -0.2674  0.8751  0.3264
20595SOL    HW163717   2.639   2.969   2.905  2.3865 -0.2882 -1.0306
20595SOL    HW263718   2.689   3.059   3.016 -0.7761  1.2089 -0.6882
20596SOL     OW63719   3.233   6.145   2.381 -0.5778 -0.0442  0.1005
20596SOL    HW163720   3.238   6.089   2.459 -2.5349  0.3395  0.5616
20596SOL    HW263721   3.250   6.233   2.413 -3.9701  0.5203  0.7169
20597SOL     OW63722   1.839   8.785   5.513 -0.2523  0.3074  0.1550
20597SOL    HW163723   1.774   8.729   5.555 -0.3150  0.4114  0.1988
20597SOL    HW263724   1.791   8.866   5.493  0.1444  0.8494  1.2554
20598SOL     OW63725   7.326   0.423   4.259  0.0444  0.2973 -0.2848
20598SOL    HW163726   7.334   0.345   4.315  1.2668 -0.0202 -0.8612
20598SOL    HW263727   7.233   0.447   4.265 -0.3932 -1.2708 -0.1752
20599SOL     OW63728   0.100   2.805   3.595 -0.1233 -0.0061 -0.1157
20599SOL    HW163729   0.112   2.746   3.520 -0.4538 -0.8708  0.4922
20599SOL    HW263730   0.010   2.789   3.624 -0.6034  1.6284 -0.6217
20600SOL     OW63731   3.874   5.491   2.921  0.0787 -1.0316  0.6790
20600SOL    HW163732   3.855   5.523   3.009 -0.1241  2.3113 -0.4310
20600SOL    HW263733   3.789   5.487   2.877  0.4868  1.3816 -0.4981
20601SOL     OW63734   3.518   0.493   0.089 -0.6683  0.7511 -0.2815
20601SOL    HW163735   3.608   0.461   0.094  0.1774  3.0591  0.4775
20601SOL    HW263736   3.483   0.480   0.177 -1.8862 -2.0409 -1.0460
20602SOL     OW63737   8.397   0.805   3.677  0.2310 -0.1428  0.5773
20602SOL    HW163738   8.411   0.788   3.771  0.6532  0.8800  0.7119
20602SOL    HW263739   8.485   0.815   3.641  0.0445  0.5463  0.2905
20603SOL     OW63740   7.124   7.077   8.170 -0.0889 -0.2688  0.4213
20603SOL    HW163741   7.040   7.122   8.179  0.3628  0.4129  1.4510
20603SOL    HW263742   7.131   7.024   8.250  0.8728  0.4180  0.8122
20604SOL     OW63743   4.901   6.594   1.381 -0.0215  0.1484  0.1658
20604SOL    HW163744   4.806   6.581   1.388  0.1619 -0.9783  0.8753
20604SOL    HW263745   4.929   6.613   1.470  0.3585  1.0418 -0.1347
20605SOL     OW63746   7.607   4.354   0.657 -0.4384  0.0822 -0.0305
20605SOL    HW163747   7.629   4.262   0.671  0.7476  0.4470  0.7445
20605SOL    HW263748   7.612   4.393   0.744 -0.6709  0.9274 -0.3846
20606SOL     OW63749   7.540   8.110   4.432  0.3141 -0.2436 -0.3484
20606SOL    HW163750   7.610   8.055   4.395  0.2484 -1.0702  0.6929
20606SOL    HW263751   7.467   8.099   4.372  0.5228 -0.7650 -0.5146
20607SOL     OW63752   3.477   6.181   5.901 -0.3631 -0.3110  0.4499
20607SOL    HW163753   3.570   6.181   5.876 -0.3827  2.2905  0.0425
20607SOL    HW263754   3.437   6.116   5.844  0.5468  1.5048 -2.4845
20608SOL     OW63755   8.559   4.787   8.365  0.3893 -0.3102 -0.0582
20608SOL    HW163756   8.643   4.747   8.344  0.6687  0.9663 -1.5620
20608SOL    HW263757   8.496   4.714   8.363  1.3707 -1.2028  0.6721
20609SOL     OW63758   6.247   5.944   2.230 -0.5103  0.0868  0.2289
20609SOL    HW163759   6.164   5.943   2.276 -1.8839 -1.6258 -2.0816
20609SOL    HW263760   6.263   6.037   2.211 -1.4194  0.5108  1.4519
20610SOL     OW63761   8.215   8.172   5.806  0.0361  0.4445  0.4736
20610SOL    HW163762   8.307   8.174   5.832  0.3309  1.6231 -0.5051
20610SOL    HW263763   8.218   8.177   5.710 -1.0430  1.4248  0.4705
20611SOL     OW63764   0.786   5.761   3.565 -0.7982 -0.4030  0.4791
20611SOL    HW163765   0.749   5.756   3.477 -0.9971 -1.4680  0.6106
20611SOL    HW263766   0.837   5.843   3.565  0.9417 -1.3898 -1.3057
20612SOL     OW63767   6.721   7.583   2.531 -0.1676  0.1317  0.3067
20612SOL    HW163768   6.793   7.532   2.567  1.1826  1.3632 -0.5404
20612SOL    HW263769   6.698   7.644   2.600  1.3884  1.4598 -0.2760
20613SOL     OW63770   3.521   4.900   1.376 -0.0782  0.6266 -0.6691
20613SOL    HW163771   3.463   4.845   1.428 -0.8615 -1.2556 -3.3135
20613SOL    HW263772   3.601   4.848   1.365  1.1017  2.0562  0.6439
20614SOL     OW63773   3.966   2.592   6.659  0.8461 -0.5270  0.4299
20614SOL    HW163774   4.024   2.517   6.665 -0.1778 -1.5076 -1.1052
20614SOL    HW263775   3.907   2.584   6.734  2.5683  0.4401  1.9592
20615SOL     OW63776   6.612   3.199   7.478  0.3849  1.1260  0.3375
20615SOL    HW163777   6.543   3.147   7.519 -1.0055  0.6076 -2.4021
20615SOL    HW263778   6.589   3.289   7.496  1.0360  0.9359  2.4127
20616SOL     OW63779   8.512   5.163   1.191 -1.2958  0.0142 -0.1844
20616SOL    HW163780   8.562   5.191   1.114 -0.3278  1.8840  1.0324
20616SOL    HW263781   8.567   5.097   1.233 -1.0222  0.2398 -0.1846
20617SOL     OW63782   3.160   5.841   0.311  0.5057  0.1042  0.8956
20617SOL    HW163783   3.174   5.806   0.400  0.5217 -0.2569  0.7531
20617SOL    HW263784   3.076   5.803   0.284  0.6700 -0.0654  0.6232
20618SOL     OW63785   8.611   8.348   0.801  0.5914  0.0429  0.0361
20618SOL    HW163786   8.625   8.360   0.707  2.7820  1.9884  0.5235
20618SOL    HW263787   8.562   8.426   0.828  0.6700 -0.1096  0.6454
20619SOL     OW63788   1.252   2.544   6.916 -0.0638  0.4451  0.1634
20619SOL    HW163789   1.237   2.492   6.995 -1.4170  1.5250  0.6625
20619SOL    HW263790   1.314   2.612   6.944 -0.0353  0.4351  0.1237
20620SOL     OW63791   1.048   4.556   8.377  0.2829  0.1377 -0.5371
20620SOL    HW163792   1.070   4.645   8.349  1.4763  0.0920  0.1757
20620SOL    HW263793   1.063   4.502   8.299  0.2746  0.4642 -0.7668
20621SOL     OW63794   3.450   5.472   1.151  0.5383  0.3208 -0.0923
20621SOL    HW163795   3.472   5.381   1.173  0.4364 -0.5422 -3.0478
20621SOL    HW263796   3.521   5.500   1.094 -0.3348  1.4533 -0.6552
20622SOL     OW63797   6.376   2.906   7.366 -0.1219  0.0053 -0.2678
20622SOL    HW163798   6.386   2.990   7.321  1.6476 -0.4609 -0.8201
20622SOL    HW263799   6.304   2.863   7.321 -1.8558  1.6545  0.7684
20623SOL     OW63800   0.042   1.619   0.694 -0.1986 -0.1066  0.3075
20623SOL    HW163801  -0.008   1.538   0.694 -3.3868  1.6544 -0.7429
20623SOL    HW263802   0.058   1.639   0.786 -0.3388 -1.3607  0.6082
20624SOL     OW63803   7.867   2.077   1.550 -0.0310  0.1241 -0.0227
20624SOL    HW163804   7.951   2.048   1.586  1.4025  0.9484 -2.4788
20624SOL    HW263805   7.857   2.166   1.584 -0.9268 -0.6161  1.7997
20625SOL     OW63806   3.586   2.142   3.228 -0.4526  0.0406 -0.0031
20625SOL    HW163807   3.673   2.158   3.192  0.7650 -0.1418  2.6146
20625SOL    HW263808   3.564   2.222   3.275 -1.4941 -0.0946 -0.2393
20626SOL     OW63809   6.378   0.208   6.891 -0.1308  0.2370 -0.3796
20626SOL    HW163810   6.442   0.277   6.873  1.0974 -0.6488  0.4320
20626SOL    HW263811   6.303   0.254   6.929  1.0622  1.0323  1.0837
20627SOL     OW63812   6.915   3.258   6.465  0.4748  0.1212  0.2411
20627SOL    HW163813   6.920   3.217   6.551 -0.0920 -0.8802 -0.1949
20627SOL    HW263814   6.871   3.342   6.481 -0.7839 -0.6063  0.7516
20628SOL     OW63815   1.419   2.102   3.035  0.3866  0.2943 -0.1185
20628SOL    HW163816   1.379   2.097   2.948  0.9595 -2.0834 -0.3169
20628SOL    HW263817   1.499   2.049   3.028  0.7034  0.4585  1.7261
20629SOL     OW63818   1.984   1.405   3.511  0.1227  0.1986  0.0618
20629SOL    HW163819   2.051   1.458   3.467  0.9577  0.8643  2.0326
20629SOL    HW263820   1.930   1.469   3.558 -1.1070 -0.4401 -0.4287
20630SOL     OW63821   0.823   5.997   0.253 -0.1633  0.0570  0.3237
20630SOL    HW163822   0.829   5.937   0.179 -0.8477 -1.3305  1.3291
20630SOL    HW263823   0.881   5.960   0.319 -1.1547  0.0645  1.2352
20631SOL     OW63824   7.067   6.497   6.668  0.0567  0.0355  0.3464
20631SOL    HW163825   7.015   6.550   6.606  0.7366  0.1232 -0.1591
20631SOL    HW263826   7.145   6.550   6.684  0.2402 -0.3375  0.6771
20632SOL     OW63827   1.243   2.876   7.599 -0.4729  0.1588  0.3103
20632SOL    HW163828   1.186   2.801   7.584 -0.5390  0.3508 -0.4867
20632SOL    HW263829   1.195   2.931   7.661 -0.3237 -0.5563  1.0615
20633SOL     OW63830   2.245   1.214   8.514  0.0698  0.1744 -0.2410
20633SOL    HW163831   2.317   1.263   8.474 -0.2174 -0.2064 -1.2538
20633SOL    HW263832   2.173   1.276   8.518  0.1618  0.2736 -0.1374
20634SOL     OW63833   6.698   4.035   6.309 -0.1375 -0.5135  0.7843
20634SOL    HW163834   6.658   4.060   6.392  0.6612  0.8127  0.7968
20634SOL    HW263835   6.688   3.940   6.305 -2.4938 -0.3384  1.1675
20635SOL     OW63836   3.534   2.269   8.199  0.6055 -0.3783  0.7542
20635SOL    HW163837   3.596   2.309   8.137 -0.7838  2.9016  1.2436
20635SOL    HW263838   3.556   2.309   8.283 -0.5613 -1.0918  1.4265
20636SOL     OW63839   0.765   0.114   1.137  0.2367  0.7903 -0.0887
20636SOL    HW163840   0.744   0.022   1.153 -2.8418  1.3412 -0.4867
20636SOL    HW263841   0.797   0.147   1.221 -1.4596  0.0561  0.8857
20637SOL     OW63842   4.996   3.618   1.751  0.0088  0.3588  0.3309
20637SOL    HW163843   5.088   3.637   1.731  0.2660 -1.1723 -0.1061
20637SOL    HW263844   4.946   3.681   1.700  0.8156  1.7031  1.1510
20638SOL     OW63845   6.181   0.432   6.937  0.1483  0.4511  0.5758
20638SOL    HW163846   6.193   0.518   6.897  0.2468 -0.0906 -0.5907
20638SOL    HW263847   6.104   0.395   6.893  0.5786 -0.3768  0.4869
20639SOL     OW63848   5.151   7.129   3.323 -0.3897  0.2255 -0.0285
20639SOL    HW163849   5.109   7.121   3.237  0.5896  0.0350 -0.5001
20639SOL    HW263850   5.181   7.219   3.327  1.1316 -0.2279 -0.6441
20640SOL     OW63851   1.105   1.252   6.781 -0.1938 -0.4029  0.1608
20640SOL    HW163852   1.085   1.342   6.756 -1.1110 -0.2448  1.3947
20640SOL    HW263853   1.186   1.232   6.733 -0.9517  0.4308 -1.5594
20641SOL     OW63854   3.063   4.055   0.087  0.1158  0.0163  0.6124
20641SOL    HW163855   3.011   4.131   0.115 -0.0898 -0.5098  1.7163
20641SOL    HW263856   3.000   3.998   0.044 -0.0304 -0.1917  1.1003
20642SOL     OW63857   8.122   2.052   6.727  0.6187  0.0100  0.1806
20642SOL    HW163858   8.131   2.033   6.633 -0.6152  2.0850 -0.4146
20642SOL    HW263859   8.027   2.051   6.742  0.6923  1.5638  0.9514
20643SOL     OW63860   7.728   5.739   2.531 -0.4359 -0.0132 -0.0257
20643SOL    HW163861   7.701   5.656   2.571  0.7262 -1.1092 -1.3758
20643SOL    HW263862   7.716   5.804   2.600 -0.9983 -1.3641  1.2117
20644SOL     OW63863   6.337   6.266   7.812  0.1581 -0.1874 -0.6629
20644SOL    HW163864   6.311   6.271   7.904 -0.3471 -2.2717 -0.6495
20644SOL    HW263865   6.305   6.348   7.774  0.2328  0.6383  0.9531
20645SOL     OW63866   7.422   4.407   1.089 -0.4444  0.1574 -0.6721
20645SOL    HW163867   7.385   4.361   1.013 -0.4802  0.9338 -1.1412
20645SOL    HW263868   7.424   4.341   1.158  0.2148 -0.7506 -1.5309
20646SOL     OW63869   5.686   0.366   0.441  0.1390  0.1236  0.2730
20646SOL    HW163870   5.643   0.286   0.470 -1.7553  0.9489 -0.0880
20646SOL    HW263871   5.739   0.393   0.515  2.4363 -2.4530 -0.2519
20647SOL     OW63872   2.029   4.405   7.665 -0.0735 -0.3295 -0.0215
20647SOL    HW163873   2.006   4.496   7.685 -0.4051 -0.8702  2.2462
20647SOL    HW263874   2.114   4.393   7.707 -0.1136 -1.1359 -0.1661
20648SOL     OW63875   8.446   3.535   1.369  0.3257 -0.0402 -0.0492
20648SOL    HW163876   8.462   3.623   1.335  1.0524 -0.0007  0.3727
20648SOL    HW263877   8.508   3.525   1.441 -0.2926 -0.6068  0.4220
20649SOL     OW63878   3.627   8.489   5.743 -0.2460  0.4538  1.1659
20649SOL    HW163879   3.548   8.518   5.788 -1.2378  1.4213 -1.0580
20649SOL    HW263880   3.627   8.538   5.661  0.8466 -1.9838 -0.4008
20650SOL     OW63881   5.853   1.659   8.825  0.0189  0.3546 -0.4834
20650SOL    HW163882   5.785   1.615   8.775 -0.1214 -1.3926  1.1251
20650SOL    HW263883   5.875   1.598   8.895  1.6986  1.7949  0.3395
20651SOL     OW63884   0.771   0.543   3.943 -0.0345  0.4551 -0.2236
20651SOL    HW163885   0.708   0.471   3.938  1.5736 -1.1812  1.4252
20651SOL    HW263886   0.854   0.505   3.914  1.3616  0.8772  2.7561
20652SOL     OW63887   2.088   7.618   8.028 -0.2601  0.1756 -0.2991
20652SOL    HW163888   2.172   7.624   7.984 -0.8999 -0.2848 -1.6370
20652SOL    HW263889   2.097   7.674   8.105  1.4554 -0.3551 -0.0708
20653SOL     OW63890   2.482   3.784   5.969 -0.0133  0.1309  0.6745
20653SOL    HW163891   2.448   3.853   6.026  0.4548  1.8364 -1.0129
20653SOL    HW263892   2.529   3.726   6.029 -1.8647  0.2666  2.3906
20654SOL     OW63893   2.133   4.896   5.676  0.3738 -0.1014  0.2411
20654SOL    HW163894   2.097   4.871   5.591  0.3658  1.3042 -0.2005
20654SOL    HW263895   2.070   4.960   5.711  1.2694  0.6777  0.4794
20655SOL     OW63896   7.734   3.030   5.367 -0.1460 -0.0200 -0.2648
20655SOL    HW163897   7.675   3.075   5.428  0.4231  0.2064  0.1190
20655SOL    HW263898   7.712   2.938   5.376  1.5843 -0.2653  2.1005
20656SOL     OW63899   5.164   1.261   3.430  0.5625 -0.0293  0.0968
20656SOL    HW163900   5.115   1.328   3.478 -1.2226 -1.2912  0.0903
20656SOL    HW263901   5.125   1.261   3.342  2.4682  0.8610 -0.8218
20657SOL     OW63902   4.185   0.329   2.749 -0.0648  0.4904 -0.1218
20657SOL    HW163903   4.111   0.369   2.795 -0.6501 -2.4140  1.6809
20657SOL    HW263904   4.262   0.357   2.799 -0.2603  0.9435 -0.0683
20658SOL     OW63905   0.464   0.435   3.874  0.4676  0.4928 -0.0564
20658SOL    HW163906   0.481   0.394   3.789  0.1859 -1.1943  0.6405
20658SOL    HW263907   0.369   0.424   3.886  0.1236  2.7016 -0.4596
20659SOL     OW63908   2.860   8.655   3.455 -0.1390  0.0973  0.2914
20659SOL    HW163909   2.798   8.707   3.507  1.1657  0.4783  1.5245
20659SOL    HW263910   2.918   8.719   3.416 -0.9938 -0.1987 -1.5877
20660SOL     OW63911   7.795   1.541   6.439 -0.1291  0.6880  0.4577
20660SOL    HW163912   7.782   1.477   6.369  1.6248  0.0062  0.7009
20660SOL    HW263913   7.707   1.561   6.470 -0.8236 -0.3192 -0.7692
20661SOL     OW63914   7.074   6.017   4.753  0.5509  0.2926 -0.4452
20661SOL    HW163915   7.027   6.101   4.756 -0.9708 -0.5274 -0.1529
20661SOL    HW263916   7.083   5.991   4.844 -0.5536 -0.6589 -0.5785
20662SOL     OW63917   2.140   0.057   2.338  0.6611  0.0604 -0.1470
20662SOL    HW163918   2.150  -0.029   2.298  0.1552  0.6452 -1.6280
20662SOL    HW263919   2.049   0.059   2.368  0.8236 -0.0975  0.3734
20663SOL     OW63920   1.642   0.434   5.968 -0.2484 -0.7841 -0.2227
20663SOL    HW163921   1.671   0.345   5.949 -0.4154 -0.7441 -0.6724
20663SOL    HW263922   1.698   0.463   6.040 -0.6843 -1.5144  0.4272
20664SOL     OW63923   3.351   0.929   3.959  0.6877 -0.0251 -0.4953
20664SOL    HW163924   3.364   0.948   4.052  1.9144 -0.7303 -0.5040
20664SOL    HW263925   3.428   0.965   3.916  0.7326 -0.7833 -1.0812
20665SOL     OW63926   7.031   0.412   3.955  0.2966 -0.6641  0.4416
20665SOL    HW163927   6.986   0.335   3.920  0.8207 -0.4507 -0.7463
20665SOL    HW263928   7.107   0.424   3.898  0.1403  0.8363  0.5151
20666SOL     OW63929   4.781   6.997   2.644  0.0859 -0.6405  0.1942
20666SOL    HW163930   4.782   6.985   2.739 -1.1675 -0.1497  0.2911
20666SOL    HW263931   4.873   6.994   2.619  0.5253  0.1991  1.5544
20667SOL     OW63932   6.701   5.504   8.132  0.2318  0.4349 -0.0595
20667SOL    HW163933   6.625   5.541   8.176  0.1822  1.0660 -0.6521
20667SOL    HW263934   6.768   5.498   8.200  0.2897  1.7767  0.0251
20668SOL     OW63935   6.457   7.750   6.565 -0.4834 -0.1127  0.0489
20668SOL    HW163936   6.424   7.818   6.507  0.4751  0.3827  0.0707
20668SOL    HW263937   6.505   7.691   6.507  2.2755  1.4884  0.5228
20669SOL     OW63938   8.611   3.294   1.837 -0.8219  0.0616  0.0122
20669SOL    HW163939   8.518   3.311   1.830 -0.9312 -0.0896  0.9745
20669SOL    HW263940   8.653   3.376   1.809 -1.2291  0.0253 -0.7124
20670SOL     OW63941   6.632   7.911   5.619 -0.4537  0.0592 -0.7264
20670SOL    HW163942   6.596   7.906   5.530 -1.1513 -0.0376 -0.4454
20670SOL    HW263943   6.642   8.004   5.635  0.1348  0.0617 -1.0855
20671SOL     OW63944   5.457   8.361   4.088  0.7130  0.1977 -0.0128
20671SOL    HW163945   5.546   8.376   4.117  0.1332  1.5987  1.1362
20671SOL    HW263946   5.449   8.411   4.006  0.5996  1.1984  0.5955
20672SOL     OW63947   2.194   6.002   1.102  0.6311 -0.0191 -0.8210
20672SOL    HW163948   2.269   6.043   1.145  0.2966  0.3482 -0.5768
20672SOL    HW263949   2.127   6.070   1.102  0.0182 -0.6116 -0.2898
20673SOL     OW63950   5.297   3.582   2.035  0.0245 -0.3051  0.3399
20673SOL    HW163951   5.233   3.562   1.967  0.9274 -1.6328 -0.1536
20673SOL    HW263952   5.379   3.546   2.002  0.7483  0.1204  1.5952
20674SOL     OW63953   4.450   7.149   2.922 -0.4827  0.5774  0.6002
20674SOL    HW163954   4.494   7.176   3.003  2.3611 -2.2306  0.1863
20674SOL    HW263955   4.507   7.182   2.852 -2.5901  2.4430 -0.3390
20675SOL     OW63956   4.307   3.170   2.229  0.2768  0.3570 -0.8649
20675SOL    HW163957   4.339   3.222   2.303 -0.5701 -0.0599 -0.1987
20675SOL    HW263958   4.308   3.231   2.155  0.4017  0.9953 -0.3486
20676SOL     OW63959   5.231   5.542   2.451  0.2473 -0.3944 -0.1108
20676SOL    HW163960   5.188   5.537   2.537  0.0405 -2.7854 -0.2959
20676SOL    HW263961   5.282   5.462   2.445  0.5022 -0.1245 -2.1207
20677SOL     OW63962   8.560   6.838   2.077  0.4322 -0.0195  0.2356
20677SOL    HW163963   8.543   6.913   2.133 -1.1749 -0.2274  0.0608
20677SOL    HW263964   8.514   6.857   1.995  0.6313 -0.8576 -0.0853
20678SOL     OW63965   7.317   6.865   2.424  0.2804  0.5454  0.4423
20678SOL    HW163966   7.251   6.900   2.364 -1.3408  0.5245  2.0933
20678SOL    HW263967   7.271   6.795   2.471  2.0772 -0.7341  0.3615
20679SOL     OW63968   1.416   3.822   1.075 -0.2687  0.1627 -0.6977
20679SOL    HW163969   1.390   3.730   1.071  0.2490 -0.0164 -0.1532
20679SOL    HW263970   1.348   3.864   1.128 -0.7784  0.1998 -1.3728
20680SOL     OW63971   7.996   5.681   0.425 -0.1347  0.0565  0.0944
20680SOL    HW163972   7.951   5.687   0.509 -1.7352 -2.0410 -0.5040
20680SOL    HW263973   7.956   5.750   0.371 -0.9799 -0.2482  0.3074
20681SOL     OW63974   7.481   7.779   2.375 -0.6700  0.1792 -0.2423
20681SOL    HW163975   7.484   7.750   2.283  2.0640  2.3474 -0.9832
20681SOL    HW263976   7.430   7.860   2.373 -0.0994  0.5509  0.0292
20682SOL     OW63977   3.740   1.495   1.341  0.0131 -0.7143 -0.2583
20682SOL    HW163978   3.787   1.461   1.265 -0.6615 -0.9275 -0.5832
20682SOL    HW263979   3.734   1.589   1.326  2.0744 -0.3402  0.7438
20683SOL     OW63980   7.392   3.362   3.706  0.8947 -0.4254 -0.8530
20683SOL    HW163981   7.352   3.433   3.757  1.1882 -1.0963  0.3269
20683SOL    HW263982   7.486   3.372   3.720  0.9503 -0.9157 -0.8522
20684SOL     OW63983   5.848   8.821   0.782 -0.3861 -0.3905  0.6259
20684SOL    HW163984   5.849   8.854   0.692 -0.2925 -0.3205  0.6524
20684SOL    HW263985   5.910   8.749   0.782  0.7866  0.5769  0.9953
20685SOL     OW63986   8.635   3.191   1.383 -0.2659  0.3691 -0.2538
20685SOL    HW163987   8.622   3.264   1.444 -0.7411 -1.1102  1.4908
20685SOL    HW263988   8.596   3.222   1.301 -1.9696  1.4657  0.9013
20686SOL     OW63989   6.123   5.101   6.699 -0.0452 -0.6382 -0.1679
20686SOL    HW163990   6.034   5.070   6.717  0.3322 -0.5427  2.2147
20686SOL    HW263991   6.112   5.180   6.647 -1.3892 -0.2926  0.6165
20687SOL     OW63992   4.461   0.780   8.699 -0.6224 -0.2111  0.2057
20687SOL    HW163993   4.498   0.842   8.636  0.4657 -0.0274  1.0110
20687SOL    HW263994   4.432   0.706   8.646 -1.9135  0.9419 -0.7742
20688SOL     OW63995   0.885   2.998   0.278 -0.0054  0.2539  0.5444
20688SOL    HW163996   0.955   2.936   0.255 -0.4896 -0.3981  0.7977
20688SOL    HW263997   0.916   3.040   0.358  0.3653  0.3970  0.3262
20689SOL     OW63998   6.595   4.069   5.205  0.3770 -0.3645  0.3434
20689SOL    HW163999   6.680   4.081   5.164  1.1631  0.6528  2.1453
20689SOL    HW264000   6.562   4.158   5.220 -0.8152 -0.7370  0.0589
20690SOL     OW64001   3.676   1.308   4.411 -0.2220 -0.0356  0.5156
20690SOL    HW164002   3.713   1.349   4.489  1.3622  2.0511 -1.2548
20690SOL    HW264003   3.751   1.281   4.359 -1.2535 -0.9245 -0.5844
20691SOL     OW64004   7.441   5.112   2.553 -0.2537  0.0876  0.4242
20691SOL    HW164005   7.524   5.080   2.518 -0.5668 -2.9723  2.1394
20691SOL    HW264006   7.375   5.055   2.513 -1.3927  1.3163  0.4718
20692SOL     OW64007   0.296   5.748   0.071 -0.4516 -0.1150  0.1575
20692SOL    HW164008   0.327   5.811   0.005  1.2592 -0.2689  0.7822
20692SOL    HW264009   0.205   5.774   0.086 -0.7083  0.3101 -1.7975
20693SOL     OW64010   5.071   1.154   2.099  0.0457  0.2625 -0.3978
20693SOL    HW164011   5.004   1.204   2.146  0.4171  0.3834  0.0133
20693SOL    HW264012   5.154   1.184   2.137  0.2987 -0.3360 -0.4686
20694SOL     OW64013   1.295   6.742   0.917 -0.5551  0.5277 -0.3455
20694SOL    HW164014   1.212   6.765   0.959 -0.7158  0.3391 -0.5557
20694SOL    HW264015   1.270   6.679   0.849 -0.2439  0.5011 -0.4339
20695SOL     OW64016   5.150   6.302   4.861  0.0733 -0.4729  0.7851
20695SOL    HW164017   5.089   6.355   4.912 -0.5842 -0.3878 -0.0548
20695SOL    HW264018   5.105   6.218   4.851  0.4203 -0.6579  0.7819
20696SOL     OW64019   3.784   4.168   5.188  0.2718  0.3810  0.2534
20696SOL    HW164020   3.730   4.088   5.184 -0.3578  0.7466  1.0665
20696SOL    HW264021   3.721   4.238   5.204  0.9054  0.9429  0.3157
20697SOL     OW64022   8.114   6.918   3.149 -0.0605  0.4773 -0.7279
20697SOL    HW164023   8.165   6.875   3.218 -0.0988  1.9214  0.2729
20697SOL    HW264024   8.044   6.857   3.128 -0.8143  0.5024  1.4726
20698SOL     OW64025   2.466   1.590   7.615 -0.0366  0.2625 -0.5400
20698SOL    HW164026   2.545   1.557   7.657 -1.2558 -1.9961  0.1556
20698SOL    HW264027   2.454   1.533   7.539 -1.9008 -0.6667  0.3716
20699SOL     OW64028   7.402   5.308   3.324 -0.5499  0.1943 -0.1976
20699SOL    HW164029   7.393   5.243   3.393 -1.9237  0.1776 -0.3569
20699SOL    HW264030   7.493   5.337   3.329 -0.0000 -1.4945  0.0873
20700SOL     OW64031   3.014   1.867   7.920 -0.2632  0.2681  0.0103
20700SOL    HW164032   3.013   1.795   7.984 -0.4006  0.9972  0.8493
20700SOL    HW264033   3.060   1.938   7.965  3.2854 -0.4320 -2.0921
20701SOL     OW64034   3.484   2.433   7.811 -0.0363 -0.0174  0.5470
20701SOL    HW164035   3.543   2.390   7.873  0.5172 -0.6431 -0.4005
20701SOL    HW264036   3.462   2.365   7.747 -0.8994  0.5206  0.2499
20702SOL     OW64037   5.506   7.080   0.094 -0.0240 -0.0547 -0.0042
20702SOL    HW164038   5.597   7.084   0.065  0.4077 -1.4177  1.0321
20702SOL    HW264039   5.462   7.027   0.028  0.6437 -1.9546  0.9959
20703SOL     OW64040   6.310   6.441   3.622 -0.2967 -0.1996  0.1860
20703SOL    HW164041   6.380   6.447   3.556 -0.7427  2.2946 -0.1405
20703SOL    HW264042   6.346   6.485   3.699 -1.5540  1.3823 -0.0843
20704SOL     OW64043   4.830   0.687   3.384 -0.6300 -0.4832  0.4738
20704SOL    HW164044   4.914   0.662   3.421 -0.0885  0.2966 -0.1885
20704SOL    HW264045   4.807   0.768   3.429 -0.7503 -0.3901  0.2453
20705SOL     OW64046   0.296   1.894   8.214  0.0134  0.0864  0.0984
20705SOL    HW164047   0.286   1.980   8.254 -0.8630 -0.6977  1.6867
20705SOL    HW264048   0.223   1.886   8.153  0.3550  0.6292 -0.3867
20706SOL     OW64049   2.167   5.850   6.333  0.2203  0.2082 -0.2534
20706SOL    HW164050   2.130   5.872   6.419 -1.2813  0.5950 -0.9668
20706SOL    HW264051   2.090   5.833   6.278  1.1791 -2.4041 -0.9311
20707SOL     OW64052   3.711   1.541   7.095 -0.1944  0.2917 -0.1386
20707SOL    HW164053   3.693   1.635   7.086 -0.4999  0.4463  1.6689
20707SOL    HW264054   3.756   1.517   7.014  2.2050  2.5891  0.3675
20708SOL     OW64055   6.412   5.405   8.434  0.3688  0.4105  0.2742
20708SOL    HW164056   6.348   5.462   8.475  1.8845  1.4893  1.2793
20708SOL    HW264057   6.453   5.459   8.366 -1.3746 -1.0245 -2.0473
20709SOL     OW64058   6.691   3.965   1.074  0.4548 -0.5602 -0.6313
20709SOL    HW164059   6.614   3.922   1.038 -1.8306  1.3944  1.4720
20709SOL    HW264060   6.708   4.038   1.014 -1.7988  1.2052  0.6555
20710SOL     OW64061   1.371   7.626   6.402 -0.3357 -0.1138 -0.3630
20710SOL    HW164062   1.407   7.543   6.372 -0.1106  0.6827 -2.4873
20710SOL    HW264063   1.303   7.602   6.465  0.8633 -1.8090  0.3519
20711SOL     OW64064   6.279   5.381   7.238 -0.3332 -0.1163  0.1243
20711SOL    HW164065   6.334   5.448   7.280  0.5478  0.2420 -1.4903
20711SOL    HW264066   6.229   5.429   7.172  2.3215 -1.2475 -3.0226
20712SOL     OW64067   8.492   1.331   5.388 -0.1952  0.3859  0.6370
20712SOL    HW164068   8.505   1.257   5.328 -1.4468 -1.1024  2.0870
20712SOL    HW264069   8.414   1.375   5.354 -0.7524 -0.3025  0.9920
20713SOL     OW64070   4.845   0.595   1.597  0.5763 -0.0633  0.3004
20713SOL    HW164071   4.870   0.679   1.636 -0.0881 -0.4280  1.5493
20713SOL    HW264072   4.907   0.532   1.634 -0.3582 -0.4923  1.1641
20714SOL     OW64073   2.148   2.188   7.631  0.0883 -0.8519 -0.1190
20714SOL    HW164074   2.165   2.123   7.699 -0.3230 -1.9873 -1.0701
20714SOL    HW264075   2.179   2.147   7.550  0.5924  0.4740 -0.6317
20715SOL     OW64076   4.257   0.120   6.644 -0.1563  1.2120 -0.0734
20715SOL    HW164077   4.198   0.194   6.631  0.2316  1.4099 -0.7454
20715SOL    HW264078   4.205   0.057   6.694 -0.6893  1.6904 -0.0096
20716SOL     OW64079   3.991   2.733   7.878  0.2413  0.1241 -0.0999
20716SOL    HW164080   4.013   2.660   7.822 -1.5563 -0.7494  0.2509
20716SOL    HW264081   4.000   2.810   7.823  0.1071 -0.5656 -1.1039
20717SOL     OW64082   5.900   7.444   5.616 -0.2174  0.2644  0.2341
20717SOL    HW164083   5.832   7.418   5.678  0.4343  0.2611  0.9688
20717SOL    HW264084   5.981   7.408   5.654  0.4211  1.6472  0.2307
20718SOL     OW64085   7.415   2.122   5.212  0.6706 -0.1826  0.0959
20718SOL    HW164086   7.357   2.170   5.153  0.9657 -2.3335 -2.1217
20718SOL    HW264087   7.502   2.158   5.195  0.8193 -1.0695 -1.1959
20719SOL     OW64088   6.254   5.192   1.548  0.0587  0.1473 -0.1614
20719SOL    HW164089   6.226   5.169   1.459 -2.7849  1.4137  0.2914
20719SOL    HW264090   6.249   5.287   1.550 -1.8557  0.0721  1.8492
20720SOL     OW64091   6.383   6.681   4.511 -0.2959  0.0785  0.3636
20720SOL    HW164092   6.439   6.676   4.434 -0.2763  1.2482  0.2768
20720SOL    HW264093   6.316   6.614   4.497 -1.5915  1.7053 -1.7643
20721SOL     OW64094   2.164   2.266   5.550  0.0796  0.2366  0.2155
20721SOL    HW164095   2.087   2.219   5.516 -0.1347  0.4007  0.4745
20721SOL    HW264096   2.163   2.248   5.644  0.6346 -0.1602  0.1482
20722SOL     OW64097   0.486   7.373   1.003 -0.1083 -0.1828  0.4539
20722SOL    HW164098   0.559   7.342   1.055  0.0515 -1.8738 -0.6925
20722SOL    HW264099   0.512   7.460   0.973  1.3858 -0.7062  0.1788
20723SOL     OW64100   6.849   0.198   0.445 -0.3097  0.2016  0.3985
20723SOL    HW164101   6.843   0.112   0.403  2.8712  0.1832 -0.3070
20723SOL    HW264102   6.884   0.180   0.532 -2.5194  0.6100  1.4210
20724SOL     OW64103   5.167   7.851   5.762 -0.6235  0.1890  0.2528
20724SOL    HW164104   5.128   7.937   5.777  2.0877  1.7971 -1.0637
20724SOL    HW264105   5.201   7.856   5.672 -1.1115 -2.6129 -0.1848
20725SOL     OW64106   5.526   3.123   0.744 -0.2958  0.1976  0.4832
20725SOL    HW164107   5.596   3.159   0.799 -0.6065  2.9388 -0.7243
20725SOL    HW264108   5.571   3.082   0.671  0.0747 -0.5819  1.1443
20726SOL     OW64109   8.647   4.235   8.702  0.2364 -0.3823 -0.1275
20726SOL    HW164110   8.729   4.264   8.742 -0.1483  2.2999 -1.0906
20726SOL    HW264111   8.599   4.194   8.774  1.9315 -0.9906  0.7105
20727SOL     OW64112   3.255   1.605   3.665  0.4381 -0.1770  0.5561
20727SOL    HW164113   3.286   1.588   3.754  1.5748 -0.4705  0.1206
20727SOL    HW264114   3.330   1.585   3.610 -0.5892 -1.0819 -0.5718
20728SOL     OW64115   5.449   3.313   4.257 -0.0805  0.1670  0.5411
20728SOL    HW164116   5.482   3.263   4.332 -1.3288  1.3868  2.0074
20728SOL    HW264117   5.355   3.293   4.255 -0.5729  2.1457  1.0103
20729SOL     OW64118   8.485   8.396   3.288  0.7457 -0.6095  0.1408
20729SOL    HW164119   8.571   8.355   3.301  1.2721 -0.5682 -2.6351
20729SOL    HW264120   8.425   8.322   3.277  0.8566 -0.6452 -0.2362
20730SOL     OW64121   2.917   4.339   1.338 -0.5480 -0.4904  0.0834
20730SOL    HW164122   3.006   4.306   1.322 -1.6526 -2.7434 -1.9941
20730SOL    HW264123   2.926   4.435   1.335  2.8452 -0.0589  6.4488
20731SOL     OW64124   4.777   0.063   1.799 -0.5187  0.6774  0.3767
20731SOL    HW164125   4.869   0.090   1.803 -0.7707  1.8767 -1.0545
20731SOL    HW264126   4.780  -0.032   1.798  0.9888  0.6041 -3.0956
20732SOL     OW64127   0.778   2.440   7.935 -0.4070 -0.0436  0.7449
20732SOL    HW164128   0.806   2.466   7.847  0.3433  0.2173  1.0540
20732SOL    HW264129   0.743   2.352   7.924 -1.2653  0.3659  0.0106
20733SOL     OW64130   0.867   0.546   8.457 -0.0429  0.1804  0.0129
20733SOL    HW164131   0.835   0.618   8.511  1.1174  1.2567 -0.6781
20733SOL    HW264132   0.920   0.493   8.517  1.0057  1.2093  0.0275
20734SOL     OW64133   8.795   8.376   2.227 -0.0153  0.1433 -0.0650
20734SOL    HW164134   8.882   8.411   2.243  0.5807 -1.2444 -0.1524
20734SOL    HW264135   8.779   8.316   2.299 -1.6337  1.6286  0.9060
20735SOL     OW64136   0.276   8.219   3.266 -0.6678 -0.4956 -0.0957
20735SOL    HW164137   0.327   8.278   3.321 -1.6351 -0.6727  1.0441
20735SOL    HW264138   0.219   8.173   3.327 -0.1270 -2.4494 -0.9727
20736SOL     OW64139   1.206   4.068   0.562 -0.2444  0.5689  0.2061
20736SOL    HW164140   1.202   4.163   0.551  1.8557  0.4871 -1.9139
20736SOL    HW264141   1.200   4.055   0.657  1.4262  2.9595  0.7429
20737SOL     OW64142   1.697   0.764   0.156 -1.2611  0.3207  0.5546
20737SOL    HW164143   1.670   0.851   0.126  0.0564  1.1222  1.6265
20737SOL    HW264144   1.629   0.739   0.219 -1.6695  0.5506  0.2124
20738SOL     OW64145   8.676   0.594   8.514 -0.4856  0.1789  0.3904
20738SOL    HW164146   8.616   0.521   8.530  0.1917 -0.3609  0.5100
20738SOL    HW264147   8.688   0.635   8.600  1.6383 -1.5459  1.0042
20739SOL     OW64148   5.604   7.232   5.742 -0.2499  0.4586  0.3008
20739SOL    HW164149   5.554   7.239   5.824 -0.1701 -0.4201  0.4372
20739SOL    HW264150   5.566   7.299   5.685  0.2975  1.7114  1.3521
20740SOL     OW64151   5.440   8.215   3.342 -0.0536 -0.5849  0.0063
20740SOL    HW164152   5.423   8.163   3.420  0.0904  0.6654  0.9129
20740SOL    HW264153   5.475   8.298   3.376 -1.4931  0.6213 -1.2837
20741SOL     OW64154   5.679   3.647   3.848  0.1425  0.2540  0.2794
20741SOL    HW164155   5.687   3.654   3.753 -0.1881  1.2187  0.3133
20741SOL    HW264156   5.701   3.734   3.881  0.3602 -0.0969  1.0985
20742SOL     OW64157   2.197   1.738   7.666 -0.4805 -0.3234  0.0255
20742SOL    HW164158   2.124   1.746   7.604 -0.5274  0.0630  0.1261
20742SOL    HW264159   2.271   1.710   7.613 -0.9348 -1.7087  0.0833
20743SOL     OW64160   2.512   3.024   2.771 -0.1742  0.6335  0.3189
20743SOL    HW164161   2.437   3.034   2.829 -0.6190  1.9853 -0.4409
20743SOL    HW264162   2.477   2.981   2.693  0.5193 -1.6295  1.1798
20744SOL     OW64163   8.103   1.699   7.466  0.3868  0.0902  0.3398
20744SOL    HW164164   8.109   1.783   7.421 -2.4602 -0.0811 -0.5680
20744SOL    HW264165   8.149   1.637   7.409 -0.2228  0.5076 -0.6282
20745SOL     OW64166   2.265   3.206   2.155  0.7387 -0.2065  0.0985
20745SOL    HW164167   2.268   3.206   2.251  2.4799  0.9174  0.0908
20745SOL    HW264168   2.353   3.179   2.128 -0.4218 -3.0258 -1.2577
20746SOL     OW64169   0.319   6.656   4.038  0.0284 -0.1994 -0.0726
20746SOL    HW164170   0.230   6.679   4.010  0.1713  0.7791  0.2130
20746SOL    HW264171   0.373   6.728   4.005  0.7839 -0.9884 -0.5920
20747SOL     OW64172   3.700   7.951   1.824 -0.4004  0.4313  0.3396
20747SOL    HW164173   3.746   7.870   1.802  0.0263  0.6627  0.3579
20747SOL    HW264174   3.614   7.923   1.854 -1.3895  0.1398 -2.5270
20748SOL     OW64175   2.545   8.140   7.902  0.1322  0.4498  0.8236
20748SOL    HW164176   2.588   8.073   7.848 -1.5280  0.1764 -0.2282
20748SOL    HW264177   2.452   8.122   7.893 -0.2603  1.2730  2.7134
20749SOL     OW64178   5.641   7.087   7.199  0.2709 -0.1326  0.2660
20749SOL    HW164179   5.591   7.008   7.220 -1.9349  0.6638 -1.6106
20749SOL    HW264180   5.583   7.159   7.221  1.1369  0.8971 -0.6857
20750SOL     OW64181   6.812   6.771   6.997  0.0005 -0.3484 -0.1795
20750SOL    HW164182   6.803   6.849   7.051 -0.4920  0.6743 -1.6711
20750SOL    HW264183   6.901   6.775   6.962 -0.3562  0.0994 -1.0560
20751SOL     OW64184   3.114   5.097   7.528 -0.2004  0.4166  0.4063
20751SOL    HW164185   3.064   5.062   7.602 -3.5872 -2.2041 -2.7288
20751SOL    HW264186   3.156   5.020   7.489 -1.5911  0.9787 -2.4300
20752SOL     OW64187   0.852   6.189   7.082 -0.6089 -0.3060 -0.1467
20752SOL    HW164188   0.921   6.193   7.148  0.9247 -2.4406 -1.4648
20752SOL    HW264189   0.856   6.274   7.038  0.6516 -0.0939  0.3299
20753SOL     OW64190   7.347   6.772   1.282  0.0293 -0.3292 -0.0122
20753SOL    HW164191   7.306   6.743   1.201  2.1418 -2.1674 -0.5244
20753SOL    HW264192   7.273   6.790   1.341 -1.5206 -1.5568 -1.4735
20754SOL     OW64193   0.457   6.344   4.866  0.3323 -0.1089  0.7438
20754SOL    HW164194   0.459   6.297   4.949  0.8561 -0.1209  0.7289
20754SOL    HW264195   0.438   6.435   4.890 -0.3253 -0.2586  0.8030
20755SOL     OW64196   6.567   6.317   1.018  0.0681 -0.1764  0.5861
20755SOL    HW164197   6.475   6.331   0.998  0.3665  0.1949 -0.6368
20755SOL    HW264198   6.568   6.284   1.108 -1.2732 -0.5233  0.4906
20756SOL     OW64199   6.543   4.601   7.552 -0.2884 -0.2048  0.5243
20756SOL    HW164200   6.487   4.629   7.625 -0.3419  1.1244  0.0123
20756SOL    HW264201   6.612   4.549   7.594 -1.2445 -0.8803  1.3052
20757SOL     OW64202   6.378   8.499   8.185  0.4321  0.3894  0.2212
20757SOL    HW164203   6.316   8.572   8.188 -1.3660 -1.0700  2.7679
20757SOL    HW264204   6.362   8.457   8.101 -1.5869  0.4799  0.5164
20758SOL     OW64205   7.105   2.507   2.435 -0.4675 -0.2441 -0.3895
20758SOL    HW164206   7.128   2.592   2.472 -0.3764  0.2215 -1.4816
20758SOL    HW264207   7.183   2.453   2.449 -0.7629 -0.3640  0.8964
20759SOL     OW64208   6.698   4.588   4.790 -0.1254  0.1834 -0.3407
20759SOL    HW164209   6.663   4.593   4.701 -1.6428  1.8222  0.2924
20759SOL    HW264210   6.759   4.662   4.796 -1.8979  1.6481  0.6796
20760SOL     OW64211   8.340   1.746   4.970  0.4019 -0.5927  0.7462
20760SOL    HW164212   8.266   1.783   5.019 -1.9022  0.6917 -3.2456
20760SOL    HW264213   8.302   1.674   4.920  2.2718 -1.0352 -0.1297
20761SOL     OW64214   7.849   0.141   6.826 -0.5768  0.3270  0.2142
20761SOL    HW164215   7.863   0.167   6.917 -0.5736  1.2699 -0.0468
20761SOL    HW264216   7.781   0.201   6.794 -0.1201  0.4244 -0.5922
20762SOL     OW64217   4.220   5.911   4.885 -0.6199  0.7726 -0.9028
20762SOL    HW164218   4.130   5.889   4.863 -0.2774 -1.4978 -0.2516
20762SOL    HW264219   4.272   5.877   4.813 -0.2120  1.5241 -0.9783
20763SOL     OW64220   7.915   0.329   2.823 -0.2322 -0.1986 -0.0633
20763SOL    HW164221   7.955   0.416   2.827  1.2254 -0.8759  1.1248
20763SOL    HW264222   7.822   0.346   2.808 -0.2473  1.6503  1.6717
20764SOL     OW64223   6.383   7.729   8.409 -0.5257  0.3187  0.0241
20764SOL    HW164224   6.355   7.658   8.350  0.2861 -0.7873  0.9146
20764SOL    HW264225   6.329   7.804   8.384 -0.1523 -0.0922 -2.1598
20765SOL     OW64226   7.242   6.461   1.446 -0.0903  0.2146 -0.0607
20765SOL    HW164227   7.272   6.511   1.370 -0.3214 -0.0863 -0.3535
20765SOL    HW264228   7.202   6.382   1.409  0.3428 -0.2297  0.3964
20766SOL     OW64229   4.154   7.476   7.891 -0.4215  0.4866 -0.1564
20766SOL    HW164230   4.175   7.419   7.817  0.2825  1.5123 -0.7679
20766SOL    HW264231   4.059   7.484   7.890 -0.4562  0.0202 -0.5814
20767SOL     OW64232   4.189   7.499   5.302  0.5876  0.1023 -0.2442
20767SOL    HW164233   4.259   7.510   5.367  0.6239  0.6185 -0.3654
20767SOL    HW264234   4.179   7.404   5.293  0.6851  0.0245  0.4062
20768SOL     OW64235   8.494   6.761   0.081  0.6052  0.1863 -0.2356
20768SOL    HW164236   8.454   6.675   0.090  0.0913  0.4137 -0.2669
20768SOL    HW264237   8.468   6.789  -0.007  0.2082  0.6457  0.0216
20769SOL     OW64238   5.613   6.261   4.976  0.2418  0.1024  0.5754
20769SOL    HW164239   5.581   6.264   4.886  1.7401  0.7185  0.0393
20769SOL    HW264240   5.652   6.174   4.985  1.3283  0.5435  0.1795
20770SOL     OW64241   2.408   4.517   2.185  0.2525 -0.5946 -0.0397
20770SOL    HW164242   2.390   4.609   2.169  1.3569 -0.1505  1.1139
20770SOL    HW264243   2.394   4.474   2.101  2.3763  1.0577 -1.3356
20771SOL     OW64244   8.528   2.734   7.645  0.0631  0.4893  0.1649
20771SOL    HW164245   8.520   2.686   7.727 -2.7353  2.3205  1.1128
20771SOL    HW264246   8.592   2.803   7.663  1.3639 -0.6448 -0.0453
20772SOL     OW64247   4.297   2.320   6.914  0.2649 -0.1394  0.4273
20772SOL    HW164248   4.352   2.301   6.838  0.6571  1.7064  0.2161
20772SOL    HW264249   4.358   2.348   6.981 -0.3458  1.3859  0.3694
20773SOL     OW64250   2.997   6.663   1.191  0.2345 -0.0802 -0.4736
20773SOL    HW164251   3.041   6.748   1.196 -1.1178  0.7128 -1.4292
20773SOL    HW264252   3.057   6.603   1.235  1.0022  1.4519  0.6925
20774SOL     OW64253   7.392   5.796   7.603  0.7106  0.2136 -0.5393
20774SOL    HW164254   7.405   5.794   7.508  0.3941 -0.9944 -0.5804
20774SOL    HW264255   7.478   5.775   7.639  0.7758  0.4348 -0.5642
20775SOL     OW64256   0.409   0.772   0.242  0.9656 -0.2933 -0.1655
20775SOL    HW164257   0.438   0.777   0.333 -0.2097 -1.2250  0.2789
20775SOL    HW264258   0.490   0.778   0.191  1.9246 -2.1735  1.0194
20776SOL     OW64259   6.518   0.783   6.697  0.3051 -0.1145 -0.0865
20776SOL    HW164260   6.559   0.835   6.628  1.2156  0.3070  0.7434
20776SOL    HW264261   6.497   0.700   6.655  0.1232  0.4049 -1.0656
20777SOL     OW64262   8.849   0.003   4.732 -0.0994  0.2584 -0.8523
20777SOL    HW164263   8.904  -0.074   4.743 -0.3406  0.1923  0.0282
20777SOL    HW264264   8.804  -0.011   4.649 -0.0059 -0.4689 -0.7896
20778SOL     OW64265   6.701   1.995   6.383 -0.3413  0.2729  0.6079
20778SOL    HW164266   6.633   1.931   6.361  0.4449 -0.8978  1.4570
20778SOL    HW264267   6.701   2.056   6.310 -0.4752 -1.2407 -0.7081
20779SOL     OW64268   0.455   8.208   3.575 -0.2405  0.0581 -0.3386
20779SOL    HW164269   0.473   8.302   3.573  0.5986 -0.1093 -2.2665
20779SOL    HW264270   0.447   8.188   3.669 -0.1419  1.9816  0.1278
20780SOL     OW64271   0.120   0.328   6.173 -0.9010 -0.1920  0.0111
20780SOL    HW164272   0.200   0.380   6.159  0.2394 -1.2465  2.1546
20780SOL    HW264273   0.049   0.391   6.164  0.3941  1.6634  1.7979
20781SOL     OW64274   4.494   3.708   7.006  0.0843  0.1492 -0.4016
20781SOL    HW164275   4.475   3.615   7.022  0.4161  0.0843 -0.3710
20781SOL    HW264276   4.574   3.707   6.953 -0.5700  0.3837 -1.4058
20782SOL     OW64277   4.490   8.806   3.744  0.0438  0.2511  0.6423
20782SOL    HW164278   4.549   8.799   3.819 -0.3543  0.0674  0.9395
20782SOL    HW264279   4.445   8.889   3.756  1.4165  1.2096 -0.4543
20783SOL     OW64280   5.997   2.301   8.607 -0.8598 -0.2364 -0.5587
20783SOL    HW164281   6.092   2.286   8.610 -0.8283 -0.0194 -0.4634
20783SOL    HW264282   5.987   2.395   8.625 -1.2310 -0.6947  1.9449
20784SOL     OW64283   2.033   3.271   6.850  0.3932  0.1288  0.5912
20784SOL    HW164284   2.022   3.362   6.824  0.5070 -0.1022 -0.3239
20784SOL    HW264285   2.050   3.274   6.944  0.3770  1.0432  0.5723
20785SOL     OW64286   6.441   4.647   8.814  0.2298 -0.1373  0.4188
20785SOL    HW164287   6.493   4.589   8.870  1.5017  1.3817  0.8693
20785SOL    HW264288   6.372   4.679   8.871  1.0744  0.8090  0.9356
20786SOL     OW64289   1.108   4.349   6.848 -0.4355  0.0876  0.1201
20786SOL    HW164290   1.096   4.254   6.854  0.9898 -0.2026 -1.0795
20786SOL    HW264291   1.154   4.362   6.765  3.1788  1.4617  2.1139
20787SOL     OW64292   5.395   1.378   6.025 -0.0540  0.3005 -0.5171
20787SOL    HW164293   5.382   1.283   6.021  0.6020  0.2413 -1.6623
20787SOL    HW264294   5.329   1.414   5.965  1.1830  0.3796 -1.8950
20788SOL     OW64295   7.217   3.045   3.783 -0.0312  0.0477  0.0571
20788SOL    HW164296   7.199   2.965   3.832 -2.1462 -0.9855 -2.2274
20788SOL    HW264297   7.294   3.024   3.730  0.0728 -0.0662  0.2497
20789SOL     OW64298   4.350   3.783   0.691  0.1817 -0.1256  0.2187
20789SOL    HW164299   4.436   3.803   0.727 -0.3151  0.7969  0.9179
20789SOL    HW264300   4.322   3.704   0.737  1.5139 -1.6960 -1.4973
20790SOL     OW64301   1.523   6.436   4.099  0.5582 -0.2869  0.0921
20790SOL    HW164302   1.506   6.398   4.013  2.0754  0.3401 -0.5078
20790SOL    HW264303   1.604   6.486   4.089 -0.5032  1.8275  1.2468
20791SOL     OW64304   4.550   8.395   4.392 -0.6546  0.0158  0.0336
20791SOL    HW164305   4.619   8.420   4.453 -1.8683  1.4961  0.8871
20791SOL    HW264306   4.576   8.308   4.360  1.2352  0.2508  0.8095
20792SOL     OW64307   0.665   1.256   3.230 -0.4264 -0.0168  0.1200
20792SOL    HW164308   0.666   1.287   3.321 -1.9761  0.3288  0.0430
20792SOL    HW264309   0.705   1.328   3.180  1.6245 -0.7288  0.6270
20793SOL     OW64310   5.923   5.027   3.307  0.6654 -0.3880 -0.2516
20793SOL    HW164311   5.974   4.952   3.277 -0.4572 -1.5570  0.6342
20793SOL    HW264312   5.832   5.000   3.295  0.2398  0.6622  0.4970
20794SOL     OW64313   6.556   6.747   4.304 -0.0821 -0.8814 -0.3902
20794SOL    HW164314   6.636   6.800   4.300 -1.3029  1.1575  0.5783
20794SOL    HW264315   6.494   6.792   4.248 -1.1817 -1.2795  0.4822
20795SOL     OW64316   4.896   0.187   0.551  0.4459 -0.4342  0.3663
20795SOL    HW164317   4.934   0.141   0.626  0.6261  0.6397  0.9568
20795SOL    HW264318   4.819   0.135   0.528  0.6237 -1.0152  1.0266
20796SOL     OW64319   7.876   4.166   1.181 -0.4982 -0.6018 -0.1167
20796SOL    HW164320   7.890   4.072   1.169 -1.1360 -0.9509  1.5269
20796SOL    HW264321   7.839   4.196   1.098 -0.1721 -1.7701 -0.7002
20797SOL     OW64322   3.670   3.322   8.157  0.1302 -0.2780  0.3652
20797SOL    HW164323   3.650   3.388   8.223 -3.3877  0.3223 -1.1081
20797SOL    HW264324   3.622   3.244   8.185 -0.0822 -0.5197 -0.6210
20798SOL     OW64325   0.656   8.719   0.698 -0.3860 -0.4522  0.3642
20798SOL    HW164326   0.629   8.810   0.710 -1.5831 -0.4486 -1.8768
20798SOL    HW264327   0.673   8.711   0.604 -0.6647 -2.6232  0.4507
20799SOL     OW64328   4.105   6.042   5.949  0.5694 -0.6117 -0.2583
20799SOL    HW164329   4.085   6.065   5.858 -0.7539 -1.8815 -0.3235
20799SOL    HW264330   4.045   6.094   6.002  1.4767  0.2769 -0.0755
20800SOL     OW64331   4.004   5.038   8.179  0.2010 -0.2954 -0.1338
20800SOL    HW164332   4.094   5.071   8.179  0.5967 -1.2828 -1.0242
20800SOL    HW264333   3.987   5.013   8.269  1.2676 -1.2115 -0.1665
20801SOL     OW64334   2.599   0.266   6.782 -0.5764 -0.5704  0.2054
20801SOL    HW164335   2.509   0.297   6.794 -0.2263  1.2629 -1.3565
20801SOL    HW264336   2.653   0.345   6.788  0.7173 -1.3353 -0.7595
20802SOL     OW64337   0.829   6.804   4.564  0.3044 -0.3277  0.1583
20802SOL    HW164338   0.768   6.739   4.599  0.3599 -0.6395 -0.3077
20802SOL    HW264339   0.820   6.880   4.621  1.0290 -1.1297  1.3792
20803SOL     OW64340   3.195   6.721   6.854 -0.6837 -0.1254 -0.8861
20803SOL    HW164341   3.275   6.746   6.807 -0.8329 -0.0181 -1.0860
20803SOL    HW264342   3.138   6.798   6.846 -1.0248 -0.4056 -1.2294
20804SOL     OW64343   2.937   3.822   8.822 -0.6197 -0.5398  0.1310
20804SOL    HW164344   3.018   3.770   8.825 -1.4043 -1.9762 -1.5062
20804SOL    HW264345   2.942   3.868   8.738 -2.1699 -1.9064 -0.7736
20805SOL     OW64346   5.312   8.522   1.570  0.3592 -0.5024 -0.6463
20805SOL    HW164347   5.267   8.438   1.579 -1.1479  0.2074 -1.1003
20805SOL    HW264348   5.314   8.539   1.476 -0.6814  0.6120 -0.4979
20806SOL     OW64349   2.065   6.480   0.290  0.0161  0.0865 -0.1304
20806SOL    HW164350   2.082   6.387   0.272 -1.7196  0.1790 -2.7956
20806SOL    HW264351   2.130   6.527   0.237 -0.0701  0.4125  0.0464
20807SOL     OW64352   2.697   4.249   5.825 -0.2816  0.5974  0.1871
20807SOL    HW164353   2.761   4.206   5.767 -2.2450 -1.5951 -0.5276
20807SOL    HW264354   2.659   4.177   5.876 -1.8494  1.8649  0.9009
20808SOL     OW64355   2.901   3.004   8.060  0.5141  0.6169  0.8339
20808SOL    HW164356   2.890   2.926   8.114  0.8516 -0.0648 -0.0708
20808SOL    HW264357   2.935   3.070   8.121  3.2909 -0.8337  0.9792
20809SOL     OW64358   7.311   2.779   3.394  0.1685  0.4779 -0.0088
20809SOL    HW164359   7.342   2.705   3.445  0.5336  1.3714  1.0954
20809SOL    HW264360   7.378   2.846   3.404 -0.3007  1.0785 -0.7291
20810SOL     OW64361   1.361   3.848   3.576 -0.3005 -0.7674  0.5678
20810SOL    HW164362   1.281   3.891   3.546 -0.1123  0.0100  1.1611
20810SOL    HW264363   1.336   3.756   3.585 -0.8586 -0.6949 -0.1849
20811SOL     OW64364   7.652   4.334   7.947  0.3358 -0.0933 -0.0393
20811SOL    HW164365   7.673   4.427   7.942  0.4461 -0.1708 -2.3347
20811SOL    HW264366   7.642   4.316   8.040 -0.2921  2.3352  0.4283
20812SOL     OW64367   6.280   8.213   5.017  0.5078 -0.0201 -0.0362
20812SOL    HW164368   6.234   8.140   4.976 -0.0694  1.0459 -1.3566
20812SOL    HW264369   6.222   8.288   5.005  0.6733  0.5083  2.0875
20813SOL     OW64370   5.397   4.499   6.253  0.4509 -0.5557 -0.4583
20813SOL    HW164371   5.324   4.541   6.206  1.1779  0.1712 -0.9678
20813SOL    HW264372   5.364   4.412   6.275 -1.0027  0.1594  0.3604
20814SOL     OW64373   0.910   3.220   1.932 -0.4860  0.0488 -0.1554
20814SOL    HW164374   0.992   3.258   1.963 -0.7876  0.7036 -0.1296
20814SOL    HW264375   0.924   3.125   1.934 -0.4267  0.0739  1.7472
20815SOL     OW64376   3.869   7.176   2.440 -0.1984 -0.0115 -0.1180
20815SOL    HW164377   3.884   7.238   2.368 -1.0347 -1.0549 -1.2495
20815SOL    HW264378   3.938   7.111   2.431  0.4461  0.5258  0.8238
20816SOL     OW64379   3.954   3.123   5.374  0.1547 -0.4478 -0.1987
20816SOL    HW164380   3.954   3.045   5.431  1.2776  0.7238  1.5227
20816SOL    HW264381   4.046   3.133   5.349 -0.1169 -0.1353 -1.1034
20817SOL     OW64382   2.121   5.703   3.786  0.7722  0.3285  1.1213
20817SOL    HW164383   2.069   5.624   3.799 -0.1502  0.6320 -0.4617
20817SOL    HW264384   2.194   5.676   3.730 -0.6762  0.9340 -1.2008
20818SOL     OW64385   0.176   3.379   7.989 -0.3453 -0.1676  0.0792
20818SOL    HW164386   0.152   3.364   7.898  1.2098  0.8786 -0.5441
20818SOL    HW264387   0.257   3.330   8.002  0.3515  1.0197  0.3843
20819SOL     OW64388   4.789   1.432   7.454 -0.2927 -1.3270  0.1890
20819SOL    HW164389   4.810   1.349   7.412  0.7899 -1.0109  0.0852
20819SOL    HW264390   4.858   1.445   7.519 -0.5589 -0.6046  0.3480
20820SOL     OW64391   2.057   0.346   3.926  0.1808  0.3947  0.1197
20820SOL    HW164392   2.142   0.329   3.886  0.2301 -0.6432  0.6465
20820SOL    HW264393   2.076   0.394   4.006  0.1079  2.0833 -0.8070
20821SOL     OW64394   4.847   8.197   0.727 -0.2633 -0.3305 -0.1780
20821SOL    HW164395   4.801   8.118   0.699 -0.1626 -0.4183 -0.0960
20821SOL    HW264396   4.907   8.216   0.654 -0.0028 -0.5592 -0.0254
20822SOL     OW64397   1.278   7.107   2.895  0.5400  0.1924  0.1073
20822SOL    HW164398   1.216   7.096   2.823  1.6605 -1.8638 -0.6153
20822SOL    HW264399   1.280   7.202   2.911 -2.2932  0.3838 -0.2149
20823SOL     OW64400   1.720   2.734   8.032 -0.3252  0.3687  0.4140
20823SOL    HW164401   1.655   2.709   7.967 -1.4675  0.9676  1.2819
20823SOL    HW264402   1.776   2.657   8.041 -1.8886 -0.7848  0.8058
20824SOL     OW64403   3.084   5.374   2.867  0.1853  0.1914  0.1808
20824SOL    HW164404   3.098   5.297   2.922 -1.1039  0.7701  1.3649
20824SOL    HW264405   3.134   5.355   2.787  2.1182 -0.6605  1.5126
20825SOL     OW64406   6.249   4.024   3.832 -0.6948  0.1666 -0.2303
20825SOL    HW164407   6.197   3.968   3.890 -1.7784 -0.6327 -1.9056
20825SOL    HW264408   6.210   4.012   3.746  0.2594  2.0601 -0.9813
20826SOL     OW64409   4.806   8.656   1.786 -0.2113 -0.1835 -0.2061
20826SOL    HW164410   4.737   8.601   1.749 -0.0179 -1.4115  1.1939
20826SOL    HW264411   4.887   8.622   1.747 -0.1778 -0.2816 -0.0510
20827SOL     OW64412   3.270   3.892   0.206  0.9024  0.6131 -0.0368
20827SOL    HW164413   3.190   3.938   0.181  1.3485  1.0441 -0.7122
20827SOL    HW264414   3.258   3.870   0.298 -0.1025  0.4306 -0.2070
20828SOL     OW64415   2.976   7.671   0.872 -0.9000  0.2219  0.2588
20828SOL    HW164416   2.906   7.724   0.833 -1.1139 -0.3438 -0.1502
20828SOL    HW264417   3.055   7.724   0.863 -0.9281  0.0631 -1.0533
20829SOL     OW64418   8.095   7.055   7.946 -0.4020 -0.4175  0.1660
20829SOL    HW164419   8.019   7.113   7.949 -2.1867 -2.3814 -2.2096
20829SOL    HW264420   8.113   7.034   8.038 -1.3438  1.7418  0.9130
20830SOL     OW64421   8.101   7.915   2.903 -0.1383  0.1503 -0.0946
20830SOL    HW164422   8.042   7.848   2.937 -0.1161 -0.0262 -0.3907
20830SOL    HW264423   8.059   7.945   2.823  0.9704 -1.2084 -1.2561
20831SOL     OW64424   5.075   3.041   7.926  0.1505  0.3708 -0.1317
20831SOL    HW164425   5.127   3.030   8.005  0.1167 -3.1257 -0.4379
20831SOL    HW264426   5.139   3.046   7.855  0.1828 -1.4336 -0.2732
20832SOL     OW64427   0.845   0.271   5.365  0.7749 -0.9522 -0.0283
20832SOL    HW164428   0.810   0.278   5.453  0.4930 -0.3416 -0.1821
20832SOL    HW264429   0.839   0.178   5.343  0.7556 -1.0886  0.5545
20833SOL     OW64430   3.155   0.973   5.051  0.1186 -0.1944  0.7504
20833SOL    HW164431   3.068   0.933   5.051  0.9519 -2.1889 -0.1818
20833SOL    HW264432   3.169   1.002   4.961  1.0256 -1.4996  0.4216
20834SOL     OW64433   0.451   2.330   2.339 -0.5333 -0.4613 -0.0152
20834SOL    HW164434   0.414   2.390   2.405 -0.6882  0.0835 -0.5867
20834SOL    HW264435   0.398   2.251   2.347 -0.7043 -0.3146  0.3593
20835SOL     OW64436   2.320   3.279   0.594  0.1698  0.0476  0.3505
20835SOL    HW164437   2.272   3.354   0.629  0.5149 -1.2639  4.1079
20835SOL    HW264438   2.254   3.225   0.553 -1.0702 -0.0131  2.2858
20836SOL     OW64439   3.856   6.571   0.136 -0.1320  0.0879  0.0226
20836SOL    HW164440   3.814   6.648   0.097  1.4798  0.7728 -0.4330
20836SOL    HW264441   3.784   6.509   0.150 -1.1168  0.7242 -1.8670
20837SOL     OW64442   4.980   7.209   4.554 -0.6708  0.5907 -0.1486
20837SOL    HW164443   5.075   7.196   4.553 -0.5338  1.5235  0.2715
20837SOL    HW264444   4.944   7.121   4.544  0.2278  0.3967 -2.1044
20838SOL     OW64445   5.841   3.553   7.318 -0.0095 -0.0524 -0.6204
20838SOL    HW164446   5.862   3.560   7.225  0.5832 -0.2868 -0.5081
20838SOL    HW264447   5.875   3.633   7.357 -0.3777  0.1078 -0.6258
20839SOL     OW64448   4.043   0.920   3.548 -0.3388 -0.7388  0.0023
20839SOL    HW164449   4.048   0.958   3.636 -1.7256 -1.7421  0.5556
20839SOL    HW264450   3.949   0.911   3.531 -0.0717 -1.9920 -0.9530
20840SOL     OW64451   7.284   6.512   4.999 -0.1357  0.7964 -0.7340
20840SOL    HW164452   7.271   6.606   5.006  0.1904  0.7496  0.6751
20840SOL    HW264453   7.245   6.489   4.915 -0.2334  2.1787 -1.0881
20841SOL     OW64454   2.899   7.459   3.325  0.1445  0.0609 -0.0801
20841SOL    HW164455   2.879   7.473   3.417  1.1566  2.5780 -0.1505
20841SOL    HW264456   2.889   7.546   3.285  1.0194 -0.6916 -2.0731
20842SOL     OW64457   2.275   5.233   4.247 -0.0151 -0.0606  0.8247
20842SOL    HW164458   2.281   5.137   4.249  1.7124 -0.0415 -0.4652
20842SOL    HW264459   2.182   5.252   4.254 -1.0168 -2.1071 -3.5625
20843SOL     OW64460   8.795   5.198   2.002  0.5131 -0.1903 -0.2483
20843SOL    HW164461   8.827   5.265   2.062 -1.2883  0.6831 -0.2057
20843SOL    HW264462   8.799   5.117   2.052  0.1766  0.3343  0.6369
20844SOL     OW64463   5.854   4.375   8.517  0.5639  0.0950 -0.0873
20844SOL    HW164464   5.890   4.455   8.478 -0.7533  1.4115  1.2386
20844SOL    HW264465   5.905   4.364   8.598  0.9113 -0.5671 -0.3923
20845SOL     OW64466   0.071   0.493   0.857 -0.0407  0.2697 -0.7046
20845SOL    HW164467   0.079   0.545   0.937 -1.1882  0.7926 -0.9122
20845SOL    HW264468  -0.013   0.518   0.820 -2.1625 -3.8489  0.7178
20846SOL     OW64469   8.283   0.644   7.339  0.4393  0.4340  0.0950
20846SOL    HW164470   8.256   0.567   7.390 -0.1704  0.1566 -0.6243
20846SOL    HW264471   8.343   0.691   7.397 -2.9451  2.1309  2.6284
20847SOL     OW64472   2.577   7.856   5.182  0.0271 -0.3094  0.1014
20847SOL    HW164473   2.503   7.882   5.127  0.5594  1.1768  0.0379
20847SOL    HW264474   2.640   7.927   5.171  0.8310 -0.8124  1.3423
20848SOL     OW64475   0.039   3.207   4.329  0.2877 -0.9763  0.5272
20848SOL    HW164476   0.061   3.183   4.239 -0.2878  0.2676  0.0334
20848SOL    HW264477  -0.040   3.157   4.348  0.9295 -1.9625  0.6970
20849SOL     OW64478   0.255   0.806   6.711 -0.0102 -0.5031 -0.5832
20849SOL    HW164479   0.242   0.875   6.777  2.6643  0.3769 -0.8764
20849SOL    HW264480   0.230   0.848   6.629  1.0914 -0.0414 -0.6919
20850SOL     OW64481   1.198   7.350   2.278  0.0598 -0.1958 -0.1732
20850SOL    HW164482   1.203   7.446   2.275 -0.6655 -0.1756 -1.0828
20850SOL    HW264483   1.105   7.330   2.273  0.2913 -0.9842 -2.4433
20851SOL     OW64484   6.433   6.706   4.983  0.2497 -0.6144 -0.0539
20851SOL    HW164485   6.504   6.719   5.046 -0.6971  2.2686  0.5515
20851SOL    HW264486   6.469   6.737   4.900  0.7790 -2.4254 -0.5547
20852SOL     OW64487   3.987   8.804   3.357 -0.1281 -0.1373  0.4193
20852SOL    HW164488   3.977   8.804   3.261  0.8629  0.2764  0.3046
20852SOL    HW264489   4.019   8.716   3.378 -0.7029 -0.3533  0.4225
20853SOL     OW64490   1.463   1.901   7.256 -0.2113 -0.0840 -0.3487
20853SOL    HW164491   1.512   1.823   7.229  2.8199  1.8160 -0.7829
20853SOL    HW264492   1.443   1.946   7.175  1.7539  1.5737 -0.0053
20854SOL     OW64493   8.743   4.548   7.178 -0.4493 -0.5708  0.1884
20854SOL    HW164494   8.834   4.573   7.160 -0.7126  0.5001  0.2298
20854SOL    HW264495   8.743   4.453   7.181  1.0945 -0.5622  2.3634
20855SOL     OW64496   1.576   2.163   6.123  0.1700  0.3310  0.0733
20855SOL    HW164497   1.622   2.246   6.108  0.5387 -0.0421 -1.0316
20855SOL    HW264498   1.503   2.185   6.180  0.5203  1.3358  0.1470
20856SOL     OW64499   3.606   4.683   5.158 -0.5789  0.4102 -0.5143
20856SOL    HW164500   3.668   4.628   5.110  0.1724  1.2891 -0.5796
20856SOL    HW264501   3.524   4.633   5.158  0.4937 -1.4542  0.8519
20857SOL     OW64502   6.050   2.849   6.047  0.5611  0.0523  0.4668
20857SOL    HW164503   5.971   2.801   6.024  1.6915 -1.0072 -1.3508
20857SOL    HW264504   6.054   2.921   5.984  1.7429 -0.6992 -0.3406
20858SOL     OW64505   3.805   5.261   7.010 -0.3909  0.2716 -0.0882
20858SOL    HW164506   3.748   5.338   7.001  1.3463  1.5314 -1.0019
20858SOL    HW264507   3.852   5.276   7.093  0.8857  0.9083 -0.8922
20859SOL     OW64508   3.729   8.198   0.868  0.0212 -0.6043 -0.0230
20859SOL    HW164509   3.665   8.249   0.916  1.9757  0.6080  1.4412
20859SOL    HW264510   3.728   8.235   0.779 -0.8138 -0.1590  0.1705
20860SOL     OW64511   3.345   2.012   8.107 -0.3825  0.0167 -0.1099
20860SOL    HW164512   3.258   2.048   8.090  0.2124  1.7545  0.2537
20860SOL    HW264513   3.393   2.085   8.148  1.8130 -0.2686 -1.9966
20861SOL     OW64514   8.458   6.064   7.319 -0.2281  0.5051  0.1295
20861SOL    HW164515   8.389   6.115   7.277 -0.6932 -1.0526 -1.0811
20861SOL    HW264516   8.426   5.974   7.317  2.0425 -0.3384 -0.9456
20862SOL     OW64517   6.061   8.624   5.160 -0.0668 -0.3770  0.0422
20862SOL    HW164518   6.079   8.601   5.069  0.4660 -2.0221  0.5252
20862SOL    HW264519   6.127   8.690   5.182  0.9974 -1.3154 -0.2393
20863SOL     OW64520   2.726   2.106   6.444 -0.0471  0.0389 -0.1856
20863SOL    HW164521   2.749   2.016   6.420 -1.3442 -0.2917 -0.2921
20863SOL    HW264522   2.673   2.137   6.370 -0.5267  0.4967  0.3428
20864SOL     OW64523   4.877   1.395   4.044 -0.1752  0.9388  0.1542
20864SOL    HW164524   4.903   1.369   4.132  1.1754 -1.2799 -0.8136
20864SOL    HW264525   4.787   1.365   4.035 -0.0413  0.4167  0.5229
20865SOL     OW64526   5.093   0.263   7.126 -0.5718  0.8028  0.6978
20865SOL    HW164527   5.083   0.281   7.033  0.8826  1.6433  0.6602
20865SOL    HW264528   5.011   0.221   7.152 -0.1323 -1.6373 -1.4352
20866SOL     OW64529   2.713   5.334   2.069  0.5856  0.1158 -0.0425
20866SOL    HW164530   2.750   5.347   2.156 -0.6601 -1.0066  0.6866
20866SOL    HW264531   2.736   5.243   2.047  1.1379  0.4780 -1.0291
20867SOL     OW64532   2.672   3.262   5.192 -0.2440  0.2470  0.1686
20867SOL    HW164533   2.667   3.238   5.100  0.4805  0.8079 -0.0249
20867SOL    HW264534   2.764   3.247   5.216  0.1488  2.3190  0.1520
20868SOL     OW64535   7.661   3.999   1.976  0.0419  0.3892 -0.4204
20868SOL    HW164536   7.705   3.972   2.056  0.0866  0.8037 -0.3017
20868SOL    HW264537   7.588   3.938   1.967  1.7709 -1.6240 -1.7045
20869SOL     OW64538   0.925   0.820   2.793 -0.3189  0.1954 -0.2060
20869SOL    HW164539   0.969   0.857   2.717  1.1850  1.7047  1.3049
20869SOL    HW264540   0.853   0.881   2.812  0.2257  0.6547  0.4326
20870SOL     OW64541   3.051   8.827   3.375  0.1840  0.0377  0.0046
20870SOL    HW164542   3.029   8.883   3.301  1.2080 -1.0823 -1.1887
20870SOL    HW264543   3.098   8.885   3.435 -1.3071  1.1351  0.1719
20871SOL     OW64544   2.626   5.991   7.894 -0.1077  0.2751  0.2032
20871SOL    HW164545   2.617   6.062   7.957  1.4732  1.2309 -0.5621
20871SOL    HW264546   2.720   5.972   7.893 -0.4996 -2.0440  0.5745
20872SOL     OW64547   8.701   1.199   6.634  0.0546  0.7373  0.7618
20872SOL    HW164548   8.735   1.182   6.722 -2.2005  0.7108  1.7062
20872SOL    HW264549   8.759   1.265   6.598  1.2634  0.4703  2.1102
20873SOL     OW64550   2.021   5.501   7.081 -0.7854  0.0253 -0.1057
20873SOL    HW164551   1.995   5.475   7.169 -2.0652 -1.0508 -0.7661
20873SOL    HW264552   1.943   5.543   7.044  0.2438  2.0117 -0.1837
20874SOL     OW64553   0.700   4.677   8.787  0.0291  0.0839  0.2571
20874SOL    HW164554   0.638   4.605   8.773 -0.9634  0.9712 -0.0038
20874SOL    HW264555   0.759   4.672   8.711 -0.5132  0.0163 -0.1677
20875SOL     OW64556   2.446   1.388   1.826  0.2248 -0.1281  0.2276
20875SOL    HW164557   2.413   1.313   1.777 -0.7580 -0.9604  2.0715
20875SOL    HW264558   2.369   1.425   1.868  0.9923  0.7276  0.9247
20876SOL     OW64559   8.685   7.328   7.260  0.4797  0.2470 -0.5802
20876SOL    HW164560   8.707   7.400   7.202  0.4963 -0.0333 -0.9220
20876SOL    HW264561   8.766   7.308   7.305  0.2651  1.0573  0.2080
20877SOL     OW64562   6.250   4.191   7.033  0.3046  0.1720 -0.2211
20877SOL    HW164563   6.211   4.152   6.955 -1.0497  0.9712  0.0198
20877SOL    HW264564   6.190   4.165   7.104 -0.3869  2.2576  0.0123
20878SOL     OW64565   1.398   8.435   2.924  0.6510  0.2399 -0.4035
20878SOL    HW164566   1.414   8.504   2.859 -0.0582 -0.1352 -0.9887
20878SOL    HW264567   1.306   8.413   2.913  0.8256 -0.6661 -0.0807
20879SOL     OW64568   4.262   5.293   0.108 -0.2664 -0.5121 -0.6699
20879SOL    HW164569   4.300   5.369   0.065  0.6749  0.0203  1.0269
20879SOL    HW264570   4.170   5.316   0.122  0.0949  0.4695  0.1463
20880SOL     OW64571   7.321   8.345   1.747 -0.1364  0.2740 -0.0342
20880SOL    HW164572   7.364   8.398   1.815 -2.5046 -0.2249  1.9871
20880SOL    HW264573   7.238   8.388   1.731  0.3881  0.4422 -2.8442
20881SOL     OW64574   5.278   3.878   1.207  0.2253 -0.6768  0.1040
20881SOL    HW164575   5.340   3.949   1.195 -1.5877  0.9822  0.0330
20881SOL    HW264576   5.278   3.861   1.301 -1.4795  1.6038  0.6198
20882SOL     OW64577   2.586   2.106   0.628  0.2850 -0.1416 -0.3046
20882SOL    HW164578   2.549   2.162   0.559  2.1323  2.6026  0.7508
20882SOL    HW264579   2.539   2.132   0.707 -0.6404 -2.0580 -0.1722
20883SOL     OW64580   1.524   1.931   0.197 -0.4916  0.1542 -0.2783
20883SOL    HW164581   1.526   1.999   0.265  1.6943 -1.0702  0.9938
20883SOL    HW264582   1.551   1.976   0.117  1.0352  0.8205  0.5597
20884SOL     OW64583   4.390   6.667   5.654 -0.0083  0.3152  0.1647
20884SOL    HW164584   4.378   6.728   5.582  0.4466  1.1214  0.7542
20884SOL    HW264585   4.457   6.708   5.709  1.4863 -1.4816 -0.2411
20885SOL     OW64586   2.881   3.511   2.995  0.1318 -0.6384 -0.1772
20885SOL    HW164587   2.809   3.463   3.038  0.6186 -0.6248  0.6737
20885SOL    HW264588   2.904   3.580   3.057  0.6369 -0.4046 -0.6171
20886SOL     OW64589   7.948   4.575   7.135 -0.0404 -0.8485 -0.3129
20886SOL    HW164590   7.884   4.529   7.189 -0.1039 -0.2596  0.1271
20886SOL    HW264591   7.990   4.637   7.195  0.7107 -0.9978 -0.6726
20887SOL     OW64592   6.351   3.437   7.990  0.2476 -0.0208 -0.2231
20887SOL    HW164593   6.388   3.502   8.049 -0.8803  0.0689  0.4193
20887SOL    HW264594   6.357   3.478   7.903 -0.0686  0.7749  0.1151
20888SOL     OW64595   0.158   6.472   1.774 -0.0844  0.2388 -0.0839
20888SOL    HW164596   0.080   6.525   1.756 -0.9435 -0.3773  1.6041
20888SOL    HW264597   0.137   6.385   1.742 -0.2887 -0.0377  0.7746
20889SOL     OW64598   5.903   3.527   3.165  0.3352 -0.1018 -0.3202
20889SOL    HW164599   5.926   3.613   3.129 -0.7141  0.6362  0.6942
20889SOL    HW264600   5.910   3.539   3.260 -0.4296 -0.9567 -0.1464
20890SOL     OW64601   8.431   4.827   4.686  0.6114 -0.3616 -0.4077
20890SOL    HW164602   8.437   4.820   4.590  0.2784  1.1090 -0.5577
20890SOL    HW264603   8.420   4.737   4.716 -3.2403 -0.6320 -2.0625
20891SOL     OW64604   4.163   6.106   0.276 -0.1582  0.0220 -0.0864
20891SOL    HW164605   4.096   6.175   0.282 -0.0666  0.1291 -0.2944
20891SOL    HW264606   4.182   6.100   0.183  0.0254 -0.1040 -0.0395
20892SOL     OW64607   2.996   1.791   1.683  0.0768 -0.3353  0.5248
20892SOL    HW164608   2.982   1.885   1.695  1.0368 -0.0294 -0.5380
20892SOL    HW264609   2.954   1.771   1.599  1.6812 -0.3881 -0.3045
20893SOL     OW64610   5.703   7.876   1.390 -0.1297 -0.0153  0.2467
20893SOL    HW164611   5.786   7.855   1.347 -0.5412 -0.3370 -0.4208
20893SOL    HW264612   5.676   7.959   1.351  0.0111  0.2265  0.6622
20894SOL     OW64613   8.372   3.769   1.686  0.2752 -0.0868 -0.1691
20894SOL    HW164614   8.467   3.774   1.696  0.1579  2.1165  0.6085
20894SOL    HW264615   8.344   3.706   1.753  1.1120  0.0359  0.3134
20895SOL     OW64616   4.690   2.727   3.154  0.3688  0.1780 -0.2943
20895SOL    HW164617   4.739   2.675   3.090  0.4662 -1.0319  0.7143
20895SOL    HW264618   4.751   2.736   3.228 -0.0811  0.7218  0.0163
20896SOL     OW64619   1.261   2.311   4.900 -0.4424 -0.2279  0.7433
20896SOL    HW164620   1.294   2.304   4.990 -2.1536  0.5425  1.4697
20896SOL    HW264621   1.186   2.251   4.898 -1.8444  1.4742  0.5491
20897SOL     OW64622   6.331   0.644   7.807 -0.2945  0.6172  0.7140
20897SOL    HW164623   6.279   0.719   7.835 -2.4143 -0.0082 -1.2298
20897SOL    HW264624   6.277   0.568   7.830  1.5854 -0.3711  2.2012
20898SOL     OW64625   3.912   2.347   7.272  0.5077  0.1395 -0.4741
20898SOL    HW164626   3.926   2.427   7.221  0.7581  0.5803  0.2747
20898SOL    HW264627   3.999   2.309   7.280  0.6905  0.7372  0.6825
20899SOL     OW64628   1.449   3.082   5.235 -0.4733 -0.3474  0.1886
20899SOL    HW164629   1.467   3.000   5.189  1.9366  1.2595 -2.0485
20899SOL    HW264630   1.518   3.087   5.302 -0.7160 -0.2140  0.4314
20900SOL     OW64631   3.624   8.353   2.654  0.0177 -0.1607 -0.0102
20900SOL    HW164632   3.561   8.329   2.585 -0.4214  1.9966 -0.4115
20900SOL    HW264633   3.691   8.403   2.608  0.5114  0.0402  0.9153
20901SOL     OW64634   6.414   1.858   3.818  0.3189 -0.3694  0.2215
20901SOL    HW164635   6.401   1.940   3.866 -2.3114 -0.7724  0.3340
20901SOL    HW264636   6.463   1.802   3.878  0.1104  0.3397  1.0623
20902SOL     OW64637   5.811   8.362   7.947 -0.1709  0.4176  0.0252
20902SOL    HW164638   5.832   8.307   7.871  0.0691 -1.0513  1.1291
20902SOL    HW264639   5.734   8.321   7.986 -0.4230  1.2925  0.4686
20903SOL     OW64640   7.040   8.566   5.178 -0.5805 -0.3519  0.0859
20903SOL    HW164641   6.966   8.592   5.122 -1.0702 -1.9498 -0.0662
20903SOL    HW264642   7.112   8.552   5.117 -0.9109 -1.3828 -0.0814
20904SOL     OW64643   4.544   0.530   3.286  0.7073  0.5628  0.5774
20904SOL    HW164644   4.482   0.495   3.222 -0.1849  1.0053  1.1717
20904SOL    HW264645   4.491   0.542   3.366  1.2947  1.9792  0.7804
20905SOL     OW64646   8.667   7.152   6.392  0.2351  0.7914  0.1515
20905SOL    HW164647   8.671   7.195   6.478 -3.3865 -1.0465  1.4573
20905SOL    HW264648   8.601   7.202   6.344  0.9131  0.6899 -0.9118
20906SOL     OW64649   1.957   8.695   1.601 -0.3175 -0.0739  0.1022
20906SOL    HW164650   1.987   8.778   1.637 -1.6299  0.4059  0.1534
20906SOL    HW264651   1.866   8.688   1.630 -1.1146 -0.1784 -2.2250
20907SOL     OW64652   2.117   6.316   7.243  0.2820 -0.1965 -0.4791
20907SOL    HW164653   2.051   6.261   7.202  1.3330 -1.7644 -0.1803
20907SOL    HW264654   2.095   6.315   7.336  0.9548 -1.1114 -0.3131
20908SOL     OW64655   2.319   0.690   0.982 -0.0690 -0.4026 -0.3936
20908SOL    HW164656   2.317   0.629   1.056 -1.6436 -1.4132 -1.2270
20908SOL    HW264657   2.352   0.638   0.909  2.2475  0.7920 -0.3129
20909SOL     OW64658   6.438   3.510   0.302 -0.5993  0.2174  0.1836
20909SOL    HW164659   6.512   3.450   0.308 -1.0682 -0.8209 -2.7338
20909SOL    HW264660   6.458   3.565   0.227 -2.0969  0.9358  0.2700
20910SOL     OW64661   1.247   4.109   6.442 -0.3328 -0.1288 -0.1749
20910SOL    HW164662   1.256   4.028   6.492  0.2597  0.1916  0.2510
20910SOL    HW264663   1.212   4.081   6.357 -0.4721 -0.7863  0.0954
20911SOL     OW64664   2.140   3.396   2.687 -0.0972  0.4979 -0.4278
20911SOL    HW164665   2.154   3.326   2.751 -0.7371  1.3210  0.6544
20911SOL    HW264666   2.075   3.360   2.627 -0.5413  0.2055  0.2140
20912SOL     OW64667   4.990   5.648   7.488  0.2756  0.0361 -0.5767
20912SOL    HW164668   4.986   5.571   7.431 -0.5442 -0.6458  0.3730
20912SOL    HW264669   4.906   5.649   7.533  0.3170  1.4409 -0.4938
20913SOL     OW64670   3.199   6.946   2.412 -0.1337  0.3668  0.1500
20913SOL    HW164671   3.115   6.990   2.424 -0.0663  0.2284  1.2286
20913SOL    HW264672   3.252   6.976   2.485  1.3391  1.7449 -1.3994
20914SOL     OW64673   4.674   5.497   3.194  0.1670  0.3342  0.0025
20914SOL    HW164674   4.719   5.580   3.181 -0.6490  0.5148 -2.1669
20914SOL    HW264675   4.623   5.509   3.274  0.5821  1.6754  0.0852
20915SOL     OW64676   1.973   0.772   7.309  0.1664  0.0391  1.0590
20915SOL    HW164677   2.049   0.811   7.351  0.4678 -0.0644  0.6064
20915SOL    HW264678   1.948   0.834   7.241 -1.3510  1.0426  2.4599
20916SOL     OW64679   8.216   1.114   2.447  0.1448 -0.0795 -0.5647
20916SOL    HW164680   8.265   1.192   2.422 -0.1765  0.5859  0.7815
20916SOL    HW264681   8.133   1.121   2.399  0.2634  0.2248 -0.7226
20917SOL     OW64682   3.891   6.673   4.533  0.4807  0.6434 -0.3502
20917SOL    HW164683   3.955   6.695   4.600 -0.0830  1.8347 -0.1822
20917SOL    HW264684   3.902   6.579   4.519  0.5150  0.3492  1.4894
20918SOL     OW64685   8.327   4.342   3.762 -0.0220 -0.7158 -0.2008
20918SOL    HW164686   8.368   4.369   3.844 -1.0926 -0.7845  0.3692
20918SOL    HW264687   8.309   4.424   3.716  0.6532 -0.6806 -0.4139
20919SOL     OW64688   6.407   6.629   2.335 -0.8331  0.0726 -0.1243
20919SOL    HW164689   6.470   6.558   2.335  0.2784  1.0269 -0.3747
20919SOL    HW264690   6.322   6.586   2.323 -0.3249 -1.2928  0.9716
20920SOL     OW64691   7.815   3.977   2.814 -0.1320 -0.7451  0.3230
20920SOL    HW164692   7.848   3.967   2.724  1.4840 -1.8719  0.9794
20920SOL    HW264693   7.749   4.045   2.808  0.1572 -0.5731 -1.6733
20921SOL     OW64694   2.176   1.061   3.681  0.7818 -0.3869  0.5855
20921SOL    HW164695   2.234   1.132   3.710  1.2664  0.2727 -1.7702
20921SOL    HW264696   2.232   1.007   3.625 -0.9748  0.7342 -2.4670
20922SOL     OW64697   4.933   3.855   1.934 -0.5752  0.7212 -0.0169
20922SOL    HW164698   4.878   3.849   1.856 -1.9863 -0.4872  1.0174
20922SOL    HW264699   4.949   3.765   1.960  3.6726  0.8613 -1.3606
20923SOL     OW64700   5.679   7.471   0.625 -0.5505 -0.6399 -0.0791
20923SOL    HW164701   5.742   7.440   0.560 -0.6543 -0.8198 -0.0944
20923SOL    HW264702   5.629   7.393   0.649 -0.9351 -0.4532 -0.2515
20924SOL     OW64703   3.959   2.496   8.229 -0.2874 -0.6773  0.3687
20924SOL    HW164704   3.941   2.586   8.200 -0.7091 -0.6553  0.6917
20924SOL    HW264705   3.985   2.450   8.150 -1.4013 -0.6108 -0.0448
20925SOL     OW64706   7.170   5.834   6.297 -0.4659  0.0860 -0.1747
20925SOL    HW164707   7.186   5.918   6.342 -2.0084  1.5664 -2.2145
20925SOL    HW264708   7.118   5.784   6.360  0.4973  0.5959  1.0946
20926SOL     OW64709   1.264   4.704   7.946 -0.3600 -0.3093  0.3368
20926SOL    HW164710   1.211   4.638   7.991 -0.4605 -1.5261 -1.4756
20926SOL    HW264711   1.212   4.784   7.952 -1.7179 -1.1242 -0.0708
20927SOL     OW64712   7.542   3.497   1.944 -0.3327  0.0644  0.3578
20927SOL    HW164713   7.515   3.425   2.001 -2.3252  0.2842 -0.2353
20927SOL    HW264714   7.561   3.456   1.860  1.2793 -0.0809  0.7532
20928SOL     OW64715   6.858   5.778   0.577 -0.6400  0.3445 -0.1117
20928SOL    HW164716   6.838   5.845   0.642  0.4757  1.5652 -0.9602
20928SOL    HW264717   6.954   5.780   0.570 -0.6328 -0.8580 -0.6838
20929SOL     OW64718   3.028   2.837   2.139 -0.3321 -0.2653  0.1297
20929SOL    HW164719   3.099   2.899   2.155  0.2405 -0.8107 -0.2443
20929SOL    HW264720   3.070   2.765   2.091 -1.2760 -0.2845 -0.6892
20930SOL     OW64721   2.374   3.262   4.176 -0.2992 -0.1557  0.5617
20930SOL    HW164722   2.327   3.209   4.240 -0.6638  1.0525  1.3303
20930SOL    HW264723   2.363   3.352   4.207  1.1606  0.2875 -0.1380
20931SOL     OW64724   2.645   5.269   8.187  0.2023  0.5394 -0.3004
20931SOL    HW164725   2.698   5.202   8.230 -1.0913  0.0008  0.5350
20931SOL    HW264726   2.689   5.351   8.205  1.9201 -0.0680 -1.4817
20932SOL     OW64727   1.352   1.190   6.663 -0.1733  0.4033 -0.0831
20932SOL    HW164728   1.435   1.141   6.666 -0.5830 -0.3302 -0.4119
20932SOL    HW264729   1.375   1.273   6.621  0.1652 -0.2925 -1.3251
20933SOL     OW64730   6.738   2.179   1.112  0.2671 -0.0258 -0.2455
20933SOL    HW164731   6.749   2.156   1.204 -0.6731 -1.1657 -0.3961
20933SOL    HW264732   6.739   2.275   1.111 -1.9392  0.1038  1.2954
20934SOL     OW64733   4.968   3.221   7.602 -0.0748  0.0466  0.2177
20934SOL    HW164734   4.985   3.282   7.530  0.3338 -0.1757  0.1187
20934SOL    HW264735   5.006   3.139   7.572 -1.6936 -0.5912 -0.1668
20935SOL     OW64736   5.144   5.559   1.321 -0.2608 -0.5228 -0.0318
20935SOL    HW164737   5.149   5.616   1.244 -0.5894 -0.0158  0.3190
20935SOL    HW264738   5.093   5.609   1.385 -1.6830 -1.7317 -0.1786
20936SOL     OW64739   6.632   1.796   1.058 -0.2765 -0.3168  0.1810
20936SOL    HW164740   6.692   1.794   1.132 -1.2665 -0.0622  1.0166
20936SOL    HW264741   6.545   1.787   1.098 -0.8430  0.0981 -0.9230
20937SOL     OW64742   8.308   4.057   0.042 -0.6271 -0.3666  0.0790
20937SOL    HW164743   8.279   3.966   0.036 -1.1384 -0.2230  0.3584
20937SOL    HW264744   8.233   4.104   0.080  0.2838 -0.1601  1.7313
20938SOL     OW64745   2.405   3.284   7.223  0.5011 -0.2326  0.3732
20938SOL    HW164746   2.456   3.207   7.199  1.1057  0.6815 -1.3713
20938SOL    HW264747   2.368   3.316   7.141 -1.8966 -0.1314  1.3956
20939SOL     OW64748   6.553   5.551   3.783 -0.0823 -0.2493 -0.0149
20939SOL    HW164749   6.590   5.615   3.724 -1.4888  0.2147 -0.4366
20939SOL    HW264750   6.471   5.524   3.742 -1.3639  0.4581  1.9190
20940SOL     OW64751   3.118   1.352   6.163  0.3148  0.2407  0.2837
20940SOL    HW164752   3.168   1.281   6.122 -1.6632 -0.6645 -0.7246
20940SOL    HW264753   3.162   1.432   6.134  1.5536 -0.5131 -0.0081
20941SOL     OW64754   2.285   5.669   8.450  0.3204 -0.0619 -0.2094
20941SOL    HW164755   2.257   5.642   8.537 -0.1294 -0.3796 -0.4538
20941SOL    HW264756   2.377   5.694   8.462  0.6051 -1.2189  0.1221
20942SOL     OW64757   8.440   0.464   5.282  0.1124 -0.3847 -0.6390
20942SOL    HW164758   8.469   0.547   5.318  3.1587 -1.5615 -0.1158
20942SOL    HW264759   8.375   0.488   5.215  1.0745  2.4027 -0.6976
20943SOL     OW64760   5.795   3.359   8.552  0.0240  0.0894 -0.1221
20943SOL    HW164761   5.790   3.453   8.531 -0.1571 -0.1370 -1.1281
20943SOL    HW264762   5.770   3.354   8.644 -1.0272  0.9162 -0.3448
20944SOL     OW64763   0.106   3.846   7.442 -0.2062  0.0274 -0.3329
20944SOL    HW164764   0.098   3.779   7.374  0.7515  0.0021 -0.4281
20944SOL    HW264765   0.195   3.837   7.475 -0.7160 -0.0900  1.0862
20945SOL     OW64766   2.955   8.222   6.914 -0.5040  0.1479  0.0755
20945SOL    HW164767   2.990   8.311   6.906 -1.8484  0.6089 -0.9409
20945SOL    HW264768   2.914   8.205   6.830  2.5142 -2.7342 -1.0202
20946SOL     OW64769   8.845   3.927   4.384  0.2747  0.1241  0.1961
20946SOL    HW164770   8.839   3.996   4.317 -1.3000 -0.4384 -0.2818
20946SOL    HW264771   8.754   3.912   4.410  0.5391 -2.0672 -0.0082
20947SOL     OW64772   3.702   7.775   4.234 -0.3729 -0.2158  0.7131
20947SOL    HW164773   3.637   7.721   4.188  0.1306 -0.1523 -0.1036
20947SOL    HW264774   3.652   7.844   4.276 -0.9046 -0.6060  0.7242
20948SOL     OW64775   4.898   1.487   2.643  0.0935 -0.5817 -0.2286
20948SOL    HW164776   4.807   1.503   2.619 -0.0456 -0.0837  0.5912
20948SOL    HW264777   4.928   1.570   2.681  0.0959 -1.4515  1.8335
20949SOL     OW64778   7.938   6.725   0.629  0.4795 -0.5413 -0.2493
20949SOL    HW164779   7.946   6.707   0.723  2.9966  0.1077 -0.2660
20949SOL    HW264780   8.011   6.677   0.589  0.3012  0.3142 -1.6834
20950SOL     OW64781   1.189   6.471   1.527  0.6082  0.2397 -0.8277
20950SOL    HW164782   1.245   6.426   1.465 -1.2913 -0.0391 -2.4642
20950SOL    HW264783   1.195   6.419   1.607  1.1343 -0.9403 -1.6010
20951SOL     OW64784   0.842   2.794   5.365 -0.6332 -0.6560  0.9193
20951SOL    HW164785   0.823   2.880   5.402 -0.3256  0.0102 -0.3794
20951SOL    HW264786   0.938   2.790   5.364 -0.6466 -0.9655  0.8608
20952SOL     OW64787   6.006   5.000   0.735 -0.1474 -0.3112 -0.0512
20952SOL    HW164788   5.994   4.996   0.640 -2.1668  2.1950  0.0051
20952SOL    HW264789   6.099   5.021   0.746  0.3064 -1.4405 -1.3966
20953SOL     OW64790   3.276   5.607   0.809  0.1446  0.5692  0.4260
20953SOL    HW164791   3.300   5.521   0.776 -0.8653  1.0669 -1.8616
20953SOL    HW264792   3.221   5.590   0.885 -0.6091 -0.8498 -0.4013
20954SOL     OW64793   2.016   6.437   0.861  0.1997  0.2757  0.0271
20954SOL    HW164794   2.032   6.443   0.955 -0.3251 -0.7193  0.2025
20954SOL    HW264795   2.000   6.527   0.833 -0.9606  0.4495  1.1441
20955SOL     OW64796   0.124   6.504   6.065  0.0486  0.8041  0.6391
20955SOL    HW164797   0.053   6.459   6.111 -0.2998  0.9939  0.2950
20955SOL    HW264798   0.080   6.552   5.995  0.5754  0.4727  0.0715
20956SOL     OW64799   7.521   6.813   8.782  0.5719  0.5073  0.6133
20956SOL    HW164800   7.542   6.730   8.740 -0.2629  0.7915 -0.4163
20956SOL    HW264801   7.440   6.795   8.830  1.0419  0.4228  1.3958
20957SOL     OW64802   7.966   0.366   7.992  0.0350  0.1442 -0.0854
20957SOL    HW164803   7.983   0.364   8.087  0.0139 -0.4461 -0.0859
20957SOL    HW264804   8.044   0.326   7.953  0.2484  0.8155 -0.3552
20958SOL     OW64805   6.861   7.476   0.821 -0.8597 -0.1632  0.2399
20958SOL    HW164806   6.929   7.410   0.810 -0.4658  0.1282  0.9002
20958SOL    HW264807   6.779   7.426   0.819 -0.5331 -0.7830  1.5739
20959SOL     OW64808   7.624   6.838   4.890 -0.1827  0.2444  0.5960
20959SOL    HW164809   7.556   6.819   4.825  0.8447  0.2678 -0.5261
20959SOL    HW264810   7.583   6.820   4.974 -1.0530 -1.4241 -0.1318
20960SOL     OW64811   5.975   8.695   2.021 -0.3779 -0.8688 -0.3613
20960SOL    HW164812   5.977   8.640   2.100  1.7116 -2.1177 -1.2070
20960SOL    HW264813   5.912   8.651   1.963 -0.3598 -1.1269 -0.1870
20961SOL     OW64814   5.615   5.038   7.664 -0.2169 -0.1601 -0.1815
20961SOL    HW164815   5.591   5.118   7.616  1.3373  0.3309 -0.2038
20961SOL    HW264816   5.568   5.045   7.747 -0.5602  0.5062 -0.4249
20962SOL     OW64817   3.870   1.836   1.456  0.2553  0.5042 -0.2936
20962SOL    HW164818   3.964   1.827   1.467 -0.0392  0.0335  2.6543
20962SOL    HW264819   3.833   1.808   1.540 -2.5919 -0.4394 -1.7135
20963SOL     OW64820   1.657   0.053   7.154  0.3963  0.1975  0.0892
20963SOL    HW164821   1.723   0.091   7.096 -0.1966  1.8091  0.4179
20963SOL    HW264822   1.596   0.008   7.095  0.6914  0.4214 -0.3918
20964SOL     OW64823   7.520   5.431   8.386  0.3191 -0.1822 -0.0218
20964SOL    HW164824   7.524   5.348   8.338  0.0930 -0.5163  0.5340
20964SOL    HW264825   7.611   5.461   8.390  0.8739 -1.8880  2.3364
20965SOL     OW64826   3.215   3.875   2.716  0.0554 -0.0759  0.0105
20965SOL    HW164827   3.246   3.826   2.640  1.9551 -0.4717  0.9731
20965SOL    HW264828   3.147   3.820   2.754 -0.9538  0.1485 -1.3952
20966SOL     OW64829   1.616   7.479   2.361 -0.0092 -0.3908  0.3263
20966SOL    HW164830   1.588   7.523   2.280  1.7200  0.0436 -0.0791
20966SOL    HW264831   1.707   7.453   2.343  0.4828 -0.0825  2.2130
20967SOL     OW64832   0.749   2.665   8.824 -0.0460  0.5819 -0.1964
20967SOL    HW164833   0.835   2.664   8.865 -0.0115  0.6659 -0.2687
20967SOL    HW264834   0.762   2.707   8.740 -0.0734  0.2085 -0.3880
20968SOL     OW64835   5.296   2.061   2.518 -0.1555 -0.0263  0.4473
20968SOL    HW164836   5.220   2.013   2.484  0.1024  0.3599 -0.7440
20968SOL    HW264837   5.321   2.119   2.446  2.0372 -1.0302  0.3017
20969SOL     OW64838   2.697   0.339   3.071  0.0333  0.0938  0.3078
20969SOL    HW164839   2.656   0.334   2.985  0.3483 -0.2357  0.1770
20969SOL    HW264840   2.791   0.342   3.054  0.1171 -0.3992  0.6486
20970SOL     OW64841   1.645   4.389   8.618  0.3033 -0.2260  0.0125
20970SOL    HW164842   1.718   4.434   8.662 -0.1173  0.1035  0.3793
20970SOL    HW264843   1.644   4.302   8.657 -0.7757  0.4168  1.5027
20971SOL     OW64844   0.485   3.804   0.723 -0.2526 -0.5052 -0.2937
20971SOL    HW164845   0.495   3.895   0.750 -1.9883 -0.3721  0.0494
20971SOL    HW264846   0.540   3.755   0.784  1.1873  0.3446 -0.8798
20972SOL     OW64847   7.733   5.083   4.976 -0.7214  0.2798 -0.1732
20972SOL    HW164848   7.653   5.135   4.971 -1.9245 -1.4137  0.3583
20972SOL    HW264849   7.724   5.017   4.907 -0.2847 -0.5704  0.5593
20973SOL     OW64850   1.393   6.367   3.524  0.1108 -0.9123  0.2821
20973SOL    HW164851   1.463   6.384   3.588  0.1635  3.7882 -0.6150
20973SOL    HW264852   1.421   6.289   3.477  3.7520 -0.4172  1.3404
20974SOL     OW64853   1.669   2.835   2.014  0.2079  0.6859  0.3102
20974SOL    HW164854   1.762   2.846   2.035  0.4662 -0.0951 -0.4004
20974SOL    HW264855   1.660   2.742   1.994 -0.8860  0.5974  1.1074
20975SOL     OW64856   3.706   8.198   7.883 -0.1532 -0.3187 -0.3766
20975SOL    HW164857   3.672   8.193   7.972  1.9451 -1.8997  0.4160
20975SOL    HW264858   3.633   8.233   7.831 -1.7828 -0.3780  1.7488
20976SOL     OW64859   1.641   8.209   0.098 -0.5906  0.0757  0.5505
20976SOL    HW164860   1.626   8.225   0.005 -1.4823  2.1175  0.9935
20976SOL    HW264861   1.601   8.284   0.142  1.0431 -0.1263  2.5200
20977SOL     OW64862   4.101   8.222   3.655 -0.2007  0.0708  0.2771
20977SOL    HW164863   4.050   8.160   3.707 -0.1679 -0.3270 -0.1586
20977SOL    HW264864   4.064   8.308   3.677 -0.8119 -0.1784  0.2475
20978SOL     OW64865   5.554   4.934   6.399  0.2293  0.1465  0.0872
20978SOL    HW164866   5.496   4.914   6.472  0.2340 -0.1934  0.0002
20978SOL    HW264867   5.620   4.993   6.435  1.7883 -2.0717  1.0384
20979SOL     OW64868   7.360   5.553   2.039  0.4278 -0.7922  0.2311
20979SOL    HW164869   7.267   5.569   2.056  0.4280 -0.6097  0.0698
20979SOL    HW264870   7.364   5.536   1.945  0.7362  0.5794 -0.0205
20980SOL     OW64871   4.212   7.194   6.652 -0.1380  0.7303  0.0496
20980SOL    HW164872   4.125   7.174   6.687  0.3050 -1.4491  0.0370
20980SOL    HW264873   4.196   7.243   6.572 -1.3738  0.1627 -0.0626
20981SOL     OW64874   4.283   1.843   0.554 -0.1894  0.0128 -0.1317
20981SOL    HW164875   4.204   1.788   0.553  0.2797 -0.7543  1.5664
20981SOL    HW264876   4.355   1.781   0.544  0.2389  0.6777 -1.3450
20982SOL     OW64877   5.391   5.269   3.774 -0.0760  0.1204 -0.2032
20982SOL    HW164878   5.476   5.312   3.786 -0.3051  0.8306 -1.0504
20982SOL    HW264879   5.329   5.342   3.767 -0.5724 -0.3716 -0.9157
20983SOL     OW64880   7.707   7.669   6.290 -0.2017 -0.0671 -0.0219
20983SOL    HW164881   7.736   7.689   6.379 -0.0902  1.5176 -0.3716
20983SOL    HW264882   7.616   7.644   6.300 -0.7121  1.7699  0.4154
20984SOL     OW64883   4.848   7.504   7.136  0.0458 -0.5278  0.0035
20984SOL    HW164884   4.859   7.585   7.085  1.4001 -1.4527 -1.2729
20984SOL    HW264885   4.821   7.534   7.223 -0.7441  1.2086 -0.7951
20985SOL     OW64886   8.516   6.515   7.231 -0.1287 -0.6024 -0.4444
20985SOL    HW164887   8.570   6.460   7.288  0.3317  0.9637  0.6795
20985SOL    HW264888   8.555   6.505   7.144 -0.1451 -2.1353 -0.3047
20986SOL     OW64889   6.113   5.016   5.318  0.2148 -0.0997 -0.0461
20986SOL    HW164890   6.103   5.031   5.224 -2.3161 -1.5295 -0.1110
20986SOL    HW264891   6.174   4.942   5.325  0.2995 -0.0810 -0.5800
20987SOL     OW64892   5.117   8.645   0.999  0.4249 -0.1680  0.2528
20987SOL    HW164893   5.026   8.641   1.030  0.4341  1.1437  0.4898
20987SOL    HW264894   5.161   8.703   1.060  1.3753 -0.5787 -0.0188
20988SOL     OW64895   1.545   3.330   8.439 -0.3038 -0.4661  0.0244
20988SOL    HW164896   1.488   3.330   8.361 -0.5898  2.1296  0.1638
20988SOL    HW264897   1.634   3.328   8.404 -0.4261 -1.5316 -0.2707
20989SOL     OW64898   7.548   5.091   6.024  0.3570 -0.2898 -0.0548
20989SOL    HW164899   7.594   5.011   6.050  2.9298  1.6595  1.8664
20989SOL    HW264900   7.488   5.108   6.096  1.2938  0.5604  0.5408
20990SOL     OW64901   6.134   0.221   0.954 -0.4878  0.2396 -0.6917
20990SOL    HW164902   6.078   0.225   0.876  1.5186 -0.3414 -2.2650
20990SOL    HW264903   6.137   0.128   0.977  1.7311 -0.1634 -2.2173
20991SOL     OW64904   7.801   3.024   7.084  0.3260 -0.0462  0.0534
20991SOL    HW164905   7.876   3.059   7.037  1.5785 -1.2719  1.0396
20991SOL    HW264906   7.839   2.964   7.149 -1.4885 -0.5147  0.7570
20992SOL     OW64907   5.493   4.901   3.597 -0.2577 -0.4791 -0.2214
20992SOL    HW164908   5.414   4.952   3.612  1.7959  2.5569  1.2752
20992SOL    HW264909   5.502   4.846   3.675  0.1335  0.6945  0.5781
20993SOL     OW64910   2.240   8.742   6.374 -0.1479  0.3019 -0.4268
20993SOL    HW164911   2.157   8.782   6.347  0.2328  1.6324  0.2805
20993SOL    HW264912   2.307   8.798   6.335  0.4064  0.5147  0.7890
20994SOL     OW64913   7.577   4.254   0.389  0.5901 -0.2698 -0.0898
20994SOL    HW164914   7.544   4.323   0.332 -1.2877 -0.4956  0.6565
20994SOL    HW264915   7.599   4.299   0.471 -1.5646 -0.6269  0.7439
20995SOL     OW64916   2.955   4.986   1.202  0.6228  0.0364  0.5620
20995SOL    HW164917   2.994   4.902   1.178  0.5797 -0.0933  0.9472
20995SOL    HW264918   3.002   5.013   1.281  2.0406  1.3399 -0.6560
20996SOL     OW64919   2.516   0.513   5.198  0.1217 -0.1208 -0.1444
20996SOL    HW164920   2.542   0.449   5.265  0.2304 -0.5913 -0.6347
20996SOL    HW264921   2.500   0.593   5.248 -0.2683 -0.5919  0.5116
20997SOL     OW64922   5.608   6.857   7.428  0.3144  0.1613  0.3544
20997SOL    HW164923   5.539   6.793   7.411  1.8380 -1.1524 -1.2618
20997SOL    HW264924   5.567   6.921   7.488 -2.2033 -0.6316 -0.3868
20998SOL     OW64925   3.591   6.560   7.207 -0.4479  0.7766 -0.9047
20998SOL    HW164926   3.623   6.503   7.276 -2.1469 -0.0879 -0.7874
20998SOL    HW264927   3.589   6.647   7.246  0.9553  0.7336 -0.6865
20999SOL     OW64928   6.472   4.969   5.090  0.0521 -0.1992 -0.4958
20999SOL    HW164929   6.463   4.875   5.105 -0.3665 -0.2569 -1.0763
20999SOL    HW264930   6.440   4.982   5.001 -3.0810  0.9763  0.6880
21000SOL     OW64931   5.252   8.767   7.357 -0.1021 -0.1793  0.4778
21000SOL    HW164932   5.178   8.795   7.303 -0.8912 -0.6695  1.2900
21000SOL    HW264933   5.250   8.825   7.433 -0.0947 -0.6673  0.8532
21001SOL     OW64934   8.746   2.629   5.842  0.0190  0.1124 -0.0663
21001SOL    HW164935   8.834   2.593   5.855  0.0090 -0.0146 -0.3334
21001SOL    HW264936   8.711   2.579   5.768 -0.0773  0.5247 -0.3029
21002SOL     OW64937   1.949   8.615   0.735 -0.2721 -0.3527 -0.0276
21002SOL    HW164938   1.859   8.586   0.720 -0.4867  0.6617 -0.7863
21002SOL    HW264939   1.947   8.653   0.823 -0.5614 -0.3903 -0.0157
21003SOL     OW64940   5.601   0.019   6.565  0.0983  0.3454  0.0802
21003SOL    HW164941   5.575   0.049   6.652  1.4778  0.9828  0.3065
21003SOL    HW264942   5.605  -0.076   6.572 -3.3627  0.0538 -0.3559
21004SOL     OW64943   4.149   2.567   6.939 -0.0604  0.5022  0.2477
21004SOL    HW164944   4.192   2.489   6.902 -0.1905  0.1451  0.8344
21004SOL    HW264945   4.068   2.534   6.976 -0.2379  0.9682  0.2752
21005SOL     OW64946   6.468   4.092   4.833  0.3879 -0.2716 -0.1747
21005SOL    HW164947   6.564   4.094   4.834  0.3818  0.2624 -0.0872
21005SOL    HW264948   6.443   4.185   4.834 -0.0902 -0.2978 -2.4658
21006SOL     OW64949   0.540   2.239   1.022  0.0907  1.1341 -0.1052
21006SOL    HW164950   0.614   2.225   1.081 -0.1491  0.7522  0.1044
21006SOL    HW264951   0.508   2.327   1.045  0.9377  1.6184 -0.7127
21007SOL     OW64952   2.741   3.774   8.116  0.5489  0.6485 -0.7385
21007SOL    HW164953   2.752   3.741   8.027  0.8967  1.7824 -1.1424
21007SOL    HW264954   2.826   3.813   8.137  0.3774  0.6459 -0.0295
21008SOL     OW64955   2.540   1.655   2.123  0.4787  0.2262 -0.3069
21008SOL    HW164956   2.467   1.678   2.182  0.3080  0.5891 -0.6507
21008SOL    HW264957   2.507   1.678   2.036  1.6988  2.2574 -0.3101
21009SOL     OW64958   4.587   0.026   4.480 -0.1885  0.5268 -0.2682
21009SOL    HW164959   4.535   0.020   4.400  0.4956 -1.8288 -0.6062
21009SOL    HW264960   4.636   0.108   4.470 -1.3906  1.1458 -1.4375
21010SOL     OW64961   1.466   5.279   0.500  0.3675  0.0012 -0.6047
21010SOL    HW164962   1.448   5.186   0.486  1.3743 -0.1110 -1.2845
21010SOL    HW264963   1.436   5.297   0.589 -1.1509 -0.6257 -0.9662
21011SOL     OW64964   8.051   8.620   7.962  0.1601 -0.5103 -0.2780
21011SOL    HW164965   8.077   8.546   8.016  0.9743  1.1033  1.6637
21011SOL    HW264966   8.133   8.657   7.931 -0.1950  0.0407 -0.5835
21012SOL     OW64967   4.229   8.201   0.232  0.1614 -0.5057  0.0815
21012SOL    HW164968   4.279   8.198   0.151  0.3247  0.7655  0.1126
21012SOL    HW264969   4.295   8.209   0.301 -0.0180 -0.5203  0.2572
21013SOL     OW64970   0.071   1.856   7.364 -0.3166 -0.1144  0.7374
21013SOL    HW164971   0.052   1.934   7.416  0.6400  0.5565  0.0998
21013SOL    HW264972   0.125   1.887   7.292  2.2547 -1.7222  1.8374
21014SOL     OW64973   2.053   2.004   1.801  0.7167 -0.0977  0.3518
21014SOL    HW164974   2.024   1.979   1.889  1.3509 -1.1386  0.2774
21014SOL    HW264975   2.133   2.055   1.816 -0.0489  1.1348  0.4457
21015SOL     OW64976   6.681   3.360   0.254  0.6671  0.8008 -0.7911
21015SOL    HW164977   6.648   3.306   0.182  1.0132  0.1571 -0.4759
21015SOL    HW264978   6.774   3.373   0.233  0.5899  1.2599 -0.8549
21016SOL     OW64979   0.543   0.266   6.662  0.0059 -0.3811 -0.2014
21016SOL    HW164980   0.458   0.270   6.707 -0.0806  0.1785 -0.4099
21016SOL    HW264981   0.520   0.247   6.571  0.1609 -1.1361 -0.0916
21017SOL     OW64982   6.027   0.704   8.155  0.3989 -0.1689 -0.4319
21017SOL    HW164983   6.117   0.676   8.169  1.0564  1.7652 -0.4854
21017SOL    HW264984   6.032   0.800   8.148 -1.6038 -0.0403 -0.8313
21018SOL     OW64985   4.464   1.959   3.092 -0.3323 -0.2915 -0.1140
21018SOL    HW164986   4.378   1.974   3.053 -1.1349  1.8024  2.1771
21018SOL    HW264987   4.521   2.023   3.049  0.1674 -1.7041 -1.6588
21019SOL     OW64988   8.401   0.582   3.245  0.0310  0.4516  0.5725
21019SOL    HW164989   8.358   0.551   3.166  0.0534  2.4109 -0.2554
21019SOL    HW264990   8.432   0.503   3.288 -0.8755 -0.7213 -0.8509
21020SOL     OW64991   2.632   6.913   1.469  0.0633  0.3595  0.1610
21020SOL    HW164992   2.681   6.835   1.443 -1.4075 -0.0956 -1.4255
21020SOL    HW264993   2.611   6.898   1.562 -1.1535 -1.7091 -0.3815
21021SOL     OW64994   2.058   8.385   7.838  0.3701  0.2989 -0.4877
21021SOL    HW164995   1.996   8.412   7.906  0.3617 -0.7944 -0.0499
21021SOL    HW264996   2.060   8.290   7.844 -1.6500 -0.0928 -3.7986
21022SOL     OW64997   5.266   1.269   0.767 -0.0487  0.0954  0.1247
21022SOL    HW164998   5.201   1.202   0.788 -1.1175  1.8142  2.8573
21022SOL    HW264999   5.318   1.277   0.846  1.2439  1.2308 -0.7988
21023SOL     OW65000   1.039   0.750   4.622  0.1469 -0.1982  0.1858
21023SOL    HW165001   1.063   0.838   4.651  0.4042 -0.2581  0.1488
21023SOL    HW265002   0.945   0.757   4.602  0.0328 -0.0808  0.7452
21024SOL     OW65003   6.716   8.210   6.837  0.0548  0.1590  0.1358
21024SOL    HW165004   6.663   8.129   6.837 -0.2201  0.3358  0.1183
21024SOL    HW265005   6.689   8.256   6.917 -0.0551  0.4032 -0.0406
21025SOL     OW65006   6.156   1.026   4.965 -0.4775 -0.4511  0.7772
21025SOL    HW165007   6.235   0.972   4.963 -1.2584 -1.7622 -3.0980
21025SOL    HW265008   6.084   0.964   4.960 -1.5025  0.7825 -1.2059
21026SOL     OW65009   7.250   3.844   3.838 -0.5091 -0.2980  0.2569
21026SOL    HW165010   7.296   3.915   3.793 -1.0422 -0.1562 -0.0736
21026SOL    HW265011   7.250   3.869   3.930  2.2296 -1.4738  0.6686
21027SOL     OW65012   6.287   1.709   5.915  0.4249  0.4569 -0.0023
21027SOL    HW165013   6.236   1.628   5.906  1.3827 -0.2349  0.6061
21027SOL    HW265014   6.222   1.779   5.907 -0.4847 -0.3754 -0.1335
21028SOL     OW65015   6.830   7.913   7.858  0.2252  0.6163 -0.7603
21028SOL    HW165016   6.775   7.849   7.812  0.5808  0.5393 -1.0783
21028SOL    HW265017   6.919   7.886   7.838  0.4084 -0.0510  0.8160
21029SOL     OW65018   2.812   3.689   5.516  0.8320  0.0489 -0.0596
21029SOL    HW165019   2.799   3.784   5.517  0.3612 -0.0167  1.0769
21029SOL    HW265020   2.766   3.658   5.593  1.9433 -0.9814  0.2139
21030SOL     OW65021   6.572   4.420   7.949 -0.1726 -0.4003  0.1290
21030SOL    HW165022   6.549   4.507   7.981  0.1242 -0.9240  1.9253
21030SOL    HW265023   6.589   4.431   7.856 -2.8118  0.9308 -0.2696
21031SOL     OW65024   6.922   8.831   5.084  0.7218 -0.1336  0.2838
21031SOL    HW165025   6.919   8.790   4.998  3.5714 -2.4721  1.1207
21031SOL    HW265026   6.930   8.925   5.066 -1.2966 -0.2974 -1.8526
21032SOL     OW65027   5.736   6.652   7.670 -0.4598  0.3062  0.4618
21032SOL    HW165028   5.694   6.660   7.585 -0.2347 -1.0196  0.2091
21032SOL    HW265029   5.726   6.560   7.694  0.5147  0.3997  1.3267
21033SOL     OW65030   4.378   6.917   7.232 -0.0467 -0.1509  0.4667
21033SOL    HW165031   4.344   6.854   7.168 -1.9463  2.1393 -0.9393
21033SOL    HW265032   4.305   6.932   7.292  0.7420 -0.0624  1.4300
21034SOL     OW65033   1.027   7.812   1.457  0.5678 -0.3098  0.2346
21034SOL    HW165034   0.996   7.892   1.499  0.4561 -0.1763 -0.0998
21034SOL    HW265035   0.953   7.751   1.464 -0.4156  0.5324 -2.0062
21035SOL     OW65036   0.685   0.996   2.877  0.1741 -0.2691 -0.6787
21035SOL    HW165037   0.677   1.086   2.846 -0.3032 -0.6795 -1.7768
21035SOL    HW265038   0.598   0.975   2.912  0.6479  0.1193  0.7868
21036SOL     OW65039   7.636   2.057   5.936  0.1319  0.3254  0.4504
21036SOL    HW165040   7.649   1.977   5.886 -0.1551 -0.5611  1.7341
21036SOL    HW265041   7.555   2.095   5.901 -0.4329 -0.6318  0.6859
21037SOL     OW65042   2.136   7.440   2.758 -0.3767  0.3201  0.1112
21037SOL    HW165043   2.095   7.526   2.750 -0.1249  0.6640  2.1261
21037SOL    HW265044   2.213   7.454   2.813  0.1594 -1.0510 -0.2351
21038SOL     OW65045   6.355   6.717   2.700  0.3526 -0.1630  0.3953
21038SOL    HW165046   6.408   6.778   2.648  0.5342 -0.7130 -0.0868
21038SOL    HW265047   6.266   6.752   2.695  0.0957 -0.9474 -1.4979
21039SOL     OW65048   7.876   4.120   0.567  0.7789 -0.5429  0.4377
21039SOL    HW165049   7.780   4.115   0.573  0.8018 -1.3564  0.2544
21039SOL    HW265050   7.904   4.147   0.654  0.2539  1.9181 -0.0933
21040SOL     OW65051   6.120   4.404   0.885 -0.0166  0.8431 -0.0907
21040SOL    HW165052   6.161   4.482   0.849 -0.1047  0.2873 -1.4434
21040SOL    HW265053   6.188   4.337   0.881 -0.7539  0.1430 -1.5389
21041SOL     OW65054   1.714   3.591   1.185 -0.5082 -0.6079  0.2147
21041SOL    HW165055   1.779   3.629   1.126 -0.7082  1.0458  0.9912
21041SOL    HW265056   1.740   3.500   1.195  0.6512 -0.4233 -0.8811
21042SOL     OW65057   1.874   3.340   7.629 -0.0553 -0.6725  0.0401
21042SOL    HW165058   1.932   3.305   7.697 -0.0976 -0.8736 -0.0276
21042SOL    HW265059   1.789   3.302   7.648  0.4546 -2.8675 -1.6603
21043SOL     OW65060   1.061   8.803   4.035 -0.0537 -0.3937  0.3608
21043SOL    HW165061   0.966   8.798   4.043 -0.0081 -0.5226  0.8986
21043SOL    HW265062   1.084   8.737   3.970 -0.1531 -1.8576  1.7305
21044SOL     OW65063   8.791   2.420   5.656  0.3887  0.0554  0.2829
21044SOL    HW165064   8.727   2.382   5.596  0.3105 -0.3042  0.5913
21044SOL    HW265065   8.822   2.347   5.708  0.6630  0.3183  0.4923
21045SOL     OW65066   4.632   1.841   1.386 -0.1916 -0.5425 -0.0997
21045SOL    HW165067   4.711   1.866   1.337 -0.3247 -2.3819 -1.3731
21045SOL    HW265068   4.658   1.762   1.434 -1.7817 -2.6009 -2.3868
21046SOL     OW65069   1.694   0.720   6.463  0.3745 -0.0876  0.6753
21046SOL    HW165070   1.653   0.714   6.549 -0.7637 -1.7969  0.0637
21046SOL    HW265071   1.639   0.782   6.414 -1.3643 -2.0701 -0.0146
21047SOL     OW65072   0.584   1.400   1.346  0.4297  0.1719 -0.2502
21047SOL    HW165073   0.554   1.330   1.405 -0.8312  1.4505  0.6820
21047SOL    HW265074   0.521   1.399   1.274  0.9033 -0.1712 -0.6740
21048SOL     OW65075   1.146   7.655   3.940 -0.0494 -1.0386 -0.1508
21048SOL    HW165076   1.183   7.570   3.916  0.0979 -1.1807  0.5709
21048SOL    HW265077   1.162   7.663   4.034  0.7439  0.1874 -0.3723
21049SOL     OW65078   4.073   1.705   0.496  0.0195 -0.4944 -0.3413
21049SOL    HW165079   4.074   1.665   0.409  1.1627 -0.5439 -0.3241
21049SOL    HW265080   4.014   1.780   0.488  0.0711 -0.5302 -1.1449
21050SOL     OW65081   6.459   7.130   6.738  0.4485  0.1703  0.7394
21050SOL    HW165082   6.364   7.117   6.735  0.4577  0.2526 -0.6922
21050SOL    HW265083   6.496   7.042   6.737  0.3895  0.1455  0.0172
21051SOL     OW65084   3.814   5.163   3.828  0.0907  0.2564  0.1846
21051SOL    HW165085   3.740   5.180   3.769 -0.0691 -2.3089 -0.4801
21051SOL    HW265086   3.791   5.208   3.909 -3.1389 -1.8610  0.6217
21052SOL     OW65087   0.406   0.045   1.807  0.6541 -0.6233 -0.6764
21052SOL    HW165088   0.450  -0.020   1.752  3.8269  0.8079 -0.1216
21052SOL    HW265089   0.467   0.059   1.880  0.0870  2.7411 -0.6711
21053SOL     OW65090   1.630   7.328   7.088  0.1926  0.5186 -0.0596
21053SOL    HW165091   1.637   7.406   7.033 -0.8272  1.1307  0.6377
21053SOL    HW265092   1.719   7.294   7.093  0.1949 -0.1046 -2.8316
21054SOL     OW65093   4.698   6.439   6.811  0.0930 -0.0039 -0.1262
21054SOL    HW165094   4.654   6.371   6.861  0.8492 -0.4594 -0.0690
21054SOL    HW265095   4.699   6.406   6.721  0.0938  0.1278 -0.1753
21055SOL     OW65096   5.479   5.903   8.683  0.2535 -0.1381  0.4813
21055SOL    HW165097   5.387   5.893   8.661  0.3200  0.2367  0.0252
21055SOL    HW265098   5.481   5.979   8.742  0.3199  0.1460  0.1204
21056SOL     OW65099   6.845   7.616   1.269  0.5121  0.5926 -0.5873
21056SOL    HW165100   6.787   7.639   1.197  1.0773 -0.1842 -1.3122
21056SOL    HW265101   6.810   7.663   1.345 -1.3422 -0.2389 -0.8856
21057SOL     OW65102   4.247   5.828   4.604 -0.4234 -0.2979  0.0765
21057SOL    HW165103   4.225   5.736   4.622  0.9178 -1.4122 -3.1760
21057SOL    HW265104   4.286   5.826   4.517 -0.1104  3.3852 -0.0059
21058SOL     OW65105   4.704   8.107   5.168  0.4758 -0.5590 -0.1033
21058SOL    HW165106   4.701   8.012   5.183  2.6256 -0.7844 -0.8621
21058SOL    HW265107   4.677   8.145   5.252  0.4074 -1.8368  0.4718
21059SOL     OW65108   0.261   6.416   7.047 -0.1483 -0.3072 -0.3125
21059SOL    HW165109   0.346   6.374   7.062  0.5940  1.3441  0.3701
21059SOL    HW265110   0.283   6.503   7.014 -1.5288  0.6016  1.0514
21060SOL     OW65111   0.058   1.339   5.853  0.0630  0.4391 -0.4425
21060SOL    HW165112   0.031   1.386   5.774 -0.8607  2.3915  0.9305
21060SOL    HW265113  -0.022   1.294   5.882  0.2108  0.2842 -0.2753
21061SOL     OW65114   5.004   5.296   3.335 -0.5589  0.4565  0.0707
21061SOL    HW165115   5.018   5.370   3.276  0.8907 -0.1258 -0.3628
21061SOL    HW265116   5.006   5.334   3.423 -1.8310  1.1995 -0.2046
21062SOL     OW65117   8.752   3.360   2.402  0.3212  0.0385  0.0969
21062SOL    HW165118   8.715   3.420   2.337 -1.4654 -0.6461  0.4265
21062SOL    HW265119   8.696   3.283   2.398  0.0701  0.0256  2.5474
21063SOL     OW65120   7.869   8.000   7.113  0.0924  0.3902  0.6669
21063SOL    HW165121   7.818   8.001   7.032 -2.1532 -0.9243  1.9528
21063SOL    HW265122   7.853   8.086   7.152 -0.0612  0.4813  0.4098
21064SOL     OW65123   4.338   0.658   6.838 -0.3085  0.1827 -0.4869
21064SOL    HW165124   4.371   0.626   6.921 -0.2603 -0.4714 -0.7465
21064SOL    HW265125   4.307   0.746   6.856  0.9677  0.5611 -0.0939
21065SOL     OW65126   7.497   2.499   0.535 -0.1931 -0.1582  0.1127
21065SOL    HW165127   7.486   2.556   0.610  0.8320 -0.2466  0.3450
21065SOL    HW265128   7.428   2.524   0.474  0.0721  1.1359  0.3298
21066SOL     OW65129   2.128   2.765   7.060  0.1889  0.2688 -0.3594
21066SOL    HW165130   2.122   2.696   7.127  0.4097 -0.7899 -1.4118
21066SOL    HW265131   2.166   2.840   7.107 -1.2521  0.1415  1.1320
21067SOL     OW65132   5.728   7.192   2.696  0.2407 -0.1017  0.0992
21067SOL    HW165133   5.720   7.274   2.745 -0.3467  0.2476 -0.5671
21067SOL    HW265134   5.725   7.219   2.604  0.4447 -0.8341 -0.1259
21068SOL     OW65135   5.137   0.642   8.747  0.0502 -0.2898  0.8503
21068SOL    HW165136   5.229   0.653   8.722 -0.1253 -0.8321 -0.0611
21068SOL    HW265137   5.122   0.711   8.811  0.2117  1.9796 -1.3909
21069SOL     OW65138   5.738   2.993   3.763  0.0603  0.6690  0.1587
21069SOL    HW165139   5.666   3.013   3.702  0.1275  0.5692  0.0461
21069SOL    HW265140   5.745   3.072   3.817 -0.9080  0.2248  0.9559
21070SOL     OW65141   4.273   0.069   0.863 -0.5207  0.4901  0.3007
21070SOL    HW165142   4.199   0.120   0.896  0.8225  1.9270  1.2172
21070SOL    HW265143   4.314   0.032   0.941 -0.5310 -0.6892 -0.2347
21071SOL     OW65144   8.854   4.320   4.391  0.1702  0.6565  0.2816
21071SOL    HW165145   8.887   4.287   4.475 -1.3910 -2.5241 -0.2016
21071SOL    HW265146   8.759   4.317   4.400 -0.0856 -1.3473 -2.0463
21072SOL     OW65147   5.914   3.115   7.429  0.4121 -0.0675  0.2510
21072SOL    HW165148   5.950   3.133   7.342 -0.8876  0.3524 -0.2308
21072SOL    HW265149   5.834   3.167   7.433  0.2149 -0.4316  1.5355
21073SOL     OW65150   1.162   5.209   3.643 -0.3427  0.4877  0.8261
21073SOL    HW165151   1.133   5.207   3.552  1.1763 -1.8888  0.3103
21073SOL    HW265152   1.084   5.232   3.693 -2.0673 -1.4901 -0.8063
21074SOL     OW65153   7.063   1.167   1.050 -0.6875  0.0250 -0.3284
21074SOL    HW165154   7.032   1.090   1.098 -0.6059  0.7534  0.9342
21074SOL    HW265155   6.995   1.233   1.064 -0.0060  0.6830 -0.0623
21075SOL     OW65156   5.547   1.790   0.077  0.1920 -0.4920  0.0632
21075SOL    HW165157   5.508   1.874   0.052  0.2251 -0.8071 -1.0989
21075SOL    HW265158   5.542   1.789   0.173  0.6298  1.0389  0.1331
21076SOL     OW65159   4.841   3.836   8.621 -0.4076  0.8133 -0.4187
21076SOL    HW165160   4.879   3.764   8.671  0.0045  0.1813 -1.6091
21076SOL    HW265161   4.892   3.913   8.648  1.2191  0.1206 -1.3903
21077SOL     OW65162   3.422   6.457   1.538  0.5564  0.1623  0.2602
21077SOL    HW165163   3.398   6.546   1.511 -1.7630 -0.4770 -0.0086
21077SOL    HW265164   3.488   6.470   1.606 -0.2709  2.1238  0.7674
21078SOL     OW65165   8.108   0.091   4.194  0.7873 -0.4096  0.4328
21078SOL    HW165166   8.075   0.001   4.186  1.7255 -0.8208  1.0700
21078SOL    HW265167   8.185   0.094   4.138  0.1782  0.3130 -0.4005
21079SOL     OW65168   2.713   0.238   7.707 -0.3376 -0.5084 -0.3844
21079SOL    HW165169   2.678   0.162   7.755 -1.6902  0.7929  0.8057
21079SOL    HW265170   2.752   0.200   7.628  2.0029 -2.7728  1.6609
21080SOL     OW65171   4.392   8.516   6.948  0.3469 -0.2253 -0.0733
21080SOL    HW165172   4.371   8.609   6.946 -0.6213 -0.4513 -1.0126
21080SOL    HW265173   4.430   8.498   6.862  0.5167 -0.7048  0.0959
21081SOL     OW65174   6.395   8.572   6.447 -0.6495  0.7198 -0.3002
21081SOL    HW165175   6.461   8.596   6.382  1.0143 -0.8408  0.7143
21081SOL    HW265176   6.341   8.507   6.402  0.4316 -0.2769 -0.2300
21082SOL     OW65177   6.502   2.705   2.330  0.3246  0.1749  0.3232
21082SOL    HW165178   6.542   2.620   2.316 -0.8432 -0.0281 -2.1620
21082SOL    HW265179   6.408   2.688   2.331  0.1002  1.3318  0.6005
21083SOL     OW65180   2.741   1.283   4.770 -0.1510 -0.3242 -0.3414
21083SOL    HW165181   2.664   1.331   4.801 -0.1510 -0.4253 -0.1850
21083SOL    HW265182   2.813   1.346   4.777 -0.4090  0.1210 -1.5050
21084SOL     OW65183   5.119   7.737   6.966 -0.2754  1.0006  0.2966
21084SOL    HW165184   5.132   7.702   6.878 -1.7164 -1.3316  0.9265
21084SOL    HW265185   5.190   7.699   7.018  0.2336  1.9107  0.2924
21085SOL     OW65186   7.831   0.354   0.860  0.2436 -0.2330  0.7767
21085SOL    HW165187   7.901   0.381   0.919  0.2934  0.2761  0.4953
21085SOL    HW265188   7.758   0.332   0.917  1.3153 -2.9890  1.2220
21086SOL     OW65189   0.658   6.194   8.049  0.3100  0.0546 -0.1509
21086SOL    HW165190   0.612   6.123   8.092 -0.5946  0.4523 -0.4320
21086SOL    HW265191   0.736   6.153   8.010  0.3156 -0.5797  0.5227
21087SOL     OW65192   6.231   2.635   2.308  0.0073 -0.0236  0.5570
21087SOL    HW165193   6.183   2.588   2.239 -1.1109 -0.1055  1.3680
21087SOL    HW265194   6.164   2.683   2.356  0.9739  1.3707  0.5774
21088SOL     OW65195   6.185   8.659   8.282  0.3958  0.0782  0.4559
21088SOL    HW165196   6.111   8.598   8.282  1.1975 -0.9134  0.3531
21088SOL    HW265197   6.189   8.691   8.372 -0.7662  0.9066  0.2278
21089SOL     OW65198   4.225   7.503   0.074 -0.2196 -0.4206 -0.1424
21089SOL    HW165199   4.234   7.412   0.105 -1.4465 -0.8035 -0.8514
21089SOL    HW265200   4.192   7.551   0.149  0.8423 -0.4516  0.3673
21090SOL     OW65201   6.799   7.954   7.315 -0.6938  0.1911 -0.6951
21090SOL    HW165202   6.839   7.933   7.231  0.2202  0.1599 -0.2679
21090SOL    HW265203   6.841   7.895   7.377  0.1907  1.6017  0.1251
21091SOL     OW65204   8.028   7.753   6.350  0.6829  0.4955 -0.3916
21091SOL    HW165205   8.078   7.799   6.418  1.2236 -3.1698  1.9540
21091SOL    HW265206   7.938   7.753   6.382  0.3969  1.2071 -1.1670
21092SOL     OW65207   1.890   2.130   5.536 -0.1304 -0.6185 -0.2303
21092SOL    HW165208   1.812   2.166   5.495  0.6724  2.8880  0.9557
21092SOL    HW265209   1.879   2.148   5.630  1.0667 -2.2616  0.2801
21093SOL     OW65210   5.827   0.652   7.206 -0.4096  0.0802 -0.0929
21093SOL    HW165211   5.920   0.653   7.231 -0.0674  1.1375 -1.2968
21093SOL    HW265212   5.780   0.657   7.289  0.6539  1.2925  0.4736
21094SOL     OW65213   2.972   2.824   0.847 -0.1436  0.4016  0.0598
21094SOL    HW165214   3.038   2.814   0.916 -0.9172  1.4235  0.9740
21094SOL    HW265215   2.920   2.744   0.853  0.5377 -0.0698 -0.1652
21095SOL     OW65216   2.465   2.610   6.230  0.7470 -0.5592  0.3414
21095SOL    HW165217   2.391   2.664   6.202  1.4166 -0.2555 -0.8800
21095SOL    HW265218   2.450   2.524   6.190  1.9896  0.0321 -1.5266
21096SOL     OW65219   8.164   3.054   5.114 -0.0005  0.1162 -0.1887
21096SOL    HW165220   8.092   2.997   5.140  1.3049 -0.8535  1.5525
21096SOL    HW265221   8.214   3.068   5.195  1.0734  1.7800 -1.0639
21097SOL     OW65222   5.340   2.178   0.183 -0.3280  0.5282 -0.2527
21097SOL    HW165223   5.284   2.248   0.217  0.1593  0.7586  0.0801
21097SOL    HW265224   5.397   2.155   0.256 -0.6079 -0.3589 -0.2985
21098SOL     OW65225   5.710   4.145   5.053  0.4280  0.1746 -0.3047
21098SOL    HW165226   5.775   4.074   5.048 -0.3448 -0.9189  2.9329
21098SOL    HW265227   5.641   4.118   4.992  1.2493 -0.6097 -0.9239
21099SOL     OW65228   7.553   7.351   0.473 -0.3698  0.5035 -0.0058
21099SOL    HW165229   7.547   7.274   0.416  0.1549 -0.1657  0.8231
21099SOL    HW265230   7.602   7.321   0.549  1.9634  2.2685 -0.6959
21100SOL     OW65231   2.243   3.489   2.145  0.5908  0.5951  0.4376
21100SOL    HW165232   2.303   3.453   2.210  0.4510  1.3808  1.0197
21100SOL    HW265233   2.217   3.414   2.093  0.3111 -0.1594  1.6155
21101SOL     OW65234   2.574   0.011   4.992  0.0147 -0.1839  0.5102
21101SOL    HW165235   2.551   0.004   4.900  1.7024  0.2269  0.0309
21101SOL    HW265236   2.638   0.082   4.996  0.6332 -0.7783  1.8741
21102SOL     OW65237   8.860   7.477   7.693  0.5636 -0.0596 -0.1843
21102SOL    HW165238   8.903   7.393   7.674  0.7235 -0.1730  0.6554
21102SOL    HW265239   8.768   7.462   7.670  0.2441 -1.0327  1.5428
21103SOL     OW65240   8.489   7.695   0.630  0.4466 -0.1135 -0.1999
21103SOL    HW165241   8.430   7.769   0.645 -0.3819 -0.6060 -0.9948
21103SOL    HW265242   8.550   7.726   0.563 -1.1449 -0.7922 -2.0438
21104SOL     OW65243   5.328   2.558   0.045 -0.4624 -0.4681  0.1119
21104SOL    HW165244   5.383   2.595   0.114  0.6593 -0.5874 -0.6909
21104SOL    HW265245   5.380   2.486   0.009 -1.4212 -0.9956 -0.2460
21105SOL     OW65246   1.317   0.161   6.023  0.3978  0.1327 -0.2402
21105SOL    HW165247   1.366   0.131   6.099  0.6203 -1.4771 -0.9787
21105SOL    HW265248   1.234   0.113   6.027  0.4757 -0.0914 -1.0944
21106SOL     OW65249   2.367   1.758   8.666  0.1317 -0.5281 -0.4764
21106SOL    HW165250   2.358   1.853   8.661  1.1252 -0.2921  1.2160
21106SOL    HW265251   2.277   1.725   8.671 -0.2024  0.4587  0.4789
21107SOL     OW65252   1.259   3.331   3.345  0.0474  0.4338 -0.5119
21107SOL    HW165253   1.292   3.254   3.299 -0.9066 -0.5727  0.4600
21107SOL    HW265254   1.338   3.377   3.373  0.6444 -0.9584  0.1666
21108SOL     OW65255   3.892   7.560   2.953  0.4460  0.0018  0.3050
21108SOL    HW165256   3.900   7.488   2.891 -1.7798  0.1359 -0.2202
21108SOL    HW265257   3.853   7.521   3.031  1.4282  0.2154  0.9246
21109SOL     OW65258   3.113   4.136   2.268 -0.0381  0.3863  0.6808
21109SOL    HW165259   3.055   4.129   2.343 -0.3385 -1.3062  0.3464
21109SOL    HW265260   3.148   4.047   2.257  1.2786  0.9798 -0.1644
21110SOL     OW65261   6.379   4.707   4.145 -0.3607 -0.2592 -0.3691
21110SOL    HW165262   6.368   4.786   4.197  1.9408 -0.9277  1.3073
21110SOL    HW265263   6.302   4.704   4.089 -2.3045  1.2510  2.0277
21111SOL     OW65264   1.901   1.226   3.320  0.4303 -0.0564  0.1199
21111SOL    HW165265   1.927   1.274   3.398  0.4938  0.1373 -0.0198
21111SOL    HW265266   1.853   1.289   3.267  0.2267 -0.2376  0.0862
21112SOL     OW65267   3.584   7.607   2.907  0.1995  0.4789  0.6433
21112SOL    HW165268   3.570   7.620   3.001 -0.5174  0.5637  0.5293
21112SOL    HW265269   3.641   7.530   2.902  1.6852  1.4963  1.2059
21113SOL     OW65270   8.355   6.375   8.405 -0.5088  0.3592 -0.1924
21113SOL    HW165271   8.432   6.412   8.448 -0.1873 -1.0452  0.4955
21113SOL    HW265272   8.280   6.417   8.448 -0.1844 -0.6434  1.4443
21114SOL     OW65273   6.761   4.264   6.166 -0.9214 -0.1380 -0.0043
21114SOL    HW165274   6.765   4.180   6.211  0.2472 -0.8602 -1.3784
21114SOL    HW265275   6.761   4.329   6.236  0.9208 -1.2071  1.0479
21115SOL     OW65276   8.378   8.105   5.404  0.1722  0.2762  0.1217
21115SOL    HW165277   8.325   8.083   5.327  0.8936  0.7351 -0.5277
21115SOL    HW265278   8.422   8.187   5.380 -1.4203  1.7514  1.9480
21116SOL     OW65279   8.550   7.316   6.029  0.1961  0.1801 -0.8169
21116SOL    HW165280   8.479   7.252   6.020  0.1689  0.3315 -1.8153
21116SOL    HW265281   8.514   7.396   5.990  0.0342  0.9822  0.8893
21117SOL     OW65282   0.118   2.640   7.272 -0.0380  0.1894  0.8523
21117SOL    HW165283   0.131   2.683   7.356  1.1035  1.3470  0.1340
21117SOL    HW265284   0.182   2.682   7.214 -1.9168  0.6437 -1.0224
21118SOL     OW65285   3.171   0.222   2.251 -0.1277 -0.0254 -0.4790
21118SOL    HW165286   3.119   0.172   2.314  0.6489 -2.8358 -1.9346
21118SOL    HW265287   3.105   0.264   2.195 -0.9487 -2.4219 -1.4512
21119SOL     OW65288   4.008   0.796   1.381  0.2930  0.1914 -0.1230
21119SOL    HW165289   4.035   0.722   1.434 -0.2221  0.8497  1.1004
21119SOL    HW265290   3.916   0.780   1.361  0.8255 -0.7674 -2.1038
21120SOL     OW65291   5.371   7.867   7.791 -0.1939 -0.1436 -0.8418
21120SOL    HW165292   5.335   7.955   7.784 -1.2241 -0.5277 -0.6288
21120SOL    HW265293   5.464   7.880   7.810 -0.2976  0.8894 -1.0068
21121SOL     OW65294   2.164   5.760   2.099 -0.0906 -0.6028  0.0243
21121SOL    HW165295   2.089   5.779   2.042  0.7925 -0.2500 -1.0509
21121SOL    HW265296   2.223   5.834   2.086  1.8396 -2.2910 -1.5575
21122SOL     OW65297   1.366   2.916   1.308  0.3409  0.0631 -0.2780
21122SOL    HW165298   1.321   2.846   1.261  0.4225 -0.0552 -0.1802
21122SOL    HW265299   1.304   2.945   1.375  0.5113 -0.2891  0.0382
21123SOL     OW65300   0.792   2.236   2.372 -0.1190  0.4335 -0.6119
21123SOL    HW165301   0.718   2.234   2.432 -0.2074  0.1874 -0.7256
21123SOL    HW265302   0.848   2.163   2.401  0.3775  0.9764 -0.1561
21124SOL     OW65303   3.231   5.756   3.398 -0.1129  0.0911  0.4473
21124SOL    HW165304   3.264   5.776   3.486  0.2568  2.0634 -0.0898
21124SOL    HW265305   3.278   5.816   3.340  0.1814 -1.6452 -1.2360
21125SOL     OW65306   0.508   5.852   2.641  0.1427  0.5101 -0.1278
21125SOL    HW165307   0.603   5.841   2.641  0.2401  1.2525 -0.0827
21125SOL    HW265308   0.483   5.851   2.549  0.4616  2.2523 -0.2690
21126SOL     OW65309   4.627   0.512   3.670 -0.2736  0.3542  0.0301
21126SOL    HW165310   4.643   0.535   3.762 -0.5241  0.9801 -0.0771
21126SOL    HW265311   4.645   0.418   3.665  0.5529  0.4796  0.5354
21127SOL     OW65312   6.139   5.600   0.128  1.0452  0.1323 -0.4654
21127SOL    HW165313   6.108   5.541   0.059  2.4222 -1.9255  0.5924
21127SOL    HW265314   6.059   5.629   0.172  0.1377  1.3084 -2.6936
21128SOL     OW65315   8.251   2.202   8.583  0.2730 -0.8883  0.3843
21128SOL    HW165316   8.202   2.153   8.517 -0.0697 -3.2709  2.2815
21128SOL    HW265317   8.273   2.137   8.650  2.1246  1.0508  1.7869
21129SOL     OW65318   6.945   6.959   0.389 -0.4673 -0.0403  0.4679
21129SOL    HW165319   6.952   6.864   0.379  0.3846  0.1335 -0.9276
21129SOL    HW265320   7.028   6.992   0.354 -1.2087  1.2759 -0.0925
21130SOL     OW65321   4.058   5.938   2.759 -0.5879 -0.4246  0.1531
21130SOL    HW165322   4.092   5.849   2.767  1.0283  0.2849  2.0331
21130SOL    HW265323   3.963   5.928   2.762 -0.4264 -2.0359  1.2370
21131SOL     OW65324   1.618   7.151   4.327 -0.1357  0.2389 -0.0789
21131SOL    HW165325   1.711   7.167   4.348 -0.5294  1.5638  0.8291
21131SOL    HW265326   1.591   7.084   4.390 -0.3009  1.3570  1.0755
21132SOL     OW65327   0.711   3.317   3.286  0.0082 -0.2615 -0.1322
21132SOL    HW165328   0.691   3.289   3.196  0.9925  1.3548 -0.8876
21132SOL    HW265329   0.807   3.317   3.290 -0.0302 -1.1411  1.2098
21133SOL     OW65330   1.818   1.643   5.812  0.3053  0.2131  0.2053
21133SOL    HW165331   1.898   1.595   5.791 -0.0104  0.1413 -0.8657
21133SOL    HW265332   1.757   1.622   5.741 -0.8705 -0.1999  1.2976
21134SOL     OW65333   8.104   6.616   3.824 -0.2436  0.1832 -0.3424
21134SOL    HW165334   8.142   6.627   3.911 -0.8459 -0.7590  0.0664
21134SOL    HW265335   8.081   6.704   3.796  2.1058  0.7920 -0.5703
21135SOL     OW65336   7.566   2.286   3.075  0.1665  0.3619  0.0079
21135SOL    HW165337   7.541   2.326   2.992 -3.0714 -0.0225  0.6560
21135SOL    HW265338   7.597   2.199   3.051 -0.4360  0.3645 -0.8195
21136SOL     OW65339   8.599   6.606   2.213 -0.0729 -0.2086  0.0844
21136SOL    HW165340   8.692   6.595   2.230  0.0484 -2.3315 -1.4777
21136SOL    HW265341   8.593   6.684   2.159  0.7731  0.0285  0.3215
21137SOL     OW65342   3.537   6.635   0.295 -0.4005 -0.5620 -0.0570
21137SOL    HW165343   3.452   6.677   0.309 -0.8389 -1.1382 -0.8627
21137SOL    HW265344   3.517   6.541   0.291  0.2221 -0.6859 -0.5579
21138SOL     OW65345   3.480   4.588   1.118  0.1279 -0.3627  0.0076
21138SOL    HW165346   3.521   4.671   1.094 -0.3413  0.1756  1.0428
21138SOL    HW265347   3.526   4.523   1.065  1.3816  0.3940  0.1318
21139SOL     OW65348   7.897   4.528   5.643  0.0619 -0.4119 -0.0689
21139SOL    HW165349   7.861   4.475   5.714 -0.0980  0.3238  0.4175
21139SOL    HW265350   7.821   4.570   5.603  0.3170  0.9214  0.7788
21140SOL     OW65351   1.892   8.026   7.999 -0.2523  0.2273  0.3541
21140SOL    HW165352   1.901   8.118   8.022 -2.3291  1.0998 -1.9724
21140SOL    HW265353   1.845   7.987   8.073 -0.6111  1.3373  0.7186
21141SOL     OW65354   6.904   2.332   1.453 -0.2406  0.2211  0.2800
21141SOL    HW165355   6.964   2.258   1.440  1.0611  0.8297  2.3041
21141SOL    HW265356   6.850   2.306   1.528  0.6079  1.4684  1.3749
21142SOL     OW65357   8.208   2.048   4.804  0.1056  0.1055  0.3286
21142SOL    HW165358   8.146   1.994   4.756  0.3464 -0.4853  0.6615
21142SOL    HW265359   8.178   2.138   4.792 -0.4760 -0.1316  0.0148
21143SOL     OW65360   6.902   1.487   4.173  0.0774  0.1694  0.5551
21143SOL    HW165361   6.864   1.422   4.114 -0.6794  0.5405  0.6176
21143SOL    HW265362   6.908   1.443   4.257  0.2162 -0.0348  0.4403
21144SOL     OW65363   3.205   6.592   7.642  0.0508  0.3723  0.4579
21144SOL    HW165364   3.166   6.506   7.659  0.1906  0.2188  0.0046
21144SOL    HW265365   3.296   6.574   7.620 -0.3577  0.4564 -1.4781
21145SOL     OW65366   7.285   4.368   1.586  0.0313 -0.1495 -0.5505
21145SOL    HW165367   7.271   4.462   1.573 -0.1374 -0.0605  0.2285
21145SOL    HW265368   7.346   4.363   1.659 -0.0038 -0.6492 -0.5537
21146SOL     OW65369   7.540   1.565   5.055  0.3331 -0.0085 -0.0195
21146SOL    HW165370   7.466   1.576   4.995 -1.9028 -1.9959  2.1135
21146SOL    HW265371   7.601   1.507   5.009 -0.7534 -0.5467 -0.8365
21147SOL     OW65372   5.761   5.811   3.606  0.4893 -0.1416 -0.2280
21147SOL    HW165373   5.740   5.766   3.523 -3.0074 -0.5689  0.7063
21147SOL    HW265374   5.733   5.749   3.673 -0.1875  1.6463  1.1947
21148SOL     OW65375   8.377   8.594   0.370 -0.5655 -0.3705  0.2842
21148SOL    HW165376   8.363   8.563   0.460  1.1299  0.6802  0.9420
21148SOL    HW265377   8.438   8.531   0.332 -2.0873 -1.4286 -0.5460
21149SOL     OW65378   7.718   1.011   6.070  0.0893 -0.6455 -0.1149
21149SOL    HW165379   7.698   1.101   6.094 -0.4266 -0.6758 -0.4395
21149SOL    HW265380   7.812   1.013   6.050 -0.2471  0.2079 -1.8346
21150SOL     OW65381   8.698   4.411   1.345 -0.1814 -0.1446  0.7779
21150SOL    HW165382   8.689   4.323   1.382  0.7853 -0.5124  0.1685
21150SOL    HW265383   8.728   4.396   1.255 -2.1746  0.7374 -0.0874
21151SOL     OW65384   2.700   7.158   2.444  0.2121 -0.1411 -0.4075
21151SOL    HW165385   2.699   7.138   2.351  0.0495  0.1585 -0.4730
21151SOL    HW265386   2.629   7.221   2.455 -0.0887 -0.5451  0.0022
21152SOL     OW65387   8.133   6.060   7.546  0.2967  0.3722 -0.2692
21152SOL    HW165388   8.211   6.018   7.582  0.2937 -0.1871 -0.9049
21152SOL    HW265389   8.082   6.085   7.624  0.4004 -0.6037  0.1339
21153SOL     OW65390   5.982   0.536   1.786  0.7361 -0.5329  0.2673
21153SOL    HW165391   5.967   0.449   1.825 -1.0688  0.0057  0.8927
21153SOL    HW265392   5.977   0.596   1.861  0.2607  0.2517 -0.3835
21154SOL     OW65393   2.647   4.183   4.284  0.3242  0.0132 -0.5120
21154SOL    HW165394   2.696   4.256   4.322  0.0573 -1.7002  3.7611
21154SOL    HW265395   2.704   4.107   4.297 -0.9816 -1.1102 -1.1343
21155SOL     OW65396   5.026   0.947   4.249  0.3148  0.6545  0.4743
21155SOL    HW165397   5.060   0.870   4.202  0.6344  1.0385  0.0650
21155SOL    HW265398   4.945   0.916   4.289  0.6323 -0.0027  0.6318
21156SOL     OW65399   2.496   5.931   8.209 -0.6388 -0.0604  0.3894
21156SOL    HW165400   2.485   5.883   8.127  0.5225  0.4071 -0.0630
21156SOL    HW265401   2.517   5.863   8.274 -0.8996 -0.3587  0.1654
21157SOL     OW65402   3.996   1.867   6.341  0.4788  0.4180  0.0153
21157SOL    HW165403   4.023   1.899   6.255  0.2251  0.5716 -0.0098
21157SOL    HW265404   4.002   1.772   6.335  0.6847  0.4390 -0.0988
21158SOL     OW65405   3.763   0.412   1.701  0.3282  0.4586 -0.0837
21158SOL    HW165406   3.740   0.322   1.680 -0.2083  0.9946 -1.9072
21158SOL    HW265407   3.709   0.466   1.643  2.8679  1.8711 -1.3278
21159SOL     OW65408   8.358   1.442   6.048  0.3094 -0.3306 -0.5074
21159SOL    HW165409   8.451   1.462   6.062  0.6105 -2.1546  0.3959
21159SOL    HW265410   8.357   1.350   6.022 -1.3529 -0.7574  0.9147
21160SOL     OW65411   8.399   1.882   2.095 -0.1046  0.6593 -0.0725
21160SOL    HW165412   8.417   1.833   2.175 -1.5903 -0.5083 -0.4023
21160SOL    HW265413   8.485   1.905   2.061  0.5984 -0.3581  0.9424
21161SOL     OW65414   1.353   1.221   2.864 -0.1442 -0.2399 -0.0892
21161SOL    HW165415   1.378   1.192   2.776  0.4459 -0.3631  0.1117
21161SOL    HW265416   1.436   1.241   2.907 -0.4119 -0.4169  0.5232
21162SOL     OW65417   7.009   8.849   8.484  0.0010 -0.1829  0.3680
21162SOL    HW165418   7.090   8.899   8.499  0.2217 -0.2871 -0.4327
21162SOL    HW265419   6.948   8.912   8.445  0.0702 -0.3748 -0.0565
21163SOL     OW65420   3.905   4.189   4.782  0.7909 -0.1404 -0.5527
21163SOL    HW165421   3.887   4.096   4.769  0.8819 -0.3914  0.8815
21163SOL    HW265422   3.967   4.191   4.856 -0.6716  1.1139  0.7005
21164SOL     OW65423   5.716   5.955   0.410  0.0615  0.0845  0.0125
21164SOL    HW165424   5.626   5.980   0.428  0.6674  1.4706  1.3615
21164SOL    HW265425   5.758   6.036   0.380  1.4762  0.1732  2.0168
21165SOL     OW65426   6.045   6.273   7.436  0.1246 -0.1278 -0.7144
21165SOL    HW165427   6.016   6.242   7.522  0.6587  1.0124 -0.1025
21165SOL    HW265428   6.058   6.194   7.385 -0.6167 -0.8062  0.1185
21166SOL     OW65429   6.255   5.352   0.504  0.0569 -0.1272 -0.1123
21166SOL    HW165430   6.311   5.274   0.501 -1.0007 -0.8933 -2.8654
21166SOL    HW265431   6.198   5.344   0.428 -0.9892  2.7285  0.2383
21167SOL     OW65432   6.311   1.499   1.935 -0.1495 -0.5437  0.3130
21167SOL    HW165433   6.254   1.472   2.007 -0.5969  0.9393  0.5481
21167SOL    HW265434   6.303   1.429   1.870 -1.2462 -0.9734  0.8890
21168SOL     OW65435   4.399   7.043   6.450  0.1754  0.3619 -0.3108
21168SOL    HW165436   4.339   7.050   6.524  0.0482 -2.3515 -0.0672
21168SOL    HW265437   4.353   6.990   6.385  1.2044  0.6831 -1.3550
21169SOL     OW65438   0.319   4.388   0.222 -0.2661  0.7356  0.1651
21169SOL    HW165439   0.384   4.353   0.162 -1.5998 -0.2574 -0.7464
21169SOL    HW265440   0.369   4.441   0.284  1.6880 -1.7020  0.8140
21170SOL     OW65441   1.224   3.972   0.076  0.0868 -0.5255 -0.2286
21170SOL    HW165442   1.285   4.019   0.019 -2.0252  2.0358 -0.5894
21170SOL    HW265443   1.255   3.992   0.165  0.0245  0.4457 -0.4117
21171SOL     OW65444   0.372   8.861   8.041  0.7733  0.4427  0.1545
21171SOL    HW165445   0.318   8.863   8.120  0.3736 -1.3009 -0.0159
21171SOL    HW265446   0.421   8.943   8.043 -0.5700  1.2708  1.2404
21172SOL     OW65447   6.933   7.221   5.466  0.5455  0.3996 -0.7904
21172SOL    HW165448   6.885   7.157   5.412  0.2021  2.1636 -2.6766
21172SOL    HW265449   6.864   7.275   5.505  0.8730  0.2264  0.0494
21173SOL     OW65450   0.474   4.460   3.894  0.6195 -0.6315 -0.1761
21173SOL    HW165451   0.386   4.460   3.932 -0.7672  1.2190 -3.0176
21173SOL    HW265452   0.526   4.515   3.952 -0.5943 -0.2521  0.5748
21174SOL     OW65453   2.521   4.498   3.942 -0.2440 -0.0200  0.3499
21174SOL    HW165454   2.495   4.453   3.862  1.2299 -0.4439  0.0863
21174SOL    HW265455   2.616   4.503   3.938 -0.2252  1.2413  1.3987
21175SOL     OW65456   3.131   1.301   8.747 -0.0400  0.4033  0.1500
21175SOL    HW165457   3.058   1.356   8.776  0.2456  0.4017  0.8998
21175SOL    HW265458   3.148   1.243   8.821  0.5709  0.2479 -0.1072
21176SOL     OW65459   8.251   3.719   0.269 -0.3329  0.4403  0.2780
21176SOL    HW165460   8.172   3.752   0.312  0.4743  0.3821  1.8623
21176SOL    HW265461   8.236   3.737   0.176 -2.5286 -0.2414  0.4406
21177SOL     OW65462   2.394   5.749   8.029  0.4308 -0.7134  0.5430
21177SOL    HW165463   2.426   5.686   7.964 -1.2165 -0.8132 -0.2347
21177SOL    HW265464   2.298   5.740   8.026  0.1172  1.8040  0.3862
21178SOL     OW65465   6.235   1.255   8.247 -0.0638 -0.2587 -0.4019
21178SOL    HW165466   6.292   1.312   8.299 -0.7156  0.3197 -0.3046
21178SOL    HW265467   6.227   1.175   8.300  1.7271 -0.9014 -1.0358
21179SOL     OW65468   1.979   7.669   2.727 -0.0281  0.3037  0.2060
21179SOL    HW165469   1.886   7.668   2.702  0.8407  0.7117 -3.5728
21179SOL    HW265470   2.008   7.758   2.706  1.5297 -0.2333  0.0240
21180SOL     OW65471   0.500   8.651   8.157 -0.6009 -0.1358  0.8356
21180SOL    HW165472   0.469   8.651   8.247 -0.6765  2.0937  0.8625
21180SOL    HW265473   0.458   8.727   8.117 -0.4862 -1.0172 -1.0689
21181SOL     OW65474   0.259   4.551   6.749  0.1800 -0.0341 -0.2897
21181SOL    HW165475   0.297   4.638   6.741  2.7796 -1.1945 -2.1413
21181SOL    HW265476   0.325   4.500   6.797 -2.4698 -0.4735  3.3351
21182SOL     OW65477   7.576   4.639   3.502 -0.0945 -0.4029 -0.3578
21182SOL    HW165478   7.488   4.635   3.540 -1.4431 -3.7529 -3.3241
21182SOL    HW265479   7.567   4.696   3.426  0.6113  0.0198 -0.1390
21183SOL     OW65480   3.815   5.443   5.931 -0.5365  0.2357  0.0491
21183SOL    HW165481   3.723   5.421   5.945 -0.1545 -1.0610  0.7478
21183SOL    HW265482   3.828   5.432   5.837 -1.0672  0.2844 -0.0317
21184SOL     OW65483   2.117   7.878   2.955  0.4589  0.1409  0.0061
21184SOL    HW165484   2.081   7.818   3.020  1.2070 -0.9136 -0.5060
21184SOL    HW265485   2.067   7.859   2.875  1.8583 -1.1129 -0.6280
21185SOL     OW65486   5.085   5.109   0.725  0.1477 -0.0193 -0.3886
21185SOL    HW165487   5.147   5.047   0.685  0.4095  1.2098 -1.9702
21185SOL    HW265488   5.008   5.105   0.670 -0.5800 -0.3226  0.6224
21186SOL     OW65489   5.011   2.766   7.965  0.5482  0.5771  0.1093
21186SOL    HW165490   5.015   2.852   7.924  0.5660  0.7538  0.4729
21186SOL    HW265491   5.095   2.758   8.011  0.3832  0.5344  0.4047
21187SOL     OW65492   6.964   0.920   4.201 -0.3472  0.6754  0.0863
21187SOL    HW165493   7.023   0.954   4.134  1.7373  1.6887  2.2656
21187SOL    HW265494   6.962   0.825   4.185 -1.2668  1.0290 -2.3389
21188SOL     OW65495   5.185   1.848   1.996  0.1195 -0.0223 -0.3286
21188SOL    HW165496   5.125   1.921   2.012 -0.9437 -0.4616 -1.9835
21188SOL    HW265497   5.235   1.875   1.919 -1.5695 -1.6943 -2.1371
21189SOL     OW65498   4.973   5.405   1.482  0.5979  0.2186  0.8575
21189SOL    HW165499   5.016   5.432   1.401 -1.2304  0.6840  0.0050
21189SOL    HW265500   5.005   5.467   1.548 -0.5007  2.0213 -0.2419
21190SOL     OW65501   6.994   0.672   8.484 -0.2004 -0.7774 -0.1415
21190SOL    HW165502   7.053   0.657   8.411 -0.9150 -2.8589 -0.3711
21190SOL    HW265503   6.956   0.759   8.468  0.0102 -0.9951 -1.9764
21191SOL     OW65504   4.974   3.634   7.537  0.1629  0.2971  0.2738
21191SOL    HW165505   4.935   3.618   7.623  0.2806 -0.5796  0.1700
21191SOL    HW265506   5.068   3.640   7.554  0.1105  1.1208  0.3370
21192SOL     OW65507   3.784   0.381   5.525  0.1117  0.1788  0.3165
21192SOL    HW165508   3.872   0.352   5.503 -0.2065 -0.9256  0.4343
21192SOL    HW265509   3.752   0.317   5.589 -1.6882 -0.9274 -1.5668
21193SOL     OW65510   7.221   7.015   3.610  0.1299 -0.1598  0.4529
21193SOL    HW165511   7.178   7.058   3.683 -1.3789  0.1473 -0.5654
21193SOL    HW265512   7.280   6.951   3.650 -1.0678 -0.3863  1.9169
21194SOL     OW65513   4.517   8.671   7.745 -0.0301  0.2261 -0.4881
21194SOL    HW165514   4.555   8.600   7.694 -2.0840  0.2026 -2.1294
21194SOL    HW265515   4.569   8.748   7.720 -0.2602 -0.0070 -1.7873
21195SOL     OW65516   2.702   5.902   5.977  0.4154  0.6902  0.4062
21195SOL    HW165517   2.674   5.811   5.968  0.1350  0.6666  1.4599
21195SOL    HW265518   2.795   5.896   6.001  0.5486  0.7045 -0.0855
21196SOL     OW65519   7.723   4.868   5.171  0.6249  0.0657  0.2437
21196SOL    HW165520   7.633   4.851   5.141 -0.0863 -0.6415  2.5743
21196SOL    HW265521   7.745   4.954   5.134 -0.9563  0.1954 -0.4710
21197SOL     OW65522   6.088   4.627   2.466 -0.3225  0.4677 -0.6840
21197SOL    HW165523   6.081   4.593   2.377  1.7778 -0.6300 -0.4856
21197SOL    HW265524   6.004   4.605   2.507 -0.2899 -1.5205 -1.5703
21198SOL     OW65525   3.673   4.014   7.122  0.5399  0.2000  0.0253
21198SOL    HW165526   3.705   4.061   7.045 -1.1172 -0.0314 -0.8364
21198SOL    HW265527   3.680   4.077   7.193 -1.3498  1.7059 -1.0488
21199SOL     OW65528   5.443   1.271   4.197  0.3287  0.7449  0.1103
21199SOL    HW165529   5.517   1.308   4.149  0.3197 -0.3028 -0.7480
21199SOL    HW265530   5.396   1.347   4.231 -0.0695  1.5920 -2.1473
21200SOL     OW65531   4.314   8.621   3.696 -0.3530  0.2327 -0.3943
21200SOL    HW165532   4.366   8.700   3.711  0.3629 -0.2306 -0.3639
21200SOL    HW265533   4.357   8.554   3.749 -0.2447 -0.4475 -1.3104
21201SOL     OW65534   5.304   8.846   8.680  0.2889  0.2094 -0.4843
21201SOL    HW165535   5.376   8.896   8.720  0.8697  0.8124 -2.1879
21201SOL    HW265536   5.227   8.873   8.729  0.7765  1.9211 -0.5602
21202SOL     OW65537   5.977   5.836   2.166 -0.1905 -0.3226 -0.1792
21202SOL    HW165538   5.911   5.793   2.111 -0.1817 -0.8074  0.1816
21202SOL    HW265539   5.932   5.912   2.203 -0.9395 -1.3013  1.0094
21203SOL     OW65540   5.323   6.878   2.398  0.3618  0.1093 -0.1780
21203SOL    HW165541   5.319   6.849   2.307  0.2660 -2.0759  0.4545
21203SOL    HW265542   5.401   6.836   2.433 -0.6037 -0.6436  1.2032
21204SOL     OW65543   8.421   8.741   4.312 -0.2814 -0.2113  0.0584
21204SOL    HW165544   8.386   8.660   4.277 -0.6652  0.8457 -2.1708
21204SOL    HW265545   8.495   8.762   4.255  0.0664  0.8019  0.8483
21205SOL     OW65546   3.518   3.321   4.696 -0.3678 -0.0650  0.3651
21205SOL    HW165547   3.565   3.399   4.726  0.0465  0.7262 -2.1303
21205SOL    HW265548   3.575   3.248   4.719  1.2592  0.7319 -0.9293
21206SOL     OW65549   6.726   1.045   7.767  0.3364  0.4895 -0.1534
21206SOL    HW165550   6.752   1.069   7.856 -1.0249  1.6606 -0.0331
21206SOL    HW265551   6.705   0.952   7.773 -0.4098  0.7033  0.9382
21207SOL     OW65552   1.374   0.656   0.586  0.0125 -0.9598  0.3973
21207SOL    HW165553   1.328   0.652   0.669 -3.8134 -0.4813 -1.4670
21207SOL    HW265554   1.349   0.575   0.541 -0.3088  0.0500 -1.3284
21208SOL     OW65555   3.060   1.174   7.799  0.0006 -0.4022  0.5891
21208SOL    HW165556   3.059   1.119   7.721  0.0569  0.2828  0.0954
21208SOL    HW265557   3.020   1.256   7.771 -0.3645 -0.2935  1.3953
21209SOL     OW65558   1.680   6.558   0.923  0.1912  0.0420 -0.0502
21209SOL    HW165559   1.694   6.575   0.830  0.2905  2.9399  0.4047
21209SOL    HW265560   1.750   6.606   0.967 -1.3137  0.8522  1.5908
21210SOL     OW65561   5.689   2.705   8.176  0.4123 -0.3986 -0.2087
21210SOL    HW165562   5.746   2.755   8.118 -0.5159  1.0461  0.0725
21210SOL    HW265563   5.749   2.653   8.230  1.3257 -0.8890 -1.6528
21211SOL     OW65564   3.381   8.448   7.239  0.3446  0.2633 -0.0086
21211SOL    HW165565   3.418   8.532   7.212  2.3706 -0.3679  0.6254
21211SOL    HW265566   3.388   8.393   7.162  0.8861  0.1120  0.1413
21212SOL     OW65567   0.820   8.825   2.744  0.2474 -0.2713  0.3231
21212SOL    HW165568   0.900   8.799   2.697 -0.2482 -0.0842 -0.6515
21212SOL    HW265569   0.749   8.806   2.683 -0.4228 -0.0313  1.0132
21213SOL     OW65570   6.013   8.429   0.556  0.1553 -0.0489 -0.1223
21213SOL    HW165571   5.938   8.391   0.509  0.3077 -1.6429  0.8488
21213SOL    HW265572   5.996   8.409   0.648  0.3081  2.2351  0.4736
21214SOL     OW65573   6.139   6.764   8.872  0.2515  0.2125 -0.3051
21214SOL    HW165574   6.111   6.856   8.866 -1.6260 -0.1550  1.5939
21214SOL    HW265575   6.207   6.764   8.939  1.9753  0.4952 -1.9741
21215SOL     OW65576   2.333   1.935   1.222  0.2291  0.9975  0.0990
21215SOL    HW165577   2.386   2.013   1.235 -0.2159  1.5007 -0.9501
21215SOL    HW265578   2.311   1.936   1.129 -1.9739  1.0587  0.5667
21216SOL     OW65579   2.228   1.464   6.578 -0.2588  0.7625 -0.2391
21216SOL    HW165580   2.250   1.519   6.653 -0.4113 -0.1577  0.5042
21216SOL    HW265581   2.313   1.430   6.548 -0.2290  0.8833 -0.2932
21217SOL     OW65582   2.822   5.779   5.659 -0.6471  0.1871 -0.5846
21217SOL    HW165583   2.893   5.724   5.625  1.5315  1.6425  1.2868
21217SOL    HW265584   2.822   5.856   5.603 -0.8793  0.0979 -0.7052
21218SOL     OW65585   1.618   4.760   0.725 -0.0525  0.0501 -0.2021
21218SOL    HW165586   1.622   4.818   0.801  0.8478  3.4992 -2.6675
21218SOL    HW265587   1.532   4.717   0.732 -0.6804  1.5102  1.8785
21219SOL     OW65588   0.124   5.896   7.007 -0.2743  0.1431  0.3497
21219SOL    HW165589   0.187   5.958   6.968 -0.1636 -0.7760 -0.9949
21219SOL    HW265590   0.040   5.941   7.001 -0.4838 -0.4158 -2.1741
21220SOL     OW65591   4.014   0.193   4.750  0.0840 -0.2385  0.3582
21220SOL    HW165592   3.987   0.164   4.838  1.0712 -2.3606  0.0150
21220SOL    HW265593   3.984   0.123   4.692  0.5525  0.5423 -0.8478
21221SOL     OW65594   5.558   8.651   4.481  0.2876 -0.4667 -0.2723
21221SOL    HW165595   5.551   8.685   4.570 -1.6323 -0.1673 -0.4844
21221SOL    HW265596   5.619   8.578   4.487  1.1702  0.3579  1.0296
21222SOL     OW65597   2.216   3.653   3.424  0.2024  0.1698  0.0051
21222SOL    HW165598   2.263   3.726   3.463  0.3133  0.2791 -0.3382
21222SOL    HW265599   2.267   3.576   3.449  0.1058  0.2077  0.3350
21223SOL     OW65600   1.919   2.121   5.089  0.0070  0.4644  0.2706
21223SOL    HW165601   1.978   2.061   5.045 -0.1352  0.0564  0.6337
21223SOL    HW265602   1.974   2.166   5.153 -0.5193 -1.6649  2.3520
21224SOL     OW65603   2.572   1.108   7.040 -0.7384 -0.1021  0.0077
21224SOL    HW165604   2.573   1.161   6.960  0.9682 -0.0947 -0.0030
21224SOL    HW265605   2.655   1.062   7.039 -1.8322 -2.1969  0.4382
21225SOL     OW65606   8.824   3.448   4.004 -0.0602  0.6446 -0.6515
21225SOL    HW165607   8.911   3.411   4.021 -0.5937 -0.8272 -0.9932
21225SOL    HW265608   8.838   3.512   3.935  1.1948  2.5294  1.2128
21226SOL     OW65609   0.759   3.006   2.341  0.7305 -0.2987  0.1650
21226SOL    HW165610   0.679   3.000   2.288  0.7850 -1.0637  0.1713
21226SOL    HW265611   0.728   3.026   2.429  0.5441 -0.6494  0.1794
21227SOL     OW65612   4.333   5.871   2.993 -0.1974  0.2635 -0.4974
21227SOL    HW165613   4.364   5.943   2.939  0.5238  0.0117 -0.4222
21227SOL    HW265614   4.266   5.828   2.939 -0.5513  0.9141 -0.5853
21228SOL     OW65615   0.117   2.469   1.011  0.1772  0.0103  0.3614
21228SOL    HW165616   0.192   2.456   0.953 -1.1557 -0.7252 -1.3210
21228SOL    HW265617   0.129   2.556   1.048  1.7601 -0.0305  0.0048
21229SOL     OW65618   1.231   1.364   3.703 -0.0144  0.2227 -0.0497
21229SOL    HW165619   1.250   1.427   3.772  2.6446  0.0856 -0.5422
21229SOL    HW265620   1.137   1.350   3.708 -0.1219  1.3458  2.5367
21230SOL     OW65621   3.307   5.331   7.189  0.0850  0.4393 -0.7450
21230SOL    HW165622   3.269   5.272   7.124 -0.6441  0.5237 -0.4020
21230SOL    HW265623   3.380   5.282   7.226 -1.7399 -1.1164  1.0232
21231SOL     OW65624   3.294   3.810   7.277  0.3440 -0.0075 -0.4915
21231SOL    HW165625   3.379   3.825   7.319  0.3300  0.1956 -0.5374
21231SOL    HW265626   3.281   3.884   7.219 -0.0259  0.1476 -0.2215
21232SOL     OW65627   3.529   6.332   2.468  0.0420 -0.1021  0.1573
21232SOL    HW165628   3.484   6.278   2.533  1.1541  1.6885  2.5745
21232SOL    HW265629   3.593   6.273   2.429 -1.2560 -1.4652 -0.0029
21233SOL     OW65630   3.553   2.015   5.735  0.2070 -0.6639 -0.2589
21233SOL    HW165631   3.471   2.014   5.686  1.0310  1.7123 -1.8638
21233SOL    HW265632   3.593   1.930   5.715 -0.2072 -0.3941 -2.5021
21234SOL     OW65633   6.491   3.292   4.030 -0.4500 -0.3739  0.3409
21234SOL    HW165634   6.565   3.231   4.029 -0.6840 -0.6550 -0.1747
21234SOL    HW265635   6.522   3.369   3.983 -0.8105 -0.8966 -0.7986
21235SOL     OW65636   3.000   2.241   0.164  0.1303 -0.1720 -0.4546
21235SOL    HW165637   2.951   2.163   0.137  0.5992 -0.0405 -1.7459
21235SOL    HW265638   2.944   2.314   0.136  0.9156 -0.0258 -1.7144
21236SOL     OW65639   4.824   8.682   7.443  0.6763 -0.4925  0.1134
21236SOL    HW165640   4.915   8.666   7.467  1.1941  1.4501 -0.3763
21236SOL    HW265641   4.773   8.634   7.507  2.0422 -0.1164  1.5334
21237SOL     OW65642   5.123   3.613   8.056 -0.5440 -0.3749 -0.1747
21237SOL    HW165643   5.046   3.556   8.048  0.8971 -2.2055 -2.0670
21237SOL    HW265644   5.151   3.602   8.147 -2.7348  0.7290  0.7107
21238SOL     OW65645   7.031   4.281   8.102 -0.1812  0.0847  0.6034
21238SOL    HW165646   7.006   4.226   8.176 -1.3844  1.5248  1.3269
21238SOL    HW265647   7.117   4.316   8.126 -0.4445  0.3320  1.2157
21239SOL     OW65648   5.416   3.059   1.229 -0.1905 -0.4215  0.5607
21239SOL    HW165649   5.324   3.087   1.233 -0.2834 -0.8100  1.2204
21239SOL    HW265650   5.417   2.974   1.272  0.2303 -1.0907 -0.7126
21240SOL     OW65651   6.578   0.032   8.743 -0.5560 -0.0466  0.0154
21240SOL    HW165652   6.654   0.042   8.801 -1.9305 -0.2612  1.9376
21240SOL    HW265653   6.526   0.111   8.758  0.0254  0.9866 -2.6122
21241SOL     OW65654   8.351   7.447   2.730  0.2609  0.3238 -0.2566
21241SOL    HW165655   8.378   7.506   2.800  1.0545  0.8496 -0.9838
21241SOL    HW265656   8.283   7.495   2.683  2.0119  1.4259 -1.8371
21242SOL     OW65657   0.457   6.858   4.615 -0.2990  0.0065 -0.3503
21242SOL    HW165658   0.371   6.822   4.637  0.2166 -0.4936  0.9635
21242SOL    HW265659   0.519   6.793   4.648  0.6642  1.8014  1.5743
21243SOL     OW65660   3.964   0.861   4.026 -0.0027 -0.4083 -0.0973
21243SOL    HW165661   3.934   0.839   4.114  1.3913 -1.2106  0.2137
21243SOL    HW265662   3.989   0.776   3.988  1.0387  0.1158 -0.6202
21244SOL     OW65663   1.271   3.002   8.532 -0.1814  0.2548  0.4308
21244SOL    HW165664   1.318   2.939   8.588  1.2983 -0.2142 -1.2460
21244SOL    HW265665   1.217   2.948   8.475 -0.6690  0.6566  0.5062
21245SOL     OW65666   0.250   5.029   0.530  0.2754 -0.2380 -0.2535
21245SOL    HW165667   0.190   5.083   0.478 -0.1996  0.7998  1.2839
21245SOL    HW265668   0.192   4.973   0.582  0.7502 -1.5797 -1.0894
21246SOL     OW65669   5.555   2.162   5.517  0.2927 -0.4994 -0.0851
21246SOL    HW165670   5.587   2.236   5.569  0.9608 -0.9641  0.1776
21246SOL    HW265671   5.554   2.195   5.427 -0.8295  0.2951  0.1965
21247SOL     OW65672   8.855   8.770   3.199 -0.2575  0.2250  0.2202
21247SOL    HW165673   8.915   8.806   3.134  1.6277  2.0892  2.7705
21247SOL    HW265674   8.911   8.736   3.268 -2.1541 -2.6515  0.4913
21248SOL     OW65675   0.959   4.095   3.001 -0.4597  0.3088 -0.0712
21248SOL    HW165676   0.946   4.057   2.914 -1.0456 -1.4630  0.7472
21248SOL    HW265677   0.911   4.177   2.999  0.7093  1.0183 -1.8595
21249SOL     OW65678   7.153   0.847   0.258 -0.5032 -0.4349 -0.5383
21249SOL    HW165679   7.213   0.864   0.186  0.3253 -0.3022  0.1749
21249SOL    HW265680   7.067   0.839   0.216 -0.0942  0.0455 -1.4904
21250SOL     OW65681   1.634   7.427   8.861  0.1390 -0.3176  0.2912
21250SOL    HW165682   1.586   7.367   8.804 -0.1779 -0.3952  0.6378
21250SOL    HW265683   1.567   7.464   8.919  0.2107  0.8698 -0.3447
21251SOL     OW65684   6.882   8.221   1.795 -0.7590 -0.0597 -0.1058
21251SOL    HW165685   6.842   8.212   1.881 -0.5962 -1.8253 -0.1909
21251SOL    HW265686   6.815   8.262   1.741 -0.6743  1.5762  0.9643
21252SOL     OW65687   8.458   3.875   0.501  0.3777 -0.8800  0.6280
21252SOL    HW165688   8.457   3.866   0.596 -2.2304 -0.3572  0.7187
21252SOL    HW265689   8.367   3.889   0.477  1.2062  1.0868 -1.7688
21253SOL     OW65690   6.424   7.784   5.760 -0.1463 -0.0161  0.0692
21253SOL    HW165691   6.495   7.840   5.728  0.0889  0.8257  1.9596
21253SOL    HW265692   6.367   7.842   5.809 -1.3772 -0.9647 -0.1936
21254SOL     OW65693   8.627   5.754   3.258  0.0434 -0.2037  0.5921
21254SOL    HW165694   8.548   5.806   3.274  0.0373  0.0633 -0.2740
21254SOL    HW265695   8.654   5.725   3.345 -0.7801  0.0348  0.9400
21255SOL     OW65696   1.349   0.250   4.501  0.3065 -0.0034 -0.2939
21255SOL    HW165697   1.371   0.215   4.415 -0.6847  0.1716 -0.6309
21255SOL    HW265698   1.258   0.279   4.492  0.5811  1.1430  0.4463
21256SOL     OW65699   6.105   4.676   5.836  0.3092  0.7705 -0.0956
21256SOL    HW165700   6.019   4.634   5.833  0.0637  1.1543  0.9969
21256SOL    HW265701   6.086   4.770   5.831  0.7016  0.8381 -0.3432
21257SOL     OW65702   6.380   8.782   6.598  0.8054 -0.0352  0.5676
21257SOL    HW165703   6.418   8.842   6.534  1.5698  0.3987  1.4142
21257SOL    HW265704   6.375   8.698   6.552 -1.1261  0.8285 -0.9585
21258SOL     OW65705   5.075   6.051   8.675 -0.1559  0.3244 -0.3118
21258SOL    HW165706   5.058   6.144   8.661  1.8630  0.9222  0.8241
21258SOL    HW265707   5.029   6.030   8.756  0.9472  0.8541  0.4737
21259SOL     OW65708   2.373   5.037   2.208  0.0117  0.1807 -0.5622
21259SOL    HW165709   2.417   5.120   2.188  0.7707 -0.1371 -0.2331
21259SOL    HW265710   2.304   5.031   2.141  0.9477  0.3262 -1.5812
21260SOL     OW65711   8.078   0.688   3.091  0.3212 -0.0038  0.4352
21260SOL    HW165712   8.147   0.748   3.118 -0.3120  1.0895 -0.2862
21260SOL    HW265713   8.122   0.604   3.079  1.5551  0.6961 -0.1185
21261SOL     OW65714   5.122   8.447   3.591  0.2243 -0.5144  0.2752
21261SOL    HW165715   5.207   8.460   3.549 -0.0725 -1.4109 -0.6291
21261SOL    HW265716   5.138   8.470   3.683  1.6255 -1.2935  0.2600
21262SOL     OW65717   0.581   1.676   3.772 -0.2348 -0.2003 -0.4875
21262SOL    HW165718   0.497   1.636   3.794 -0.0543  0.2753  1.2294
21262SOL    HW265719   0.558   1.762   3.738 -0.4405  0.4287  1.1470
21263SOL     OW65720   7.418   6.448   1.678 -0.5194  0.0730 -0.5099
21263SOL    HW165721   7.507   6.425   1.651 -1.2607 -2.1342 -1.2303
21263SOL    HW265722   7.369   6.456   1.596 -1.3536 -0.3394 -0.0624
21264SOL     OW65723   1.115   8.297   0.549  0.0586  0.0852  0.0507
21264SOL    HW165724   1.065   8.357   0.603 -0.3086 -0.0104 -0.1784
21264SOL    HW265725   1.167   8.246   0.611 -1.2145 -0.8257  0.4276
21265SOL     OW65726   5.576   5.352   8.826 -0.2050  0.3971  0.0783
21265SOL    HW165727   5.491   5.331   8.864  0.4238 -0.1440  1.2407
21265SOL    HW265728   5.556   5.406   8.750 -1.6883 -1.0305 -0.6137
21266SOL     OW65729   6.335   3.673   4.304 -0.0270 -0.2033 -0.1055
21266SOL    HW165730   6.360   3.741   4.367 -1.7088  1.8572 -1.4753
21266SOL    HW265731   6.240   3.681   4.298 -0.4238 -3.4523  0.3802
21267SOL     OW65732   5.809   6.582   2.722 -0.5190 -0.7800 -0.1420
21267SOL    HW165733   5.889   6.622   2.688 -0.8624 -1.9952 -2.5683
21267SOL    HW265734   5.840   6.508   2.774 -0.0481 -1.1277 -0.9083
21268SOL     OW65735   4.238   5.001   2.631 -0.3135 -0.7443  0.1180
21268SOL    HW165736   4.209   5.090   2.612  1.4550  0.4291  2.3803
21268SOL    HW265737   4.188   4.975   2.708 -0.1017 -1.3066  0.0699
21269SOL     OW65738   4.346   4.189   8.703  0.2012  0.5657  0.1296
21269SOL    HW165739   4.399   4.228   8.633 -0.8626  0.5870 -0.6864
21269SOL    HW265740   4.259   4.179   8.664 -0.3954  0.5276  1.4482
21270SOL     OW65741   4.613   7.064   7.755 -0.3863 -0.5161 -0.4740
21270SOL    HW165742   4.638   7.033   7.842 -1.0688 -0.7135 -0.3456
21270SOL    HW265743   4.539   7.010   7.730 -0.1561 -0.5044 -1.2118
21271SOL     OW65744   3.292   8.124   1.134  0.2642 -0.5164 -0.0526
21271SOL    HW165745   3.259   8.050   1.184  1.8678 -0.6423  0.8794
21271SOL    HW265746   3.285   8.097   1.042 -0.3340 -1.3043  0.2214
21272SOL     OW65747   0.607   8.770   6.455  0.3791  0.0585  0.2725
21272SOL    HW165748   0.580   8.697   6.400 -1.6201  0.7998  0.1742
21272SOL    HW265749   0.702   8.770   6.451  0.3753 -1.8963 -0.5380
21273SOL     OW65750   6.952   4.345   4.800  0.1261  0.1055 -0.4264
21273SOL    HW165751   6.972   4.401   4.725  1.0388 -0.4562 -0.6096
21273SOL    HW265752   6.949   4.257   4.763 -0.3083 -0.0778  0.0429
21274SOL     OW65753   0.167   1.355   2.091 -0.1385  0.4253 -0.3390
21274SOL    HW165754   0.260   1.361   2.071 -0.2455  0.4987 -0.8230
21274SOL    HW265755   0.126   1.419   2.033 -0.4581  0.6183  0.0941
21275SOL     OW65756   5.944   0.221   2.939  0.6830  0.3396  0.2059
21275SOL    HW165757   5.897   0.305   2.943  1.2713  0.6228  2.7798
21275SOL    HW265758   5.971   0.204   3.029  0.4533 -2.7271 -0.1771
21276SOL     OW65759   5.004   7.637   8.846  0.3945 -0.3104  0.1217
21276SOL    HW165760   4.960   7.674   8.769 -0.3773 -0.1486  0.6221
21276SOL    HW265761   5.034   7.551   8.817  1.1448  0.2060 -0.6967
21277SOL     OW65762   5.662   2.421   7.894 -0.2634 -0.9371  0.1700
21277SOL    HW165763   5.572   2.396   7.876 -1.4996  2.7019  0.4134
21277SOL    HW265764   5.666   2.515   7.872  2.6324 -0.2378  2.8854
21278SOL     OW65765   1.980   8.143   1.740  0.1461  0.0885 -0.6085
21278SOL    HW165766   2.041   8.076   1.772 -1.4495 -1.4774 -0.7381
21278SOL    HW265767   1.994   8.145   1.645 -0.8912 -1.2389 -0.8169
21279SOL     OW65768   6.620   4.324   2.781 -0.2271  0.8126  0.5709
21279SOL    HW165769   6.712   4.348   2.770 -0.0693  0.2590  0.6764
21279SOL    HW265770   6.603   4.338   2.874 -0.1810  0.6965  0.5982
21280SOL     OW65771   2.663   3.485   3.891 -0.1923 -0.2052  0.2094
21280SOL    HW165772   2.574   3.504   3.921 -0.4321 -0.9951  0.0283
21280SOL    HW265773   2.671   3.532   3.808 -0.5789 -0.4192  0.0439
21281SOL     OW65774   1.257   4.222   1.259  0.7591  0.1324 -0.2150
21281SOL    HW165775   1.223   4.133   1.253  0.8924  0.1208 -0.8530
21281SOL    HW265776   1.276   4.234   1.352  0.2641 -0.3241 -0.0486
21282SOL     OW65777   8.233   6.525   0.840 -0.6047 -0.0004 -0.5008
21282SOL    HW165778   8.275   6.564   0.917 -0.6297  0.1904 -0.5843
21282SOL    HW265779   8.249   6.431   0.850 -0.0536  0.0773 -0.5856
21283SOL     OW65780   7.698   6.072   8.775  0.1861 -0.8272  0.0361
21283SOL    HW165781   7.725   5.984   8.747  1.6897 -0.2877 -0.2757
21283SOL    HW265782   7.735   6.131   8.709  2.2054  0.3130  2.0465
21284SOL     OW65783   8.402   0.655   1.568 -0.1973 -0.2137  0.1260
21284SOL    HW165784   8.446   0.644   1.652 -0.4056  0.9042  0.3955
21284SOL    HW265785   8.355   0.572   1.555 -1.7492  0.2757  2.0678
21285SOL     OW65786   4.430   4.060   1.301  0.7947  0.3558  0.0336
21285SOL    HW165787   4.494   4.067   1.230  0.9072  1.6200  0.2441
21285SOL    HW265788   4.367   4.130   1.284 -1.9007 -2.1764 -1.4440
21286SOL     OW65789   3.983   7.414   3.621 -1.0077  0.2260  0.2524
21286SOL    HW165790   3.999   7.439   3.712 -0.5564  0.9692 -0.0248
21286SOL    HW265791   4.067   7.382   3.590 -0.3437  2.7906 -0.7817
21287SOL     OW65792   3.466   4.058   7.869 -0.5336  0.3926 -0.5595
21287SOL    HW165793   3.371   4.067   7.881 -0.6729  1.0470 -1.9202
21287SOL    HW265794   3.482   3.964   7.869 -1.0323  0.2981  0.6811
21288SOL     OW65795   0.210   4.625   8.551  0.1537 -0.3961 -0.0628
21288SOL    HW165796   0.260   4.642   8.630  0.5169  0.7062 -0.5014
21288SOL    HW265797   0.257   4.672   8.482 -0.2637 -1.1623 -0.8997
21289SOL     OW65798   1.870   5.294   5.442  0.4925 -0.1347 -0.1241
21289SOL    HW165799   1.845   5.351   5.515  1.0485  1.0001 -0.7960
21289SOL    HW265800   1.804   5.225   5.442 -0.6110  0.8790  0.2933
21290SOL     OW65801   1.914   5.565   2.744 -0.2464 -0.6554  0.2287
21290SOL    HW165802   1.968   5.631   2.787  1.2461 -0.7906 -1.3859
21290SOL    HW265803   1.946   5.481   2.778  0.2500 -0.7121 -0.3699
21291SOL     OW65804   3.058   7.371   0.527 -0.2806 -0.0510  0.5289
21291SOL    HW165805   3.073   7.304   0.593 -1.0782 -0.3015  0.4678
21291SOL    HW265806   3.130   7.433   0.538  0.1557 -0.6277  0.9490
21292SOL     OW65807   0.902   2.540   8.172 -0.3689 -0.3794  0.2010
21292SOL    HW165808   0.875   2.488   8.096  0.1347 -0.8220  0.3184
21292SOL    HW265809   0.978   2.589   8.142 -0.6783  0.0899  0.1713
21293SOL     OW65810   8.364   7.568   7.824 -0.1082 -0.1156 -0.0135
21293SOL    HW165811   8.420   7.531   7.755 -1.1415  0.4368 -1.1833
21293SOL    HW265812   8.275   7.546   7.797 -0.6582  1.7974  0.0912
21294SOL     OW65813   7.602   2.963   0.471 -0.2369  0.0236 -0.0034
21294SOL    HW165814   7.673   2.981   0.533 -0.1094  0.3381 -0.2354
21294SOL    HW265815   7.522   2.973   0.523 -0.1553  0.8436 -0.0116
21295SOL     OW65816   8.637   0.822   2.790 -0.1085  0.2905  0.0059
21295SOL    HW165817   8.596   0.823   2.703  0.3696 -1.3042 -0.2662
21295SOL    HW265818   8.731   0.828   2.772  0.0081 -0.2975  0.3828
21296SOL     OW65819   6.642   1.050   3.207  0.2640  0.8440  0.2387
21296SOL    HW165820   6.711   1.109   3.236  1.0909 -0.1164  0.2658
21296SOL    HW265821   6.679   0.962   3.217  0.2684  0.3945 -2.8211
21297SOL     OW65822   6.788   2.376   7.884 -0.1275  0.5246  0.2748
21297SOL    HW165823   6.722   2.307   7.892 -0.5015  0.7009 -1.0108
21297SOL    HW265824   6.738   2.455   7.861  0.3978  0.9705  0.6594
21298SOL     OW65825   5.790   3.833   1.652 -0.1890  0.2215  0.5416
21298SOL    HW165826   5.769   3.740   1.639  0.2437  0.3539 -1.4353
21298SOL    HW265827   5.848   3.834   1.728 -0.5581 -1.0615  0.8783
21299SOL     OW65828   2.069   0.390   0.803  0.9167 -0.3752 -0.1384
21299SOL    HW165829   2.042   0.327   0.737 -4.5653 -0.5526  1.7969
21299SOL    HW265830   2.091   0.336   0.879 -2.7052 -0.3210  1.1576
21300SOL     OW65831   5.726   6.382   7.030  0.0114  0.0305 -0.2501
21300SOL    HW165832   5.735   6.421   7.117  0.6044 -1.2603  0.2992
21300SOL    HW265833   5.727   6.287   7.046 -2.2834 -0.2695 -1.4291
21301SOL     OW65834   7.719   3.731   0.104  0.1940  0.2838 -0.2787
21301SOL    HW165835   7.766   3.718   0.186  0.5820 -1.0365 -0.6865
21301SOL    HW265836   7.788   3.730   0.037 -0.1083  1.4258 -0.6291
21302SOL     OW65837   2.663   8.529   8.184 -1.0145 -0.7465 -0.1517
21302SOL    HW165838   2.674   8.620   8.156  0.2360 -0.5001  1.0867
21302SOL    HW265839   2.568   8.514   8.179 -1.4450  1.1561  1.2042
21303SOL     OW65840   8.193   1.268   4.805 -0.0303  0.1134  0.1113
21303SOL    HW165841   8.119   1.214   4.776  0.9054 -0.6721 -0.8905
21303SOL    HW265842   8.200   1.250   4.899 -1.5062  0.7195  0.3727
21304SOL     OW65843   0.608   6.815   2.960 -0.7690 -0.6079 -0.3584
21304SOL    HW165844   0.644   6.803   3.048 -1.5741 -1.3370 -0.1153
21304SOL    HW265845   0.684   6.810   2.903 -0.4696 -2.3940  0.1248
21305SOL     OW65846   4.988   0.610   5.870 -0.2373  0.5054  0.1704
21305SOL    HW165847   4.982   0.701   5.898 -1.3178  0.0882  1.3741
21305SOL    HW265848   5.028   0.614   5.783 -0.2737  2.1173  0.2076
21306SOL     OW65849   4.248   1.435   1.084 -0.0002  0.2553 -0.0033
21306SOL    HW165850   4.200   1.512   1.113 -0.0116  0.3183 -0.1912
21306SOL    HW265851   4.185   1.385   1.033 -0.4926 -0.6948  1.4660
21307SOL     OW65852   2.216   8.389   5.573  0.0919  0.1107  0.5310
21307SOL    HW165853   2.128   8.425   5.562  0.0663 -0.2277 -0.4294
21307SOL    HW265854   2.274   8.463   5.554  0.0196  0.0835  0.1934
21308SOL     OW65855   5.775   4.898   3.818 -0.4499  0.3783 -0.5602
21308SOL    HW165856   5.713   4.831   3.788  0.6903 -1.1581  0.3158
21308SOL    HW265857   5.720   4.964   3.860 -1.6499  0.1616 -1.7226
21309SOL     OW65858   0.437   1.971   7.428  0.0769  0.0670  0.7911
21309SOL    HW165859   0.509   1.917   7.461  0.6405 -1.0990 -2.0501
21309SOL    HW265860   0.473   2.059   7.423  1.3714 -0.4976 -0.5903
21310SOL     OW65861   4.004   7.385   2.751  0.5327  0.0310  0.1775
21310SOL    HW165862   4.079   7.332   2.723  0.3689 -0.2623  0.2911
21310SOL    HW265863   4.021   7.472   2.713 -0.1752 -0.5934 -1.6880
21311SOL     OW65864   4.433   4.656   7.920  0.7140 -0.4409 -0.5713
21311SOL    HW165865   4.430   4.703   8.004  0.9151 -1.5511  0.0736
21311SOL    HW265866   4.510   4.693   7.875  0.5875  0.1819 -0.2938
21312SOL     OW65867   8.739   7.205   8.362 -0.4200  0.3406 -0.5169
21312SOL    HW165868   8.674   7.210   8.291  0.8214 -1.2618 -1.8376
21312SOL    HW265869   8.814   7.255   8.330 -0.0164 -0.0152 -0.1387
21313SOL     OW65870   4.761   7.694   1.305  0.6387  0.5505  0.4157
21313SOL    HW165871   4.738   7.692   1.398  0.3678  0.0457  0.3419
21313SOL    HW265872   4.856   7.703   1.304  0.4908  2.6655  0.7234
21314SOL     OW65873   6.172   6.313   6.838 -0.9447  0.3010  0.2443
21314SOL    HW165874   6.203   6.223   6.827 -1.4423  0.1529  0.0155
21314SOL    HW265875   6.106   6.308   6.907 -0.2911  0.6575  0.9064
21315SOL     OW65876   3.565   5.046   0.609  0.4908  0.0828 -0.5116
21315SOL    HW165877   3.517   4.976   0.653  0.7877  0.5119  0.5250
21315SOL    HW265878   3.581   5.012   0.520 -1.0666 -0.3585 -0.6513
21316SOL     OW65879   2.995   3.326   2.167 -0.3431  0.0698 -0.2105
21316SOL    HW165880   2.988   3.279   2.084 -0.1430 -1.4953  0.6302
21316SOL    HW265881   3.084   3.362   2.167  1.0804 -3.1524  0.9201
21317SOL     OW65882   6.773   4.038   8.840  0.0503 -0.5687  0.0113
21317SOL    HW165883   6.838   4.021   8.908  0.6549  1.9091  0.1553
21317SOL    HW265884   6.822   4.086   8.773 -1.1947 -0.4139 -0.8094
21318SOL     OW65885   4.887   0.521   4.356 -0.5665  0.3344  0.1151
21318SOL    HW165886   4.947   0.464   4.308 -1.9432 -1.2982  0.2695
21318SOL    HW265887   4.927   0.532   4.442 -1.0683 -1.7856  0.6564
21319SOL     OW65888   4.836   5.544   3.883  0.0733 -0.2616 -0.4135
21319SOL    HW165889   4.873   5.630   3.866  0.6359 -0.0540  1.5776
21319SOL    HW265890   4.908   5.494   3.921 -1.3065 -0.1556  2.6755
21320SOL     OW65891   8.557   6.976   6.737  0.5883 -0.7155  0.2620
21320SOL    HW165892   8.479   6.930   6.768  0.0655 -1.4664 -1.9822
21320SOL    HW265893   8.561   6.956   6.643  1.7145  1.8541 -0.3302
21321SOL     OW65894   2.039   5.014   7.869 -0.3402  0.1220 -0.3037
21321SOL    HW165895   2.019   4.942   7.810  0.9907  0.3216 -1.0325
21321SOL    HW265896   2.056   4.972   7.953 -2.2726 -0.1605 -0.0101
21322SOL     OW65897   0.734   5.786   4.455  0.1802 -0.4849  0.6882
21322SOL    HW165898   0.678   5.818   4.385 -0.9029 -2.1059  0.7794
21322SOL    HW265899   0.820   5.774   4.414 -0.1432 -0.3048 -0.0493
21323SOL     OW65900   6.933   2.716   8.126 -0.0061  0.3320  0.5005
21323SOL    HW165901   6.929   2.796   8.179  0.8852 -0.1916  1.3893
21323SOL    HW265902   6.868   2.730   8.057 -0.6812  1.3337  1.3100
21324SOL     OW65903   0.828   7.433   0.212 -0.2885  0.5826  0.0846
21324SOL    HW165904   0.744   7.403   0.176 -0.2476 -1.3168  1.3974
21324SOL    HW265905   0.803   7.487   0.287 -0.3145  1.4282 -0.5081
21325SOL     OW65906   2.543   2.408   1.998  0.3977  0.1238 -0.5694
21325SOL    HW165907   2.489   2.455   2.062  2.0239  0.2331  0.8164
21325SOL    HW265908   2.532   2.315   2.021 -0.1658  0.0515 -1.1078
21326SOL     OW65909   3.363   8.466   5.113  0.0877  0.8888  0.0330
21326SOL    HW165910   3.275   8.492   5.086  0.0282  1.3409  0.6686
21326SOL    HW265911   3.364   8.371   5.102 -0.9411  0.7109  1.3703
21327SOL     OW65912   0.673   3.001   3.359 -0.3416 -0.2180 -0.0252
21327SOL    HW165913   0.682   2.988   3.453 -0.2694 -0.7924 -0.1086
21327SOL    HW265914   0.647   3.093   3.350  0.5606  0.0959  0.4968
21328SOL     OW65915   2.872   5.119   2.045  0.2122  0.3025  0.5171
21328SOL    HW165916   2.803   5.057   2.070  0.1071  0.1860 -0.0430
21328SOL    HW265917   2.889   5.100   1.952 -2.1137  3.2278 -0.6671
21329SOL     OW65918   3.771   7.848   3.573 -0.4318  0.3426  0.3620
21329SOL    HW165919   3.791   7.762   3.535 -0.4121  0.6178 -0.2667
21329SOL    HW265920   3.785   7.837   3.667 -1.4263 -0.6253  0.4104
21330SOL     OW65921   7.352   3.567   4.382 -0.3768 -0.4994 -0.0537
21330SOL    HW165922   7.332   3.560   4.288 -2.0022  0.4704  0.1741
21330SOL    HW265923   7.267   3.558   4.425  0.2634 -0.3061  1.2922
21331SOL     OW65924   5.354   1.653   3.292  0.0971 -0.1646 -0.0426
21331SOL    HW165925   5.351   1.621   3.382 -0.0848  0.4403  0.1687
21331SOL    HW265926   5.413   1.593   3.247  2.3606  1.0769  1.1091
21332SOL     OW65927   1.025   1.871   4.925  0.0997  0.9114  0.1775
21332SOL    HW165928   0.945   1.835   4.961  0.3429 -0.8943 -0.9269
21332SOL    HW265929   1.034   1.957   4.965 -1.5175  0.4830  1.5433
21333SOL     OW65930   3.958   7.178   4.978  0.0049  0.7670  0.0802
21333SOL    HW165931   3.931   7.094   4.942  1.7404 -0.2705  1.0430
21333SOL    HW265932   3.963   7.162   5.073  1.8329  1.4738  0.1398
21334SOL     OW65933   4.408   3.759   3.949  0.3512 -0.0862  0.1230
21334SOL    HW165934   4.334   3.725   3.899 -0.1255 -1.4150  1.6315
21334SOL    HW265935   4.407   3.853   3.934 -1.0132 -0.2097 -0.7182
21335SOL     OW65936   7.052   3.267   5.861 -0.1441 -0.0772 -0.3883
21335SOL    HW165937   6.971   3.278   5.911  0.1456 -3.1347  1.0333
21335SOL    HW265938   7.025   3.219   5.782  0.0559  0.5970 -0.8793
21336SOL     OW65939   8.737   4.889   3.273 -0.2828  0.4480  0.2247
21336SOL    HW165940   8.818   4.846   3.303  0.2375  1.1277 -0.1806
21336SOL    HW265941   8.679   4.884   3.349  0.0475 -0.2578  0.4469
21337SOL     OW65942   5.756   2.120   3.435 -0.3125  0.3309 -0.0635
21337SOL    HW165943   5.729   2.209   3.458  0.5531  1.1403 -1.9383
21337SOL    HW265944   5.851   2.123   3.437 -0.2457 -0.1316 -1.4732
21338SOL     OW65945   3.689   5.649   8.016 -0.4395  0.4230 -0.1780
21338SOL    HW165946   3.654   5.727   8.059  1.3804  1.5734 -0.7058
21338SOL    HW265947   3.729   5.599   8.087 -1.7612 -0.1780  0.1892
21339SOL     OW65948   5.286   6.807   5.156 -0.0229 -0.6057  0.3155
21339SOL    HW165949   5.309   6.763   5.237 -3.2126 -0.4091  1.4709
21339SOL    HW265950   5.210   6.759   5.122  0.5380 -0.0214 -2.0050
21340SOL     OW65951   7.227   7.657   5.852  0.4639  0.1673 -0.1469
21340SOL    HW165952   7.159   7.719   5.828  0.4074  0.2995  0.3481
21340SOL    HW265953   7.189   7.606   5.924  0.3142 -0.7868 -0.8765
21341SOL     OW65954   8.766   3.856   6.700  0.3741 -0.1607  0.1633
21341SOL    HW165955   8.793   3.768   6.729 -0.0409 -0.7404 -1.1441
21341SOL    HW265956   8.674   3.845   6.676  0.7627  0.1992 -1.6231
21342SOL     OW65957   7.059   2.000   3.271 -1.0408 -0.3667 -0.7400
21342SOL    HW165958   7.034   1.928   3.213 -0.9146 -0.6434 -0.4563
21342SOL    HW265959   6.987   2.062   3.266 -2.0096 -1.3584  0.4209
21343SOL     OW65960   5.561   5.573   5.479  0.5579 -0.5829  0.5194
21343SOL    HW165961   5.468   5.552   5.477  0.5161 -0.3971 -0.8727
21343SOL    HW265962   5.567   5.659   5.436  1.4812 -1.1864 -0.6195
21344SOL     OW65963   8.422   6.673   8.403 -0.7658 -0.2987  0.0670
21344SOL    HW165964   8.515   6.649   8.406 -0.8834 -0.7842 -0.0870
21344SOL    HW265965   8.396   6.654   8.313 -1.2222 -0.9436  0.3318
21345SOL     OW65966   4.506   4.943   2.670 -0.3920 -0.7201 -0.2269
21345SOL    HW165967   4.413   4.922   2.667 -0.7212  0.4306  0.7221
21345SOL    HW265968   4.512   5.013   2.736  1.1925 -1.0533  0.0275
21346SOL     OW65969   5.362   2.760   3.701 -0.3557  0.1154  0.1544
21346SOL    HW165970   5.302   2.782   3.771 -0.2159  0.8307  0.0544
21346SOL    HW265971   5.343   2.823   3.631 -0.4621 -0.5531 -0.4368
21347SOL     OW65972   8.398   5.945   8.186 -0.1389 -0.1714  0.4756
21347SOL    HW165973   8.371   5.995   8.263  0.1958 -0.0148  0.4939
21347SOL    HW265974   8.360   5.992   8.112 -1.5373 -1.0325  0.6132
21348SOL     OW65975   3.287   1.936   5.233 -0.1789 -0.2761 -0.0789
21348SOL    HW165976   3.251   1.992   5.164  0.6864  1.5581  0.8788
21348SOL    HW265977   3.212   1.912   5.287 -1.0007 -2.3734 -1.9979
21349SOL     OW65978   7.681   2.037   3.031  0.5839  0.0275 -0.1592
21349SOL    HW165979   7.703   2.015   3.122 -2.3460  1.0079  0.9018
21349SOL    HW265980   7.653   1.954   2.992 -0.4645 -0.0068  0.6213
21350SOL     OW65981   2.229   5.862   7.475  0.0988  0.8796  0.1881
21350SOL    HW165982   2.291   5.873   7.403 -1.2042  2.3690 -0.7796
21350SOL    HW265983   2.206   5.769   7.474  4.7485 -0.5941  2.7728
21351SOL     OW65984   3.755   1.331   5.971 -0.2083  0.6697 -0.3936
21351SOL    HW165985   3.829   1.302   5.917 -1.9849 -0.3611 -2.3990
21351SOL    HW265986   3.696   1.375   5.909 -0.9937  2.1195  1.2891
21352SOL     OW65987   0.959   3.859   8.838  0.5250 -0.1814 -0.1741
21352SOL    HW165988   1.045   3.861   8.880  0.4026  0.1498  0.0664
21352SOL    HW265989   0.898   3.854   8.912  0.3649 -1.3613 -0.3637
21353SOL     OW65990   3.757   3.265   2.865  0.0825  0.3549 -0.6267
21353SOL    HW165991   3.683   3.310   2.906 -0.3379 -0.3487 -0.6049
21353SOL    HW265992   3.832   3.322   2.883  0.1780 -0.5497  2.2908
21354SOL     OW65993   5.525   5.166   3.025  0.2848 -0.1754 -0.1924
21354SOL    HW165994   5.494   5.222   2.954  1.3852  0.1976 -0.4013
21354SOL    HW265995   5.620   5.166   3.016  0.3816 -0.9976  0.6304
21355SOL     OW65996   0.414   5.137   3.691 -0.3200  0.0286 -0.0767
21355SOL    HW165997   0.472   5.173   3.624 -0.1530 -0.3327 -0.1318
21355SOL    HW265998   0.474   5.104   3.759 -0.5015  0.7326  0.4248
21356SOL     OW65999   5.638   1.477   2.967 -0.2117 -0.2335  0.0536
21356SOL    HW166000   5.689   1.422   2.908 -0.5977 -0.4836 -0.0529
21356SOL    HW266001   5.549   1.475   2.932 -0.1205  0.9342 -0.2835
21357SOL     OW66002   6.521   1.005   8.485  0.1890 -0.5291  0.1475
21357SOL    HW166003   6.602   1.016   8.435  1.3849 -0.3461  2.0208
21357SOL    HW266004   6.476   0.932   8.443  2.2884 -1.9471  0.2325
21358SOL     OW66005   7.747   4.590   5.988  0.0339  0.8317 -0.4227
21358SOL    HW166006   7.712   4.554   5.907 -1.2422  0.7231  0.1546
21358SOL    HW266007   7.708   4.537   6.057  3.6406 -1.2969  0.2401
21359SOL     OW66008   4.613   4.393   4.930 -0.0974  0.1252 -0.4755
21359SOL    HW166009   4.558   4.426   5.001 -1.1600 -3.0122  0.3387
21359SOL    HW266010   4.693   4.363   4.974  0.2782  0.3929 -0.9712
21360SOL     OW66011   4.859   6.197   8.116  0.4104 -0.4621  0.1332
21360SOL    HW166012   4.864   6.187   8.211  0.4021  0.2771  0.2216
21360SOL    HW266013   4.950   6.193   8.087  0.7192  2.0359  0.5024
21361SOL     OW66014   7.361   1.484   8.422  0.2840  0.1734 -0.0774
21361SOL    HW166015   7.434   1.523   8.374  0.8112 -0.8575 -0.1495
21361SOL    HW266016   7.388   1.393   8.437 -0.0036  0.3548  1.8810
21362SOL     OW66017   6.385   2.489   6.913  0.1585 -0.1339 -0.1069
21362SOL    HW166018   6.404   2.454   6.826 -0.1434  0.3264 -0.3620
21362SOL    HW266019   6.419   2.422   6.973  3.1075  0.8705 -0.5040
21363SOL     OW66020   5.746   7.411   0.976 -0.1654  0.5205  0.0950
21363SOL    HW166021   5.757   7.316   0.970  0.6833  0.5512  0.8563
21363SOL    HW266022   5.685   7.433   0.906  1.8777 -0.2154 -2.0635
21364SOL     OW66023   4.312   1.547   0.379 -0.1712  0.1670  0.2641
21364SOL    HW166024   4.400   1.565   0.413 -0.2980 -1.5131  1.5692
21364SOL    HW266025   4.312   1.586   0.292  2.2125 -0.6367 -0.1659
21365SOL     OW66026   8.290   5.576   0.737  0.0769  0.1373  0.1821
21365SOL    HW166027   8.307   5.630   0.660  0.0757 -1.2483 -0.8196
21365SOL    HW266028   8.367   5.590   0.793  0.2579  0.8426 -0.2297
21366SOL     OW66029   2.474   0.334   4.582  0.3121 -0.2955 -0.0980
21366SOL    HW166030   2.393   0.381   4.563 -0.4044 -1.6018 -0.3969
21366SOL    HW266031   2.542   0.402   4.584 -0.7953  0.8282  0.2354
21367SOL     OW66032   6.842   5.892   8.129  0.1764 -0.2891 -0.2924
21367SOL    HW166033   6.910   5.825   8.127 -0.9792 -1.4972 -0.5326
21367SOL    HW266034   6.803   5.889   8.041 -0.2339  0.3409 -0.1357
21368SOL     OW66035   5.143   7.092   7.687 -0.3889 -0.0630  0.1130
21368SOL    HW166036   5.107   7.055   7.607  0.5478  0.0143 -0.3622
21368SOL    HW266037   5.079   7.157   7.715 -1.1487 -0.7045 -0.0768
21369SOL     OW66038   3.168   6.888   5.985  0.0170 -0.4042 -0.6409
21369SOL    HW166039   3.141   6.806   6.026  1.7533 -0.9391 -0.5002
21369SOL    HW266040   3.152   6.873   5.891 -0.7672 -0.4408 -0.5132
21370SOL     OW66041   6.985   3.762   2.957 -0.2994  0.4084 -0.1088
21370SOL    HW166042   6.933   3.842   2.952 -0.9650  0.0766  1.1438
21370SOL    HW266043   6.923   3.695   2.986  0.2203 -0.6016 -1.2608
21371SOL     OW66044   7.181   4.673   3.231 -1.2147  0.2345 -0.2667
21371SOL    HW166045   7.145   4.605   3.175 -0.7874  0.3131 -0.6376
21371SOL    HW266046   7.172   4.638   3.320  0.7615 -1.1474 -0.5590
21372SOL     OW66047   3.255   0.952   2.763  0.0870 -0.2138  0.1080
21372SOL    HW166048   3.262   1.042   2.794 -0.8904  0.4921 -1.5757
21372SOL    HW266049   3.342   0.915   2.776  0.4645  0.9050  0.9486
21373SOL     OW66050   7.259   2.775   8.824 -0.3901 -0.4975  0.7697
21373SOL    HW166051   7.352   2.758   8.812 -0.3814 -0.0143  0.1183
21373SOL    HW266052   7.227   2.797   8.737 -1.0016 -0.1178  1.0840
21374SOL     OW66053   8.393   3.844   1.199  0.2625  0.4795  0.4717
21374SOL    HW166054   8.353   3.922   1.237  1.3858  0.8445  0.9267
21374SOL    HW266055   8.324   3.806   1.144 -0.0933  2.1755 -0.3254
21375SOL     OW66056   4.736   7.537   5.455  0.2396 -0.2485 -0.6134
21375SOL    HW166057   4.827   7.511   5.471  0.3550 -0.2561 -1.2439
21375SOL    HW266058   4.707   7.479   5.384 -0.0460  0.1811 -0.8502
21376SOL     OW66059   2.298   0.604   6.101 -0.4879  0.4070 -0.6345
21376SOL    HW166060   2.245   0.668   6.148 -1.2793  0.5418 -1.6679
21376SOL    HW266061   2.242   0.527   6.094 -0.2958  0.3103 -1.1473
21377SOL     OW66062   2.421   8.656   5.861 -0.7392 -0.1528  0.2262
21377SOL    HW166063   2.512   8.651   5.891 -1.0432 -0.0950  1.1730
21377SOL    HW266064   2.424   8.620   5.772  0.1531 -0.4597  0.3673
21378SOL     OW66065   4.497   0.425   2.330  0.4130  0.4056 -0.1491
21378SOL    HW166066   4.502   0.390   2.241 -3.0944 -0.9746  0.0398
21378SOL    HW266067   4.589   0.433   2.358  1.5688 -1.5857 -2.9202
21379SOL     OW66068   6.358   6.046   0.874  0.3979 -0.5562 -0.4522
21379SOL    HW166069   6.364   6.029   0.780  0.9824 -0.3712 -0.4541
21379SOL    HW266070   6.322   5.965   0.910 -0.1636 -0.5030 -0.8727
21380SOL     OW66071   1.303   4.836   6.876  0.0567 -0.0122 -0.1966
21380SOL    HW166072   1.255   4.849   6.958 -2.6544 -0.9796 -1.5030
21380SOL    HW266073   1.301   4.923   6.834  0.1694  0.1453  0.1204
21381SOL     OW66074   2.367   5.696   1.263  0.2938 -0.3560 -0.0335
21381SOL    HW166075   2.381   5.743   1.345  0.0219  1.4852 -1.0112
21381SOL    HW266076   2.272   5.693   1.253  0.3299 -0.4555 -0.3570
21382SOL     OW66077   6.339   4.178   3.384 -0.0506  0.1073 -0.1935
21382SOL    HW166078   6.425   4.198   3.349  0.5772 -3.1487 -0.8223
21382SOL    HW266079   6.339   4.218   3.471  2.0296  0.3314 -0.2475
21383SOL     OW66080   0.308   3.102   0.511 -0.1591  0.2217 -0.5541
21383SOL    HW166081   0.355   3.145   0.581 -1.8964  0.9195  0.2199
21383SOL    HW266082   0.291   3.171   0.447 -2.7166  0.7213  0.5692
21384SOL     OW66083   2.450   0.599   0.060  0.5187  0.6028 -0.4337
21384SOL    HW166084   2.464   0.564   0.148  1.6465  0.5670 -0.6056
21384SOL    HW266085   2.526   0.567   0.010  0.0098  0.8133 -1.3583
21385SOL     OW66086   2.549   7.080   7.183 -0.0964 -0.5657 -0.7128
21385SOL    HW166087   2.622   7.092   7.123  1.3010 -0.6939  0.8672
21385SOL    HW266088   2.577   7.008   7.240 -1.0844 -0.0582  0.4628
21386SOL     OW66089   1.604   0.486   1.579 -0.4000  0.2168  0.0470
21386SOL    HW166090   1.680   0.467   1.634 -1.9734 -0.6897  2.0130
21386SOL    HW266091   1.642   0.524   1.499  2.1161 -0.4771  0.8109
21387SOL     OW66092   0.364   6.564   3.747  0.5363  0.3013  1.2674
21387SOL    HW166093   0.295   6.557   3.812 -1.6412  0.6019 -0.8587
21387SOL    HW266094   0.318   6.576   3.664  3.1837  1.7484 -0.1403
21388SOL     OW66095   5.825   8.843   5.616 -0.5582 -0.1691 -0.6598
21388SOL    HW166096   5.881   8.901   5.667 -0.8567  0.8125 -1.4089
21388SOL    HW266097   5.789   8.781   5.680  0.7826 -0.3527 -0.0531
21389SOL     OW66098   4.741   0.306   3.941  0.6194  0.1989 -0.2717
21389SOL    HW166099   4.716   0.263   3.859  1.1443 -0.6207 -0.0120
21389SOL    HW266100   4.660   0.346   3.972 -0.3862 -2.2691  0.4763
21390SOL     OW66101   0.636   5.250   2.709  0.4270 -0.1991  0.1913
21390SOL    HW166102   0.683   5.292   2.637 -0.1460  0.0158 -0.0667
21390SOL    HW266103   0.704   5.226   2.772  0.7888  0.9209  0.2490
21391SOL     OW66104   7.755   4.527   0.363 -0.0335  0.1152 -0.3032
21391SOL    HW166105   7.823   4.459   0.363 -0.6226 -0.4792  0.5139
21391SOL    HW266106   7.685   4.490   0.309 -0.9915 -0.5991  1.3588
21392SOL     OW66107   3.071   2.965   3.729 -0.3412 -0.1509  0.0365
21392SOL    HW166108   3.116   2.960   3.813  0.2303  0.2665 -0.2337
21392SOL    HW266109   3.141   2.986   3.666 -0.5103 -1.7905 -0.7614
21393SOL     OW66110   5.870   7.813   7.388  0.3200  0.0490 -0.1895
21393SOL    HW166111   5.905   7.790   7.474  0.4526 -0.0197 -0.2624
21393SOL    HW266112   5.776   7.825   7.403  0.2337 -0.6341 -0.1731
21394SOL     OW66113   4.011   8.552   5.052 -0.5704  1.0192 -0.2047
21394SOL    HW166114   4.054   8.517   4.974 -0.3419 -0.2657  0.4704
21394SOL    HW266115   3.925   8.510   5.053 -0.6004  1.0837  0.1861
21395SOL     OW66116   4.266   4.312   4.215  0.3536  0.3716 -0.2454
21395SOL    HW166117   4.296   4.336   4.302 -0.1649 -0.3986  0.1568
21395SOL    HW266118   4.257   4.395   4.168 -1.1192  0.9557  1.0024
21396SOL     OW66119   8.591   3.402   2.651 -0.1877 -0.0031  0.2820
21396SOL    HW166120   8.642   3.378   2.574 -1.9023 -0.5081 -0.7644
21396SOL    HW266121   8.656   3.427   2.717  1.3443  0.0070 -1.1712
21397SOL     OW66122   6.882   4.464   0.320  0.0259  0.3206  0.1171
21397SOL    HW166123   6.898   4.421   0.403 -1.9792 -2.0696 -0.6296
21397SOL    HW266124   6.969   4.480   0.284  0.8801  0.0526  1.9674
21398SOL     OW66125   5.728   1.421   5.254  0.4559 -0.0336  0.2963
21398SOL    HW166126   5.804   1.380   5.213  0.4054 -0.8333  0.9763
21398SOL    HW266127   5.739   1.405   5.347 -0.2970  0.2671  0.4426
21399SOL     OW66128   8.833   0.861   5.934 -0.0867  0.0609  0.4310
21399SOL    HW166129   8.761   0.802   5.953 -0.1472  0.2270  0.7306
21399SOL    HW266130   8.796   0.926   5.875 -0.2011  0.1826  0.6348
21400SOL     OW66131   5.893   5.902   7.605  0.0811  0.3790  0.0308
21400SOL    HW166132   5.873   5.809   7.611 -2.0483  0.7940  0.3617
21400SOL    HW266133   5.814   5.941   7.566  0.4501  2.1716  0.9463
21401SOL     OW66134   5.817   6.162   2.627 -0.2978  0.1585  0.1011
21401SOL    HW166135   5.738   6.215   2.618 -1.4272 -1.6633 -1.2470
21401SOL    HW266136   5.866   6.205   2.697 -3.2809  0.3801  2.2497
21402SOL     OW66137   2.814   3.390   3.565  0.3263 -0.2997 -0.1262
21402SOL    HW166138   2.803   3.353   3.652  0.6908  0.9375  0.4577
21402SOL    HW266139   2.728   3.425   3.542  0.9982  2.4630  1.2173
21403SOL     OW66140   2.182   8.349   4.541 -0.0503 -0.0133  0.9167
21403SOL    HW166141   2.174   8.335   4.635 -4.0576 -2.4219  0.4331
21403SOL    HW266142   2.119   8.419   4.522  0.1080 -0.1349 -0.1181
21404SOL     OW66143   0.508   3.460   4.404  0.5799  0.1653 -0.2984
21404SOL    HW166144   0.457   3.382   4.425  0.3587  0.3843 -0.0233
21404SOL    HW266145   0.450   3.515   4.352  1.1039 -0.3449 -1.4632
21405SOL     OW66146   1.948   5.532   1.974 -0.0843  0.5932  0.1936
21405SOL    HW166147   1.884   5.473   1.935  2.6471 -1.4843 -1.5305
21405SOL    HW266148   1.985   5.580   1.899  1.9237  0.0291  0.7569
21406SOL     OW66149   8.418   2.350   2.592  0.1570 -0.1879 -0.4094
21406SOL    HW166150   8.505   2.375   2.624  0.0228  0.1463 -0.3056
21406SOL    HW266151   8.364   2.427   2.607 -0.1339 -0.3590 -0.5739
21407SOL     OW66152   7.520   2.342   5.912  0.2383 -0.2244  0.5367
21407SOL    HW166153   7.480   2.425   5.888  2.8860  0.9117 -0.3726
21407SOL    HW266154   7.575   2.319   5.837  0.5002 -2.1962  1.2533
21408SOL     OW66155   0.176   5.064   7.640 -0.3397 -0.1869 -0.1933
21408SOL    HW166156   0.138   5.142   7.682 -1.4582  0.1370 -1.7200
21408SOL    HW266157   0.121   4.992   7.671 -1.5184  0.1263 -1.4842
21409SOL     OW66158   3.494   5.771   8.452  0.0884  0.3172  0.1246
21409SOL    HW166159   3.443   5.848   8.478  0.0990  0.8056 -1.2481
21409SOL    HW266160   3.585   5.798   8.464  0.1160  0.8292 -1.1579
21410SOL     OW66161   6.835   0.902   0.429 -0.5100  0.1834 -0.3942
21410SOL    HW166162   6.864   0.980   0.382  1.7157 -0.8223 -0.8248
21410SOL    HW266163   6.868   0.914   0.518 -1.0012  0.1665 -0.2088
21411SOL     OW66164   1.852   1.335   1.842 -0.4212  0.3925 -0.4746
21411SOL    HW166165   1.845   1.356   1.935  2.2548 -0.5826  0.0554
21411SOL    HW266166   1.777   1.278   1.825  0.1885 -1.2558  1.7305
21412SOL     OW66167   5.693   1.390   7.982 -0.8509 -0.1824  0.1828
21412SOL    HW166168   5.622   1.354   8.035 -0.7254 -1.9076 -0.7631
21412SOL    HW266169   5.764   1.405   8.045 -1.5822  0.3021  0.9189
21413SOL     OW66170   5.252   4.417   1.422 -0.2323 -0.1151  0.0411
21413SOL    HW166171   5.300   4.481   1.370 -1.3715  0.9006  0.1823
21413SOL    HW266172   5.306   4.403   1.500 -0.0787  0.8972  0.1323
21414SOL     OW66173   0.600   4.766   3.807  0.3620 -0.2391  0.0509
21414SOL    HW166174   0.689   4.789   3.781  0.1183  0.5116 -0.1444
21414SOL    HW266175   0.611   4.709   3.883  0.9968  0.4989  0.5297
21415SOL     OW66176   1.558   5.107   2.784  0.6735  0.2592  0.2476
21415SOL    HW166177   1.527   5.195   2.806  1.5520  1.0383 -1.4687
21415SOL    HW266178   1.529   5.093   2.694  0.6817 -1.1584  0.4427
21416SOL     OW66179   3.653   8.675   4.747  0.8584 -0.4248 -0.1827
21416SOL    HW166180   3.656   8.581   4.766 -1.1375 -0.3573  0.7363
21416SOL    HW266181   3.634   8.681   4.654 -2.2027 -1.0686  0.2953
21417SOL     OW66182   5.860   2.716   4.306 -0.1969 -0.5165 -0.3670
21417SOL    HW166183   5.919   2.643   4.290  0.8157  0.2756 -0.3476
21417SOL    HW266184   5.837   2.748   4.219  0.8716  0.3012 -0.3748
21418SOL     OW66185   2.581   2.546   3.726 -0.3523 -0.0906  0.5048
21418SOL    HW166186   2.653   2.585   3.776  1.1592 -2.5929  0.4773
21418SOL    HW266187   2.618   2.531   3.639 -0.5668 -2.1753  0.7258
21419SOL     OW66188   6.860   7.881   4.141  0.1355  0.1887  0.3507
21419SOL    HW166189   6.918   7.947   4.103  0.1790  0.6961  1.2647
21419SOL    HW266190   6.824   7.923   4.219  0.7164 -1.0941  1.3660
21420SOL     OW66191   8.779   0.138   1.525  0.9021  0.3827  0.3937
21420SOL    HW166192   8.761   0.105   1.613  1.0129  0.4639  0.4469
21420SOL    HW266193   8.874   0.137   1.518  0.9027  0.6093  0.3653
21421SOL     OW66194   3.295   4.685   2.594 -0.0823  0.3068  0.5515
21421SOL    HW166195   3.290   4.683   2.498  0.7253  0.7134  0.4950
21421SOL    HW266196   3.308   4.594   2.619  1.6082  0.4172  0.1509
21422SOL     OW66197   8.466   5.702   4.167  0.3301  0.2054 -0.3996
21422SOL    HW166198   8.478   5.703   4.072 -0.5833  0.3125 -0.5280
21422SOL    HW266199   8.547   5.664   4.202  1.0898  1.0993 -1.1465
21423SOL     OW66200   0.535   8.030   8.871  0.2427  0.7737  0.4136
21423SOL    HW166201   0.588   7.959   8.906 -0.0690  0.5924  0.5266
21423SOL    HW266202   0.512   8.083   8.947 -0.8516  0.1012  0.5783
21424SOL     OW66203   3.547   7.852   5.519 -0.2715 -0.1707  0.2040
21424SOL    HW166204   3.469   7.838   5.466  0.6075  0.0399 -1.2053
21424SOL    HW266205   3.585   7.932   5.483  1.6569 -1.3469 -0.4940
21425SOL     OW66206   4.509   2.316   1.267  0.1384 -0.3083  0.1771
21425SOL    HW166207   4.538   2.290   1.179 -1.0961 -0.8527 -0.0823
21425SOL    HW266208   4.564   2.391   1.289 -0.1738  0.4229 -1.4403
21426SOL     OW66209   1.395   3.370   4.121  0.1678  0.6003 -0.5654
21426SOL    HW166210   1.318   3.373   4.178  0.2888  0.2666 -0.3855
21426SOL    HW266211   1.391   3.284   4.080  1.0209  0.1693  0.2387
21427SOL     OW66212   3.638   4.157   7.376 -0.2561  0.0586 -0.1359
21427SOL    HW166213   3.582   4.094   7.421  2.8448 -1.4751  1.9436
21427SOL    HW266214   3.640   4.233   7.434 -0.7714  0.4437 -0.6118
21428SOL     OW66215   1.353   0.926   2.445 -0.2837 -0.2778  0.4271
21428SOL    HW166216   1.259   0.938   2.462 -0.7737 -2.1306 -0.6881
21428SOL    HW266217   1.363   0.946   2.352  0.3449 -0.4954  0.4441
21429SOL     OW66218   5.565   7.749   6.870  0.1256 -0.3235 -0.6269
21429SOL    HW166219   5.647   7.777   6.909  0.0984 -2.7052  1.3254
21429SOL    HW266220   5.506   7.825   6.880  1.0089  0.1491  1.2745
21430SOL     OW66221   2.429   0.226   8.146  0.3114 -0.1634  0.3561
21430SOL    HW166222   2.392   0.289   8.208  0.0225  0.3753 -0.3598
21430SOL    HW266223   2.513   0.264   8.121 -0.7193  0.9902 -1.6108
21431SOL     OW66224   3.683   7.826   7.742  0.1152  0.0975  0.3084
21431SOL    HW166225   3.760   7.882   7.742 -0.3512  0.7588  0.1809
21431SOL    HW266226   3.654   7.825   7.833 -0.5744  1.0799  0.1237
21432SOL     OW66227   7.366   1.631   2.439  0.0216 -0.3995  0.0840
21432SOL    HW166228   7.416   1.623   2.520 -1.0518  0.5338  0.8647
21432SOL    HW266229   7.289   1.575   2.452  0.5078 -1.3423 -0.8673
21433SOL     OW66230   6.221   7.315   0.266 -0.0322  0.7954 -0.0553
21433SOL    HW166231   6.190   7.400   0.297  0.9143  0.8467  0.8096
21433SOL    HW266232   6.311   7.309   0.298  0.0348 -0.3843 -0.4030
21434SOL     OW66233   7.111   4.434   5.532 -0.0261 -0.3483 -0.8984
21434SOL    HW166234   7.050   4.500   5.499  0.4725  1.1707  1.0290
21434SOL    HW266235   7.174   4.422   5.461 -1.0956 -0.0080 -1.9263
21435SOL     OW66236   5.784   0.411   6.622  0.0184 -0.3089 -0.3560
21435SOL    HW166237   5.729   0.393   6.545  0.6246 -0.2532 -0.8104
21435SOL    HW266238   5.854   0.467   6.589  0.2387 -0.2121  0.2606
21436SOL     OW66239   7.645   4.614   7.946  0.2203  0.0811  0.1380
21436SOL    HW166240   7.673   4.652   8.029  0.6986  0.6567 -0.2841
21436SOL    HW266241   7.557   4.649   7.932  0.1540  0.0138  0.3822
21437SOL     OW66242   7.777   8.411   4.938 -0.2186  0.4627  0.5469
21437SOL    HW166243   7.853   8.466   4.955 -0.3895  0.9275 -0.1522
21437SOL    HW266244   7.743   8.443   4.854 -0.4310 -0.5864  0.2242
21438SOL     OW66245   4.650   3.769   2.476 -0.1087  0.5482 -0.0055
21438SOL    HW166246   4.683   3.852   2.511  0.6628  0.3645 -0.2823
21438SOL    HW266247   4.596   3.734   2.547 -1.8024  2.0489 -0.4780
21439SOL     OW66248   2.503   2.816   5.942  0.0330 -0.2721 -0.0170
21439SOL    HW166249   2.462   2.731   5.951  1.1010 -0.8182 -0.1443
21439SOL    HW266250   2.571   2.817   6.009  1.2807 -0.2968 -1.2352
21440SOL     OW66251   8.020   5.447   1.003 -0.4762 -0.0472  0.5242
21440SOL    HW166252   8.097   5.392   1.020 -1.0646 -1.0273  0.0533
21440SOL    HW266253   8.040   5.491   0.920 -0.2635 -0.0226  0.5884
21441SOL     OW66254   7.904   6.996   8.670  0.0279 -0.3242  0.1641
21441SOL    HW166255   7.875   6.966   8.583 -1.2356  0.6801  0.2045
21441SOL    HW266256   7.835   7.056   8.699  0.5180 -0.5034  1.8020
21442SOL     OW66257   0.475   2.272   8.618  0.3304 -0.1474  0.1626
21442SOL    HW166258   0.423   2.196   8.594 -0.3055  0.5368 -0.6826
21442SOL    HW266259   0.446   2.295   8.706  0.9586 -1.2256  0.6760
21443SOL     OW66260   0.535   6.327   6.970 -0.2456  0.7867  0.2864
21443SOL    HW166261   0.571   6.403   7.016 -1.7470  0.9439  1.2843
21443SOL    HW266262   0.589   6.254   7.001  0.7733  1.3285 -0.1579
21444SOL     OW66263   7.409   5.654   4.935 -0.3399 -0.4295  0.1870
21444SOL    HW166264   7.442   5.723   4.993 -1.3597  0.6724 -0.4975
21444SOL    HW266265   7.314   5.653   4.951 -0.6604 -0.0276 -1.5041
21445SOL     OW66266   3.029   2.219   8.388 -0.2752 -0.2332 -0.4965
21445SOL    HW166267   3.078   2.170   8.454 -1.8979 -0.8936  0.2711
21445SOL    HW266268   3.068   2.306   8.389  0.7229 -0.6698  0.2481
21446SOL     OW66269   7.801   6.017   7.407 -0.2010 -0.7669  0.4170
21446SOL    HW166270   7.780   6.058   7.323  0.8663 -1.0577  0.0003
21446SOL    HW266271   7.783   6.086   7.472 -1.7380 -0.7790  0.0385
21447SOL     OW66272   7.740   0.180   4.706  0.6170  0.0790  0.2164
21447SOL    HW166273   7.761   0.116   4.775  0.3246  0.1202  0.3473
21447SOL    HW266274   7.729   0.128   4.627  1.0126  0.0371  0.1887
21448SOL     OW66275   6.976   2.223   8.294 -0.0120  0.0786  0.5979
21448SOL    HW166276   6.960   2.295   8.232  0.9157 -0.7794 -0.6741
21448SOL    HW266277   6.892   2.213   8.340 -0.3382  1.5765  0.3937
21449SOL     OW66278   3.142   5.864   4.112  0.3201  0.1002 -0.7078
21449SOL    HW166279   3.095   5.788   4.145  0.8723 -0.9659 -2.2767
21449SOL    HW266280   3.139   5.927   4.184 -0.7741 -1.1148  0.3620
21450SOL     OW66281   1.906   4.912   1.011 -0.1313 -0.0334  0.0990
21450SOL    HW166282   1.922   4.987   1.068  1.6737  0.6609 -1.2513
21450SOL    HW266283   1.985   4.859   1.018 -0.2924 -0.4513 -0.9999
21451SOL     OW66284   5.741   3.869   3.961  0.8866  0.3395  0.3713
21451SOL    HW166285   5.801   3.873   4.036  0.0680  0.7717  1.0065
21451SOL    HW266286   5.656   3.846   3.998  0.3490  1.0878 -0.3593
21452SOL     OW66287   4.479   3.165   5.113  0.3800  0.3110  0.7710
21452SOL    HW166288   4.509   3.233   5.172 -1.2051  1.0933  0.6983
21452SOL    HW266289   4.536   3.174   5.036  0.6645  1.0584  1.0603
21453SOL     OW66290   4.340   1.098   2.785 -0.2780  0.4546 -0.0802
21453SOL    HW166291   4.281   1.110   2.711  0.6561  0.9597 -0.7625
21453SOL    HW266292   4.378   1.185   2.799  0.9444 -0.0535 -0.2062
21454SOL     OW66293   2.892   6.944   0.646 -0.3448 -0.5310  0.2447
21454SOL    HW166294   2.856   6.909   0.565 -1.9173 -0.0372  0.6907
21454SOL    HW266295   2.917   6.867   0.697 -0.1982 -0.8659 -0.3253
21455SOL     OW66296   1.981   3.932   4.174  0.5046  0.2423 -0.1110
21455SOL    HW166297   1.991   4.027   4.166  0.8577  0.0867 -2.0175
21455SOL    HW266298   1.886   3.919   4.178  0.3575  0.6023 -1.7026
21456SOL     OW66299   3.278   1.195   2.904 -0.1751  0.0030 -0.0251
21456SOL    HW166300   3.271   1.283   2.867  0.1417  0.4148  0.8811
21456SOL    HW266301   3.306   1.209   2.994  0.4087 -1.0536 -0.0345
21457SOL     OW66302   7.110   1.014   2.578  0.8960  0.5556  0.1795
21457SOL    HW166303   7.051   1.047   2.646  1.9583  0.6434  1.1033
21457SOL    HW266304   7.059   0.948   2.532  0.0856  0.6080  0.9664
21458SOL     OW66305   3.066   5.475   1.268 -0.6795 -0.3982  0.4316
21458SOL    HW166306   3.138   5.510   1.321  0.4828 -1.6094 -0.2649
21458SOL    HW266307   3.047   5.390   1.308 -1.2361 -0.4022  0.1681
21459SOL     OW66308   8.050   6.347   0.062 -0.0175 -0.3182 -0.0538
21459SOL    HW166309   8.111   6.275   0.079 -0.3454 -0.4128  0.7637
21459SOL    HW266310   8.106   6.424   0.050  0.3051 -0.5856 -0.2924
21460SOL     OW66311   1.001   3.518   1.886 -0.3401  0.9873 -0.4589
21460SOL    HW166312   0.973   3.531   1.977  0.2566 -0.3943 -0.0429
21460SOL    HW266313   1.071   3.452   1.892 -0.9304  0.1741 -2.0073
21461SOL     OW66314   0.378   2.119   3.400  0.0456  0.4283 -0.0216
21461SOL    HW166315   0.379   2.054   3.331 -0.3183  0.4806 -0.0743
21461SOL    HW266316   0.293   2.109   3.443  1.8850 -2.8067  3.4930
21462SOL     OW66317   8.542   4.054   4.112 -0.1216 -0.0392 -0.8973
21462SOL    HW166318   8.557   3.963   4.086  0.0138 -0.3625  0.2872
21462SOL    HW266319   8.457   4.053   4.155 -0.7227  0.6487 -1.9996
21463SOL     OW66320   0.775   1.706   6.392 -0.4333  0.1358 -0.4244
21463SOL    HW166321   0.681   1.720   6.400 -0.8356 -1.6795 -1.4052
21463SOL    HW266322   0.808   1.713   6.481 -1.6946 -0.4088  0.1050
21464SOL     OW66323   2.522   0.169   0.994  0.5164  0.2697 -0.0972
21464SOL    HW166324   2.585   0.235   1.023  1.5625 -0.8108  0.1737
21464SOL    HW266325   2.468   0.153   1.071  0.1557  0.8969 -0.2082
21465SOL     OW66326   0.841   2.881   6.248  0.6273  0.3313 -0.0455
21465SOL    HW166327   0.773   2.814   6.256 -0.1707  0.9305 -1.3753
21465SOL    HW266328   0.923   2.834   6.260  0.0352 -0.6971  0.0586
21466SOL     OW66329   6.691   0.185   1.258 -0.4226 -0.8132  0.0316
21466SOL    HW166330   6.708   0.116   1.322  0.6203 -0.3485  0.2782
21466SOL    HW266331   6.602   0.168   1.228 -0.1164 -2.3758 -0.0654
21467SOL     OW66332   5.437   1.178   3.427 -0.3577  0.7061 -0.4405
21467SOL    HW166333   5.429   1.114   3.498  0.3211  0.4679 -0.5743
21467SOL    HW266334   5.365   1.239   3.442 -1.3995 -0.4274 -0.6699
21468SOL     OW66335   8.701   8.846   4.508  0.2270  0.1028  0.3591
21468SOL    HW166336   8.674   8.936   4.487  2.1402  1.0530  1.7190
21468SOL    HW266337   8.620   8.795   4.500 -1.3170  2.2433  1.2735
21469SOL     OW66338   3.714   8.578   2.010 -0.4487 -0.0399  0.0561
21469SOL    HW166339   3.679   8.491   2.029 -1.8374  0.3216 -0.7780
21469SOL    HW266340   3.786   8.561   1.949 -1.0602 -0.5782 -0.5398
21470SOL     OW66341   2.759   2.057   4.851  0.9682 -0.1395 -0.0928
21470SOL    HW166342   2.734   2.088   4.938  0.2829 -2.9887  0.8370
21470SOL    HW266343   2.774   1.963   4.863 -1.0583 -1.0409 -3.4155
21471SOL     OW66344   4.056   1.475   8.402 -0.7834  0.4492  0.4227
21471SOL    HW166345   4.080   1.463   8.310  0.0698 -0.8717  0.7893
21471SOL    HW266346   4.066   1.569   8.417 -0.6007  0.6341 -0.7340
21472SOL     OW66347   5.407   7.815   6.625 -0.6478  0.2714 -0.5175
21472SOL    HW166348   5.499   7.793   6.642 -0.7391  0.6664  0.6071
21472SOL    HW266349   5.363   7.731   6.615 -0.4738  0.0109  0.7850
21473SOL     OW66350   3.346   6.426   3.934  0.1366  0.4057  0.7087
21473SOL    HW166351   3.417   6.450   3.994  0.7854 -0.7255  0.4139
21473SOL    HW266352   3.285   6.499   3.940  0.4298  0.5567  2.3678
21474SOL     OW66353   4.980   5.402   2.317 -0.4317  0.5559 -0.3812
21474SOL    HW166354   5.057   5.359   2.355 -0.7835 -1.1028 -1.4628
21474SOL    HW266355   5.007   5.494   2.308  1.6422 -0.0795 -1.2537
21475SOL     OW66356   4.564   5.566   6.459 -0.1838 -0.0425  0.0454
21475SOL    HW166357   4.612   5.538   6.537 -1.3558 -1.8934  0.1693
21475SOL    HW266358   4.519   5.646   6.486 -0.2962 -0.4660  1.1830
21476SOL     OW66359   3.775   0.240   2.673 -0.0431  0.5462 -0.3201
21476SOL    HW166360   3.740   0.236   2.584 -0.4191  0.2056 -0.1584
21476SOL    HW266361   3.706   0.204   2.728 -0.1346  1.4711  0.2054
21477SOL     OW66362   2.696   5.566   8.441 -0.1008  0.0673 -0.2808
21477SOL    HW166363   2.753   5.542   8.368  0.6334  0.8165  0.0267
21477SOL    HW266364   2.687   5.486   8.492  0.7496 -0.0463 -0.2968
21478SOL     OW66365   0.426   0.613   8.600  0.5467  0.2022 -0.3835
21478SOL    HW166366   0.401   0.607   8.692 -0.2049 -0.2158 -0.6004
21478SOL    HW266367   0.396   0.530   8.562  0.5105  0.5266 -1.0739
21479SOL     OW66368   8.818   6.071   3.938  0.3637 -1.2398 -0.0995
21479SOL    HW166369   8.849   6.040   3.852  1.0596 -0.7602 -0.0256
21479SOL    HW266370   8.858   6.011   4.001  2.7743  0.4929  0.1474
21480SOL     OW66371   5.225   1.012   6.993  0.5863 -0.0357 -0.4049
21480SOL    HW166372   5.308   1.060   6.994  1.0393 -0.7433  2.0090
21480SOL    HW266373   5.230   0.955   7.070 -2.2290  0.0248 -0.1024
21481SOL     OW66374   2.154   0.442   0.458  0.4259 -0.7410  0.1333
21481SOL    HW166375   2.081   0.487   0.499  0.8866  2.2343 -2.0349
21481SOL    HW266376   2.212   0.420   0.531 -0.1272  1.7271  1.4284
21482SOL     OW66377   1.389   4.958   1.080  0.1632  0.1706  0.2803
21482SOL    HW166378   1.476   4.919   1.068  0.8743  1.7822 -0.1241
21482SOL    HW266379   1.350   4.957   0.993  0.3865  0.7699  0.1654
21483SOL     OW66380   1.866   7.835   1.606 -0.2042  0.2828 -0.4490
21483SOL    HW166381   1.902   7.833   1.694 -0.6771 -2.6011 -0.2019
21483SOL    HW266382   1.774   7.813   1.617 -0.5924  1.2698 -1.5635
21484SOL     OW66383   1.067   8.713   8.169  0.2488 -0.0739  0.1891
21484SOL    HW166384   0.998   8.745   8.112  0.4651 -0.6508 -0.4082
21484SOL    HW266385   1.148   8.727   8.120  0.3668 -1.2995  0.0050
21485SOL     OW66386   6.950   2.019   2.618  0.0985  0.8252  0.6018
21485SOL    HW166387   6.889   1.970   2.562  1.5858 -0.4304  0.0083
21485SOL    HW266388   6.913   2.010   2.706 -0.0144 -0.9021  0.4283
21486SOL     OW66389   1.880   6.938   5.142  0.1467 -0.3804 -0.7480
21486SOL    HW166390   1.884   7.005   5.074  2.6489  2.1140  1.5926
21486SOL    HW266391   1.968   6.901   5.145  0.3315  0.0902  1.4898
21487SOL     OW66392   6.896   6.477   1.269  0.9273 -0.3611  0.1245
21487SOL    HW166393   6.961   6.407   1.260 -0.2827 -1.4252 -0.6774
21487SOL    HW266394   6.865   6.468   1.359  0.2397 -1.3768 -0.1937
21488SOL     OW66395   1.888   0.656   2.807  0.3794 -0.1208  0.0669
21488SOL    HW166396   1.897   0.737   2.757 -0.4849  0.4008  0.7308
21488SOL    HW266397   1.795   0.652   2.831  0.7715 -0.2742  1.7322
21489SOL     OW66398   6.024   3.753   0.301  0.0321 -0.0703 -0.2222
21489SOL    HW166399   5.973   3.700   0.239  1.3549 -1.0350 -0.5372
21489SOL    HW266400   6.104   3.776   0.253 -0.1246  1.4905  0.2227
21490SOL     OW66401   8.595   5.125   2.324 -0.0517  0.4176  0.1761
21490SOL    HW166402   8.581   5.043   2.371 -1.1364  0.2684 -0.3898
21490SOL    HW266403   8.534   5.187   2.365 -2.3341 -0.1502 -2.0822
21491SOL     OW66404   6.806   1.972   2.856 -0.1707  0.0839 -0.1244
21491SOL    HW166405   6.771   1.887   2.880 -0.7877  0.1244 -0.8429
21491SOL    HW266406   6.751   2.035   2.902  0.4446  0.1031  0.6114
21492SOL     OW66407   5.857   2.439   0.659  0.1924 -0.1578  0.3503
21492SOL    HW166408   5.875   2.434   0.565  2.1554 -2.5956  0.7486
21492SOL    HW266409   5.935   2.478   0.697 -0.5961  0.8346  1.0105
21493SOL     OW66410   3.208   3.513   2.240  0.2381 -0.0698 -0.1930
21493SOL    HW166411   3.153   3.591   2.226  0.0582  0.0175  0.9211
21493SOL    HW266412   3.286   3.546   2.285 -0.1790 -0.6132  0.9885
21494SOL     OW66413   8.112   1.273   0.982  0.2543 -0.0702 -0.4371
21494SOL    HW166414   8.117   1.317   0.897  1.4592  0.7483  0.0332
21494SOL    HW266415   8.065   1.191   0.964 -0.6581  0.6871 -1.6243
21495SOL     OW66416   6.214   5.610   3.789  0.0473 -0.0336  0.2357
21495SOL    HW166417   6.253   5.670   3.853  2.2327 -0.6524 -0.4130
21495SOL    HW266418   6.194   5.666   3.714 -1.5426  0.5036  0.9983
21496SOL     OW66419   0.752   5.152   0.108  0.2829 -0.2773 -0.1320
21496SOL    HW166420   0.802   5.234   0.104  2.7622 -1.6314  0.7926
21496SOL    HW266421   0.661   5.179   0.102  0.9689  2.6485  1.0572
21497SOL     OW66422   6.007   8.651   2.926 -0.1420  0.6813  0.3800
21497SOL    HW166423   5.976   8.565   2.898  1.0733  0.0028  1.0191
21497SOL    HW266424   6.050   8.688   2.849 -0.1027  0.4412  0.2876
21498SOL     OW66425   6.754   5.515   6.525  0.1985 -0.3047  0.1091
21498SOL    HW166426   6.821   5.477   6.469 -0.0641 -1.4257  0.5155
21498SOL    HW266427   6.715   5.585   6.473  1.2945 -0.0140 -0.3403
21499SOL     OW66428   3.969   8.725   1.530  0.2024  0.1165  0.7899
21499SOL    HW166429   3.920   8.649   1.563 -1.6147  0.7662 -0.2713
21499SOL    HW266430   4.008   8.695   1.449 -1.9374  0.7000 -0.5484
21500SOL     OW66431   4.584   5.915   1.659 -0.5532 -0.1149  0.1604
21500SOL    HW166432   4.598   5.972   1.583  0.9849 -1.5074 -0.6488
21500SOL    HW266433   4.514   5.856   1.633 -1.4687  0.7176  0.6407
21501SOL     OW66434   0.688   2.087   7.387 -0.4142  0.1867  0.5239
21501SOL    HW166435   0.782   2.104   7.379 -0.4694 -0.3831 -2.0754
21501SOL    HW266436   0.649   2.129   7.311 -1.9664 -1.5459  0.2990
21502SOL     OW66437   5.702   1.210   8.529  0.1931 -0.0196  0.0088
21502SOL    HW166438   5.737   1.121   8.521  2.0947  0.2387  3.3097
21502SOL    HW266439   5.746   1.260   8.461 -0.0633 -1.3521 -1.1725
21503SOL     OW66440   4.545   5.201   4.061  0.3433 -0.2120 -0.6454
21503SOL    HW166441   4.557   5.266   3.992  2.6160  2.2303  1.7773
21503SOL    HW266442   4.632   5.164   4.076 -0.0901 -0.7214  0.8320
21504SOL     OW66443   0.086   1.603   2.289  0.7941  0.3164 -0.5157
21504SOL    HW166444   0.022   1.590   2.219  0.3083 -0.8754  0.1220
21504SOL    HW266445   0.139   1.677   2.259  0.9130 -0.4565 -2.3888
21505SOL     OW66446   2.728   0.463   0.309  0.4832 -0.0457  0.0837
21505SOL    HW166447   2.640   0.492   0.331  0.3105 -0.8620  0.5205
21505SOL    HW266448   2.768   0.538   0.265 -0.8691 -0.1168 -1.3402
21506SOL     OW66449   0.744   6.020   3.248  0.1863 -0.6700 -0.4351
21506SOL    HW166450   0.702   6.106   3.247  0.7668 -0.3961 -1.0420
21506SOL    HW266451   0.787   6.016   3.333 -2.1958 -1.5194  0.8418
21507SOL     OW66452   0.575   0.181   4.998  0.6277 -0.6752  0.4303
21507SOL    HW166453   0.575   0.102   5.051 -0.2579  0.3446  2.0201
21507SOL    HW266454   0.485   0.215   5.004  1.5563  1.8012  1.9570
21508SOL     OW66455   1.360   0.852   4.553 -0.7032 -0.3540  0.5928
21508SOL    HW166456   1.341   0.918   4.486  0.9074  0.1443  0.5893
21508SOL    HW266457   1.331   0.769   4.513  1.2929 -0.2510 -1.2558
21509SOL     OW66458   2.512   2.084   2.454 -0.1371 -0.0520  0.1571
21509SOL    HW166459   2.574   2.104   2.524  0.0683  0.2774 -0.1193
21509SOL    HW266460   2.435   2.051   2.499  0.7960 -2.0019  0.4551
21510SOL     OW66461   1.844   5.697   6.981 -0.5670  0.1555  0.2243
21510SOL    HW166462   1.782   5.725   6.914  0.2092  2.4161  0.3506
21510SOL    HW266463   1.806   5.728   7.064 -0.4189 -0.6034  0.5919
21511SOL     OW66464   0.482   3.044   6.400  0.0268 -0.5483  0.2876
21511SOL    HW166465   0.451   3.125   6.361 -2.0120 -0.3616  2.1144
21511SOL    HW266466   0.456   2.976   6.338  0.4144  0.0420 -0.5420
21512SOL     OW66467   1.852   2.907   3.151 -0.0767  0.3898 -0.4098
21512SOL    HW166468   1.827   2.816   3.133 -0.1168 -0.2040  2.2464
21512SOL    HW266469   1.822   2.956   3.074 -1.2307 -1.6394 -1.3307
21513SOL     OW66470   3.381   2.645   1.368  0.5955 -0.1892 -0.2283
21513SOL    HW166471   3.347   2.694   1.443  0.7420 -1.0984  0.4541
21513SOL    HW266472   3.476   2.652   1.376  0.6214  1.0700 -1.2734
21514SOL     OW66473   6.859   5.004   7.879 -0.1710 -0.0733  0.4613
21514SOL    HW166474   6.887   5.095   7.867  0.3904 -0.4074 -0.9581
21514SOL    HW266475   6.763   5.009   7.881 -0.2332  0.3731 -1.6116
21515SOL     OW66476   3.783   8.636   3.153 -0.4981  0.0319 -0.1042
21515SOL    HW166477   3.746   8.563   3.102 -1.3374  0.1437  0.3278
21515SOL    HW266478   3.852   8.671   3.097 -0.8698 -0.3515 -0.8241
21516SOL     OW66479   6.142   3.428   3.737  0.6859  0.4078  0.0524
21516SOL    HW166480   6.149   3.507   3.791 -0.8869  1.1438 -0.7567
21516SOL    HW266481   6.160   3.458   3.648 -2.3174  0.4320 -0.6321
21517SOL     OW66482   3.971   5.305   2.214 -0.5237 -0.0361 -0.2570
21517SOL    HW166483   3.921   5.376   2.254 -0.0862  0.4117 -0.4994
21517SOL    HW266484   4.057   5.342   2.198  0.3771 -1.2459  1.5170
21518SOL     OW66485   3.001   6.461   0.502 -0.2612 -0.3623  0.0791
21518SOL    HW166486   2.920   6.449   0.452 -0.9834  0.0959  1.1006
21518SOL    HW266487   2.987   6.544   0.549  0.9787 -0.0584 -0.0599
21519SOL     OW66488   7.338   1.251   4.881 -0.6722  0.9673 -0.2982
21519SOL    HW166489   7.427   1.283   4.895 -0.3997  1.0542 -2.0612
21519SOL    HW266490   7.315   1.282   4.794 -1.1531 -1.9381 -1.2930
21520SOL     OW66491   6.177   7.191   5.164 -0.3451 -0.3705 -0.6741
21520SOL    HW166492   6.248   7.153   5.113  0.1010 -0.9278  0.3384
21520SOL    HW266493   6.221   7.245   5.229 -0.9365  1.1027 -1.4384
21521SOL     OW66494   8.105   2.952   0.636  0.3574  0.3945 -0.5877
21521SOL    HW166495   8.165   2.940   0.710 -0.3513  0.1410 -0.0424
21521SOL    HW266496   8.109   2.870   0.588  0.0700  0.1897 -0.2654
21522SOL     OW66497   1.085   5.821   1.117  0.1607  0.2673  0.0791
21522SOL    HW166498   1.011   5.804   1.177 -0.3004  2.1144  0.1024
21522SOL    HW266499   1.058   5.900   1.069  1.5960  0.2379 -0.8017
21523SOL     OW66500   7.268   1.517   6.645  0.4891 -0.5079  0.5388
21523SOL    HW166501   7.230   1.586   6.700  1.9328  0.5826  0.2236
21523SOL    HW266502   7.201   1.500   6.578  0.7205  1.7923 -0.3763
21524SOL     OW66503   3.013   0.153   2.456  0.3718  0.0878  0.3575
21524SOL    HW166504   3.007   0.078   2.515  0.3449 -0.0342  0.1999
21524SOL    HW266505   2.924   0.164   2.423  0.5245 -0.2604 -0.1741
21525SOL     OW66506   8.243   7.062   1.607  0.2427 -0.0814  0.7011
21525SOL    HW166507   8.239   7.066   1.512 -0.0974  1.4922  0.7447
21525SOL    HW266508   8.155   7.037   1.634 -0.5405  2.3646  0.6494
21526SOL     OW66509   8.231   4.072   7.729  0.1725  0.3285 -0.3772
21526SOL    HW166510   8.169   4.079   7.657 -2.2789  0.9237  1.6443
21526SOL    HW266511   8.316   4.092   7.690 -0.8462 -0.5197 -3.2886
21527SOL     OW66512   0.513   3.415   6.397 -0.3380  0.3203 -0.5956
21527SOL    HW166513   0.565   3.426   6.477  0.1402 -1.6308 -0.5833
21527SOL    HW266514   0.422   3.415   6.427 -0.2064  0.5970 -0.1873
21528SOL     OW66515   6.651   0.411   8.383  0.5333 -0.1394 -0.2578
21528SOL    HW166516   6.673   0.499   8.355 -0.4520  0.7273  1.4831
21528SOL    HW266517   6.564   0.395   8.348 -0.7399  0.9817  2.1234
21529SOL     OW66518   7.973   7.896   5.048 -0.0931  0.3441 -0.1864
21529SOL    HW166519   8.038   7.956   5.012  0.7039  0.1903  0.9528
21529SOL    HW266520   7.997   7.811   5.011 -0.3433  0.4726 -0.6553
21530SOL     OW66521   7.108   5.147   4.797  0.5172 -0.3278  0.1443
21530SOL    HW166522   7.113   5.232   4.753  0.8167 -1.4666 -2.1639
21530SOL    HW266523   7.199   5.122   4.811  0.5048 -1.3115 -1.3859
21531SOL     OW66524   1.097   1.074   4.614 -0.5783  0.2921 -0.3943
21531SOL    HW166525   1.152   1.149   4.596  0.3305 -0.1166  0.5531
21531SOL    HW266526   1.081   1.034   4.529  0.0013  0.8253 -0.7568
21532SOL     OW66527   2.895   2.081   3.546  0.3585 -0.3602 -0.0625
21532SOL    HW166528   2.804   2.087   3.576 -0.1018  1.6782 -1.6294
21532SOL    HW266529   2.890   2.041   3.460  0.7004  1.4002 -0.9422
21533SOL     OW66530   2.182   3.174   6.452 -0.0188 -0.3046  0.5090
21533SOL    HW166531   2.223   3.194   6.368  1.2550 -0.5702  1.0383
21533SOL    HW266532   2.136   3.091   6.437 -0.7379  0.2129 -0.2109
21534SOL     OW66533   5.312   8.114   1.443 -0.6109 -0.1358 -0.5509
21534SOL    HW166534   5.401   8.139   1.467 -1.5518  2.2148  0.8789
21534SOL    HW266535   5.321   8.027   1.403  2.1163 -0.6204  0.8754
21535SOL     OW66536   7.989   8.728   2.604 -0.0834  0.3432 -0.1605
21535SOL    HW166537   7.990   8.656   2.668  1.4512  1.1111  0.7377
21535SOL    HW266538   8.005   8.806   2.656  2.0505  0.9090 -1.5392
21536SOL     OW66539   0.970   1.566   1.112 -0.6866  0.2779 -0.1801
21536SOL    HW166540   0.991   1.516   1.191 -1.3556 -3.0595 -1.9417
21536SOL    HW266541   1.050   1.615   1.092  0.4579 -1.0589  0.9711
21537SOL     OW66542   1.650   7.942   3.523 -0.1005 -0.2168  0.0847
21537SOL    HW166543   1.581   7.923   3.459  1.4594  3.0008 -2.8860
21537SOL    HW266544   1.631   8.030   3.554  2.1050  0.3988 -0.1293
21538SOL     OW66545   5.103   5.386   4.013 -0.0023 -0.1263  0.1771
21538SOL    HW166546   5.139   5.382   4.101  0.8645 -2.4624 -0.2277
21538SOL    HW266547   5.172   5.427   3.960  0.2681 -0.4966  0.2391
21539SOL     OW66548   5.336   8.626   8.486 -0.2718 -0.1614  0.2644
21539SOL    HW166549   5.377   8.700   8.531 -0.4019 -1.1269  2.0503
21539SOL    HW266550   5.407   8.584   8.438  0.1775  0.0302  0.7571
21540SOL     OW66551   6.500   6.327   8.734 -0.8758 -0.2787  0.0030
21540SOL    HW166552   6.480   6.359   8.646 -0.9918 -0.0754  0.1041
21540SOL    HW266553   6.479   6.400   8.792 -0.8706 -0.4379  0.2081
21541SOL     OW66554   2.830   6.660   7.747 -0.0734 -0.1525  0.1928
21541SOL    HW166555   2.824   6.663   7.842 -1.4486  2.1723  0.1067
21541SOL    HW266556   2.914   6.701   7.727 -0.3403  0.5060  0.3905
21542SOL     OW66557   7.507   0.852   2.702 -0.3074 -0.0959  0.5663
21542SOL    HW166558   7.449   0.800   2.646 -0.9273 -0.4601  1.5314
21542SOL    HW266559   7.595   0.824   2.678 -0.6362 -1.9608  1.4140
21543SOL     OW66560   8.324   6.438   3.964 -0.0063 -0.7545  0.1388
21543SOL    HW166561   8.250   6.396   3.921 -0.6480 -0.7230  1.1918
21543SOL    HW266562   8.401   6.396   3.925 -0.4680  0.5795 -2.4088
21544SOL     OW66563   8.673   1.454   8.805 -0.1365  0.2035  0.0453
21544SOL    HW166564   8.606   1.443   8.738 -0.2326  0.6491  0.0660
21544SOL    HW266565   8.653   1.538   8.846 -0.8230 -0.6259  1.4887
21545SOL     OW66566   3.771   2.196   2.264  0.1848 -0.2340 -0.0057
21545SOL    HW166567   3.715   2.148   2.203 -0.0538  0.1471 -0.0877
21545SOL    HW266568   3.835   2.131   2.293  0.6071 -0.2954 -1.0309
21546SOL     OW66569   5.325   6.624   5.385  0.4695  0.2183  0.9020
21546SOL    HW166570   5.310   6.561   5.315  1.8974 -0.3085  1.0176
21546SOL    HW266571   5.340   6.569   5.463 -1.3105  0.7933  1.7041
21547SOL     OW66572   5.517   4.330   7.795 -0.0867  0.0342  0.2175
21547SOL    HW166573   5.597   4.375   7.823 -0.5828  1.2451 -0.2508
21547SOL    HW266574   5.477   4.300   7.877 -0.7250  2.1767  0.7429
21548SOL     OW66575   4.127   7.043   7.710  0.2694 -0.4671  0.0195
21548SOL    HW166576   4.202   7.014   7.762 -0.2909 -0.5234  0.8046
21548SOL    HW266577   4.059   7.062   7.774 -0.1572  0.2875 -0.6399
21549SOL     OW66578   5.542   4.588   8.172  0.0383 -0.2531  1.0167
21549SOL    HW166579   5.606   4.517   8.178  0.9879  0.5768  1.1309
21549SOL    HW266580   5.511   4.600   8.261 -1.8525 -2.0103  0.6552
21550SOL     OW66581   4.578   8.258   3.098 -0.3001  0.0650 -0.0453
21550SOL    HW166582   4.624   8.174   3.089  1.1885  0.8668 -0.1742
21550SOL    HW266583   4.598   8.288   3.186 -0.7238  0.3540 -0.0428
21551SOL     OW66584   5.027   5.678   2.271  0.4380 -0.1978 -0.2392
21551SOL    HW166585   5.060   5.724   2.194  0.3517 -0.5768 -0.5052
21551SOL    HW266586   5.096   5.690   2.337 -0.2177  1.5645  0.2018
21552SOL     OW66587   1.347   1.111   6.169 -0.0329  0.1107 -0.9255
21552SOL    HW166588   1.420   1.153   6.123  0.2879  0.6393  0.0214
21552SOL    HW266589   1.368   1.018   6.166  0.7736  0.2615 -0.5664
21553SOL     OW66590   2.447   8.419   4.486 -0.2212 -0.6858 -0.1157
21553SOL    HW166591   2.477   8.394   4.399 -0.5841  1.4156 -0.9066
21553SOL    HW266592   2.354   8.397   4.487 -0.4792  0.3056 -0.7097
21554SOL     OW66593   2.936   0.224   2.098  0.2556 -0.2188  0.0116
21554SOL    HW166594   2.928   0.132   2.121  1.0192 -0.3108 -0.0499
21554SOL    HW266595   2.847   0.253   2.081  0.0382 -1.0350 -0.2865
21555SOL     OW66596   6.302   0.745   7.496  0.5783 -0.1206 -0.2432
21555SOL    HW166597   6.331   0.827   7.535  0.0583 -0.3567  0.6898
21555SOL    HW266598   6.329   0.678   7.559  2.6242 -0.8957 -1.8356
21556SOL     OW66599   5.517   4.317   3.691 -0.3192 -0.4403 -0.1607
21556SOL    HW166600   5.441   4.318   3.633 -0.7533 -0.6653  0.3974
21556SOL    HW266601   5.560   4.401   3.676 -2.4245  1.1303  1.8185
21557SOL     OW66602   1.227   8.060   8.342  0.0840 -0.1560  0.3565
21557SOL    HW166603   1.252   8.094   8.428 -1.5153  1.4310  0.2347
21557SOL    HW266604   1.204   7.968   8.359 -0.3543  0.1641  1.6548
21558SOL     OW66605   0.631   2.388   2.126 -0.3051  0.8388  0.6993
21558SOL    HW166606   0.554   2.411   2.179  0.5776  0.2688  2.3191
21558SOL    HW266607   0.648   2.296   2.149 -0.7058  0.0889 -1.6862
21559SOL     OW66608   6.107   5.588   5.073  0.1095 -0.6332  0.3604
21559SOL    HW166609   6.114   5.525   5.001  2.0106  0.2516 -0.2790
21559SOL    HW266610   6.169   5.657   5.051 -1.6935  1.3665  1.1832
21560SOL     OW66611   2.997   3.404   7.553  0.3393 -0.0957 -0.5392
21560SOL    HW166612   3.024   3.490   7.519 -0.5305 -0.2897 -1.8099
21560SOL    HW266613   2.936   3.425   7.624  2.9443  0.3295  1.7584
21561SOL     OW66614   2.567   6.854   3.552  0.0639 -0.2359 -0.1200
21561SOL    HW166615   2.647   6.801   3.553 -1.0334 -1.9651  0.2692
21561SOL    HW266616   2.585   6.923   3.489  2.0494 -0.2646  0.3377
21562SOL     OW66617   6.407   5.123   8.508  0.2703  0.3002 -0.2586
21562SOL    HW166618   6.493   5.140   8.546  2.1166 -1.3851 -3.3190
21562SOL    HW266619   6.377   5.209   8.478  1.9102  0.6244 -1.0632
21563SOL     OW66620   7.366   5.054   5.263  0.1608  0.6279  0.1347
21563SOL    HW166621   7.407   5.103   5.335 -0.9518  0.2785  1.0459
21563SOL    HW266622   7.272   5.057   5.283 -0.1096 -0.0010 -0.9822
21564SOL     OW66623   8.635   5.260   0.969 -0.1646 -0.0576  0.5921
21564SOL    HW166624   8.697   5.235   0.901 -0.5330  4.6447 -1.8842
21564SOL    HW266625   8.549   5.250   0.928 -0.5126  0.9472  1.0363
21565SOL     OW66626   8.812   3.515   8.082  0.6068  0.0513  0.8442
21565SOL    HW166627   8.777   3.532   7.995 -1.2459 -0.6321  1.4054
21565SOL    HW266628   8.884   3.453   8.068 -1.3698 -2.2095 -0.0450
21566SOL     OW66629   1.598   2.783   7.334  0.2360  0.3518  0.3905
21566SOL    HW166630   1.562   2.872   7.335  1.6362  0.9553  0.3977
21566SOL    HW266631   1.651   2.778   7.413 -1.6675 -1.3468  1.6470
21567SOL     OW66632   0.752   2.476   4.318  0.0865  0.5490 -0.3680
21567SOL    HW166633   0.661   2.479   4.349  0.3373 -0.1553  0.4758
21567SOL    HW266634   0.767   2.562   4.280 -0.4605  1.2151  0.8568
21568SOL     OW66635   5.943   4.508   4.121 -0.3452  0.1650  0.2180
21568SOL    HW166636   5.994   4.463   4.188 -0.4794 -1.1729 -0.5524
21568SOL    HW266637   5.876   4.445   4.095 -1.2412  1.2168 -0.1129
21569SOL     OW66638   5.008   3.519   2.003 -0.2696  0.3134 -0.8265
21569SOL    HW166639   4.922   3.538   2.042 -0.3409  0.1689 -0.9129
21569SOL    HW266640   4.996   3.538   1.910 -0.4995 -0.6822 -1.0071
21570SOL     OW66641   1.354   6.359   8.165  0.5964  0.2164 -0.0152
21570SOL    HW166642   1.314   6.405   8.239 -1.5335 -0.6898 -0.5364
21570SOL    HW266643   1.311   6.395   8.088  2.2764  0.6251 -0.8137
21571SOL     OW66644   1.264   1.530   3.905 -0.1957 -0.2348 -0.4337
21571SOL    HW166645   1.321   1.607   3.898 -1.8750  0.9463 -2.1824
21571SOL    HW266646   1.188   1.561   3.953 -0.4141 -1.1214 -0.1984
21572SOL     OW66647   6.777   5.407   0.032  0.0691 -0.0309  0.3901
21572SOL    HW166648   6.812   5.493   0.055  2.1261 -0.7809  0.2491
21572SOL    HW266649   6.837   5.374  -0.034 -1.2846 -1.1683 -0.3200
21573SOL     OW66650   4.452   0.163   2.770  0.1037  0.3098 -0.2506
21573SOL    HW166651   4.531   0.108   2.761 -1.1945 -1.6309 -0.4375
21573SOL    HW266652   4.439   0.199   2.682  0.1135 -0.3458 -0.5278
21574SOL     OW66653   5.497   7.304   3.648 -0.2454 -0.0086  0.3780
21574SOL    HW166654   5.410   7.266   3.638  0.4952 -1.9496  0.7790
21574SOL    HW266655   5.490   7.362   3.723 -0.8993 -1.1424  1.2207
21575SOL     OW66656   0.529   4.999   1.107 -0.1392 -0.1183  0.8968
21575SOL    HW166657   0.602   4.946   1.138 -0.6874 -0.3206  1.9045
21575SOL    HW266658   0.494   4.952   1.032  0.8673  0.0781  0.2849
21576SOL     OW66659   4.359   7.519   2.564  0.4139 -0.3287  0.6338
21576SOL    HW166660   4.305   7.452   2.607 -1.4199  0.9106  0.3685
21576SOL    HW266661   4.336   7.601   2.607  2.0488  0.2840  0.4257
21577SOL     OW66662   1.431   8.778   1.429 -0.3324 -0.5470  0.6163
21577SOL    HW166663   1.448   8.719   1.356 -0.6061  0.8058 -0.5889
21577SOL    HW266664   1.378   8.726   1.490 -1.3991 -1.2719 -0.8562
21578SOL     OW66665   3.993   6.821   5.041 -0.1512  0.3031  0.0639
21578SOL    HW166666   3.986   6.890   5.106  0.2947  0.4395 -0.0306
21578SOL    HW266667   3.998   6.740   5.092  0.9179  0.4583  0.2378
21579SOL     OW66668   7.118   5.040   3.436 -0.2502  0.3831  0.2507
21579SOL    HW166669   7.088   4.955   3.468 -1.2959  0.6882  0.1339
21579SOL    HW266670   7.145   5.023   3.345 -0.3545  0.1543  0.2621
21580SOL     OW66671   4.802   7.379   0.818  0.0942 -0.1327 -0.1055
21580SOL    HW166672   4.853   7.443   0.769 -0.0302 -0.1947 -0.3189
21580SOL    HW266673   4.761   7.429   0.888 -1.9358  0.5130 -1.6571
21581SOL     OW66674   5.617   1.651   5.191 -0.1376 -0.0189  0.1145
21581SOL    HW166675   5.680   1.584   5.218  0.8247  0.3256 -1.1561
21581SOL    HW266676   5.649   1.732   5.231 -0.0638  0.0666 -0.1175
21582SOL     OW66677   5.298   1.827   4.980  0.0037 -0.3874  0.0023
21582SOL    HW166678   5.238   1.756   5.001 -0.6832  0.5396  1.3149
21582SOL    HW266679   5.241   1.905   4.974  1.0404  0.5126  1.2567
21583SOL     OW66680   5.639   2.290   8.290  0.1394  0.3288 -0.0993
21583SOL    HW166681   5.714   2.280   8.231  0.8663 -1.0548  0.9695
21583SOL    HW266682   5.647   2.379   8.324 -0.7330  1.4369 -2.5738
21584SOL     OW66683   3.361   5.198   4.690 -0.4746  0.1794 -0.3000
21584SOL    HW166684   3.386   5.115   4.648  1.3678  0.0005  1.0135
21584SOL    HW266685   3.331   5.253   4.619 -3.2924 -2.0860 -1.0558
21585SOL     OW66686   0.872   0.674   5.411  0.5985  0.3425  0.3482
21585SOL    HW166687   0.826   0.601   5.455 -4.3420  1.4565 -2.2312
21585SOL    HW266688   0.857   0.659   5.318  3.7581  2.2375 -0.6135
21586SOL     OW66689   8.365   8.463   7.426  0.1986  0.0504  0.4023
21586SOL    HW166690   8.292   8.401   7.432  1.5179 -1.8219 -1.6392
21586SOL    HW266691   8.428   8.432   7.492  0.5279 -0.3193 -0.0833
21587SOL     OW66692   8.055   1.572   5.725 -0.3479 -0.4482  0.5156
21587SOL    HW166693   7.985   1.627   5.691 -0.3523 -0.9718 -0.3391
21587SOL    HW266694   8.037   1.566   5.819  0.0332  1.5515  0.7674
21588SOL     OW66695   0.900   5.910   1.331 -0.3853 -0.1287  0.7254
21588SOL    HW166696   0.848   5.990   1.330  0.1378  0.2116  0.1249
21588SOL    HW266697   0.983   5.935   1.371 -0.5281 -0.5747  1.3128
21589SOL     OW66698   1.234   8.227   1.043  0.0836 -0.0203  0.4340
21589SOL    HW166699   1.214   8.243   1.135  1.6664 -0.1612  0.8393
21589SOL    HW266700   1.292   8.151   1.044 -1.2130 -1.0870 -0.8390
21590SOL     OW66701   3.575   7.067   6.468 -0.1533 -0.2569 -0.3651
21590SOL    HW166702   3.493   7.101   6.505 -0.3147  0.5091 -1.3598
21590SOL    HW266703   3.570   7.091   6.375  1.5886  0.5423 -0.2725
21591SOL     OW66704   8.140   3.333   0.008  0.6389  0.1041  0.2468
21591SOL    HW166705   8.066   3.290  -0.036 -0.1036  0.6391  0.9294
21591SOL    HW266706   8.128   3.312   0.101 -0.1750  2.3311  0.7098
21592SOL     OW66707   5.708   7.385   6.429  0.3897  0.1921 -0.1517
21592SOL    HW166708   5.728   7.436   6.507  1.1995  2.1983 -1.5946
21592SOL    HW266709   5.619   7.354   6.443  0.5148  0.5144  1.5464
21593SOL     OW66710   1.720   1.284   4.098  0.2030 -0.3738 -0.1242
21593SOL    HW166711   1.735   1.258   4.189 -0.2311  0.4051  0.1828
21593SOL    HW266712   1.782   1.232   4.047 -0.8933 -2.2984  0.4103
21594SOL     OW66713   1.162   3.860   1.822 -0.2291  0.6719 -0.3615
21594SOL    HW166714   1.220   3.784   1.820 -1.2003 -0.0998  0.2294
21594SOL    HW266715   1.112   3.851   1.903 -1.1998  1.2982 -0.8643
21595SOL     OW66716   2.370   1.794   5.664  0.4520 -0.4234 -0.1647
21595SOL    HW166717   2.395   1.736   5.736 -0.1931  0.3273  0.6912
21595SOL    HW266718   2.345   1.735   5.593 -0.4017 -1.2029  0.7536
21596SOL     OW66719   3.296   6.482   0.059 -0.7561 -0.0641 -0.3801
21596SOL    HW166720   3.267   6.542  -0.009  0.4239  1.2816  0.2640
21596SOL    HW266721   3.325   6.404   0.011 -0.8810  0.4626 -1.3415
21597SOL     OW66722   8.606   7.048   1.768  0.2663  0.0862  0.1436
21597SOL    HW166723   8.526   7.014   1.810 -0.2869 -0.3157 -1.1750
21597SOL    HW266724   8.656   6.969   1.746  0.5794  0.2924  0.1216
21598SOL     OW66725   0.837   2.134   1.393 -0.1283 -0.2116 -0.5359
21598SOL    HW166726   0.831   2.041   1.414  0.4269 -0.1484 -0.0586
21598SOL    HW266727   0.862   2.175   1.476  1.1385  0.1749 -1.0898
21599SOL     OW66728   0.542   0.478   1.355  0.6001  0.5983  0.5244
21599SOL    HW166729   0.555   0.467   1.260  0.1173  2.4572  0.2105
21599SOL    HW266730   0.492   0.400   1.380 -1.9040  1.4180 -1.3748
21600SOL     OW66731   1.832   7.643   1.156 -0.5402  0.0108  0.7937
21600SOL    HW166732   1.827   7.550   1.135  1.5459 -0.0413  0.3601
21600SOL    HW266733   1.890   7.648   1.231 -1.5203  0.8995  1.5290
21601SOL     OW66734   3.333   0.855   5.797  0.2516  0.3068 -0.1537
21601SOL    HW166735   3.242   0.846   5.768  0.0015 -1.0575  0.9127
21601SOL    HW266736   3.384   0.823   5.723 -0.0890  1.4041 -0.8965
21602SOL     OW66737   1.345   8.614   7.335 -0.0062  0.5922  0.1146
21602SOL    HW166738   1.440   8.621   7.342  0.2916 -0.8605 -1.8030
21602SOL    HW266739   1.325   8.524   7.359 -0.6451  0.2908 -1.4238
21603SOL     OW66740   4.674   0.761   2.329 -0.1555  0.0692 -0.2041
21603SOL    HW166741   4.588   0.728   2.354 -0.6567  1.9092  0.7050
21603SOL    HW266742   4.731   0.738   2.403  0.4702 -2.2003 -1.3219
21604SOL     OW66743   7.453   2.962   1.443  0.0425 -0.3030  0.7196
21604SOL    HW166744   7.527   3.015   1.472  0.0979 -0.6137  1.1499
21604SOL    HW266745   7.428   3.000   1.359  0.4222  0.0675  0.7712
21605SOL     OW66746   5.284   0.529   8.392 -0.6608 -0.2720  0.1767
21605SOL    HW166747   5.367   0.508   8.351  0.6162 -1.2800  3.0567
21605SOL    HW266748   5.228   0.453   8.375 -0.0401 -0.8206  0.5740
21606SOL     OW66749   6.102   5.481   0.658  0.4174 -0.1225  0.0652
21606SOL    HW166750   6.169   5.509   0.721  0.1859  1.7965 -0.4695
21606SOL    HW266751   6.146   5.416   0.604  1.0289 -0.8299  1.3559
21607SOL     OW66752   1.627   4.104   0.695  0.1396  0.0490  0.3476
21607SOL    HW166753   1.586   4.062   0.771 -0.4568 -0.3638 -0.1854
21607SOL    HW266754   1.693   4.042   0.666 -0.9156 -0.6723 -0.5949
21608SOL     OW66755   7.879   7.134   3.882 -0.1744 -0.6532  0.3485
21608SOL    HW166756   7.803   7.106   3.831 -1.3381  0.2599  1.5281
21608SOL    HW266757   7.912   7.211   3.835 -1.3309  0.2763  1.0053
21609SOL     OW66758   2.144   7.455   0.642 -0.4189  0.9335 -0.7212
21609SOL    HW166759   2.058   7.470   0.681 -0.0141  1.8260 -0.1408
21609SOL    HW266760   2.125   7.421   0.555 -1.3413 -0.6128  0.0536
21610SOL     OW66761   1.260   8.471   2.620  0.2346  0.0752  0.0804
21610SOL    HW166762   1.231   8.456   2.710  0.0298  1.4113  0.2575
21610SOL    HW266763   1.187   8.441   2.566  0.6286 -1.3784  0.3073
21611SOL     OW66764   7.672   7.428   6.617 -0.0750  0.3056  0.1020
21611SOL    HW166765   7.680   7.335   6.596 -0.8765 -0.2574  2.1264
21611SOL    HW266766   7.653   7.431   6.710  1.8072  2.6097  0.5173
21612SOL     OW66767   8.697   1.444   1.133  0.2638  0.4385  0.0583
21612SOL    HW166768   8.650   1.361   1.139 -1.3389  1.3708  1.8712
21612SOL    HW266769   8.673   1.481   1.048  0.7995 -0.8014 -0.6507
21613SOL     OW66770   0.427   8.812   7.269 -0.6044 -0.1033 -0.0293
21613SOL    HW166771   0.384   8.882   7.318 -0.1915 -0.8367  1.4356
21613SOL    HW266772   0.518   8.839   7.263 -0.7354  0.1998 -0.8316
21614SOL     OW66773   3.464   1.974   1.124 -0.0844  0.5065 -0.5502
21614SOL    HW166774   3.428   2.002   1.040 -1.4112 -1.1424 -0.5811
21614SOL    HW266775   3.559   1.975   1.111 -0.2760 -1.2315 -2.6361
21615SOL     OW66776   1.005   4.103   6.021 -0.4857 -0.3953  0.1410
21615SOL    HW166777   1.015   4.036   5.953  1.0252  0.4229 -0.4857
21615SOL    HW266778   1.093   4.114   6.057 -1.0601 -0.0329  1.5049
21616SOL     OW66779   2.986   1.411   7.677  0.5114  0.1417  0.0749
21616SOL    HW166780   3.006   1.483   7.738 -0.6906  1.6598 -1.2452
21616SOL    HW266781   2.958   1.455   7.596 -1.0274 -1.7987 -0.5283
21617SOL     OW66782   1.810   0.958   3.277 -0.3114  0.1755  0.1909
21617SOL    HW166783   1.826   1.052   3.285  0.8995  0.0683 -0.7823
21617SOL    HW266784   1.877   0.917   3.332  0.9492 -0.1816 -1.5425
21618SOL     OW66785   4.457   3.403   1.376  0.1571  0.3329 -0.7186
21618SOL    HW166786   4.423   3.486   1.342 -0.1830  0.3869 -0.2563
21618SOL    HW266787   4.501   3.363   1.301 -0.8978  0.2795 -1.3208
21619SOL     OW66788   0.442   4.769   8.053 -0.6231  0.1785 -0.0000
21619SOL    HW166789   0.445   4.703   7.983 -1.2554 -0.5292  0.6215
21619SOL    HW266790   0.349   4.779   8.073 -0.6400  2.0625 -0.8048
21620SOL     OW66791   8.772   0.667   1.609  0.6191  0.2775  0.3380
21620SOL    HW166792   8.801   0.719   1.684 -0.4940  1.0015  0.2984
21620SOL    HW266793   8.765   0.578   1.643 -0.1006  0.6325  1.1740
21621SOL     OW66794   1.724   5.417   0.012  0.0298  0.0895  0.3837
21621SOL    HW166795   1.735   5.338  -0.041  0.5133 -0.3881  1.1856
21621SOL    HW266796   1.678   5.388   0.090  0.9214  0.4292  1.0580
21622SOL     OW66797   0.492   8.534   4.829  0.3524  0.2099 -0.0323
21622SOL    HW166798   0.441   8.486   4.894  0.0324  1.4848  0.6867
21622SOL    HW266799   0.506   8.620   4.868  0.4774  0.8786 -1.4876
21623SOL     OW66800   2.307   2.155   4.202 -0.0119 -0.1865 -0.0683
21623SOL    HW166801   2.330   2.247   4.191  0.3929 -0.4557 -1.7625
21623SOL    HW266802   2.367   2.123   4.269  1.2619  0.2974 -0.9399
21624SOL     OW66803   5.837   1.843   7.304  0.5040 -0.4835 -0.2269
21624SOL    HW166804   5.860   1.849   7.211 -0.4366  3.3365 -0.3791
21624SOL    HW266805   5.919   1.861   7.350  0.5857 -0.4867 -0.3710
21625SOL     OW66806   0.315   7.422   7.087 -0.2161 -0.1013  0.4792
21625SOL    HW166807   0.273   7.462   7.163 -4.2903 -0.2890 -1.4537
21625SOL    HW266808   0.336   7.495   7.029 -1.7716 -0.2200 -0.2906
21626SOL     OW66809   0.664   7.290   1.770 -0.0030 -0.3897 -0.1811
21626SOL    HW166810   0.690   7.367   1.819  1.2033  0.4420 -2.0333
21626SOL    HW266811   0.582   7.314   1.728 -0.9650 -1.0548  1.2353
21627SOL     OW66812   7.265   4.761   2.635  0.0743  0.7872  0.4139
21627SOL    HW166813   7.216   4.843   2.637 -0.7271  0.3302  0.0317
21627SOL    HW266814   7.290   4.751   2.543 -4.2693 -1.8861 -0.7998
21628SOL     OW66815   6.076   3.969   8.487  0.0840  0.8235  0.6069
21628SOL    HW166816   6.089   3.883   8.527  1.0649  0.1742 -1.0208
21628SOL    HW266817   5.989   3.996   8.517 -0.4781 -0.9755  0.7261
21629SOL     OW66818   3.319   6.484   6.752 -0.2623  0.0210  0.3975
21629SOL    HW166819   3.249   6.550   6.757  0.6211  1.0776 -0.5769
21629SOL    HW266820   3.348   6.473   6.842 -0.8350  0.5071  0.6521
21630SOL     OW66821   4.987   5.290   4.987  0.1941 -0.1598  0.2486
21630SOL    HW166822   5.035   5.304   4.905 -0.3349 -3.5989 -0.8505
21630SOL    HW266823   4.903   5.334   4.974  0.2788 -0.3039 -0.9187
21631SOL     OW66824   3.565   7.524   7.486 -0.4349 -0.5816 -0.2168
21631SOL    HW166825   3.550   7.443   7.437 -0.0760  0.8285 -2.8733
21631SOL    HW266826   3.489   7.578   7.467  0.3351  0.5088 -0.3197
21632SOL     OW66827   4.171   8.766   5.130  0.3695  0.3285  0.0119
21632SOL    HW166828   4.115   8.691   5.113 -0.2394  0.8577 -0.3856
21632SOL    HW266829   4.203   8.753   5.219  0.7707 -0.7044 -0.2630
21633SOL     OW66830   7.615   2.488   1.671 -0.4147  0.2213  0.6516
21633SOL    HW166831   7.658   2.404   1.656 -0.9967  0.1413 -0.8041
21633SOL    HW266832   7.648   2.518   1.756  0.7018 -0.9096  0.6441
21634SOL     OW66833   6.498   5.137   6.393 -0.3721  0.2302  0.3591
21634SOL    HW166834   6.589   5.154   6.419  0.2798  0.7812 -2.0168
21634SOL    HW266835   6.449   5.211   6.427  0.4679  1.0270 -0.1023
21635SOL     OW66836   4.770   2.773   0.608 -0.6418 -0.0951 -0.1765
21635SOL    HW166837   4.728   2.690   0.587 -1.8590  0.9067 -1.9260
21635SOL    HW266838   4.862   2.761   0.583 -0.7621 -0.9766 -0.2027
21636SOL     OW66839   2.271   7.114   1.190 -0.3755 -0.3821 -0.3689
21636SOL    HW166840   2.224   7.168   1.254  1.7058 -0.1047  1.0364
21636SOL    HW266841   2.293   7.034   1.238  2.1489  0.2619 -0.2708
21637SOL     OW66842   3.550   3.075   8.179  0.6366  0.1300  0.4494
21637SOL    HW166843   3.481   3.050   8.117  1.7243 -0.1273 -0.7104
21637SOL    HW266844   3.594   2.993   8.201 -0.6603 -0.0126  2.7957
21638SOL     OW66845   6.332   5.613   4.545  0.0758  0.3876  0.1968
21638SOL    HW166846   6.299   5.534   4.502 -0.4762  0.7142  0.0020
21638SOL    HW266847   6.302   5.685   4.488  2.1147  0.6472 -0.6243
21639SOL     OW66848   2.015   1.586   5.327 -0.3658  0.1048 -0.1768
21639SOL    HW166849   1.935   1.552   5.367 -0.1091 -0.2580  0.0355
21639SOL    HW266850   1.987   1.666   5.282 -0.9820 -0.3724 -0.6721
21640SOL     OW66851   6.684   1.780   7.281  0.4363 -0.1548  0.2752
21640SOL    HW166852   6.660   1.690   7.304  1.9670 -0.3091  1.4382
21640SOL    HW266853   6.724   1.815   7.360  1.9719  0.7663 -0.8513
21641SOL     OW66854   4.476   7.942   7.452 -0.1171 -0.1423  0.1630
21641SOL    HW166855   4.472   7.851   7.479  0.3040 -0.4631 -0.7802
21641SOL    HW266856   4.570   7.960   7.441 -0.2630 -0.2431 -1.6343
21642SOL     OW66857   7.958   2.301   4.963 -0.1475 -0.2007  0.7068
21642SOL    HW166858   7.876   2.283   4.916  0.7228 -1.4865 -0.3839
21642SOL    HW266859   7.936   2.372   5.023 -1.1521  2.1258 -2.1758
21643SOL     OW66860   6.712   8.137   7.743 -0.6928 -0.3112 -0.7601
21643SOL    HW166861   6.786   8.198   7.753 -2.3207  1.5576  0.7558
21643SOL    HW266862   6.738   8.060   7.793  1.3292 -0.8862 -2.5222
21644SOL     OW66863   3.764   1.682   7.362 -0.2564 -0.1165 -0.3643
21644SOL    HW166864   3.745   1.719   7.275 -0.6659 -0.1361 -0.2833
21644SOL    HW266865   3.702   1.724   7.421 -0.4235 -0.5913 -0.1932
21645SOL     OW66866   3.969   3.661   0.537 -0.0799  0.0816  0.5962
21645SOL    HW166867   4.051   3.656   0.587  0.3150 -1.4141 -0.1318
21645SOL    HW266868   3.901   3.642   0.602  0.5218 -3.1973  0.4376
21646SOL     OW66869   6.433   8.319   5.648  0.0444  0.5732  0.0148
21646SOL    HW166870   6.524   8.290   5.640 -0.3106 -2.4215  3.9359
21646SOL    HW266871   6.438   8.414   5.641  3.3585  0.4908 -0.5815
21647SOL     OW66872   0.737   3.282   1.315  0.1261  0.0868 -0.0702
21647SOL    HW166873   0.733   3.375   1.335 -2.6108 -0.4581  2.7678
21647SOL    HW266874   0.695   3.240   1.390  0.3322 -3.3748 -1.7086
21648SOL     OW66875   5.672   4.192   2.657 -0.1633 -0.6334 -0.6412
21648SOL    HW166876   5.689   4.208   2.564  0.5324  1.4354 -0.2099
21648SOL    HW266877   5.756   4.164   2.692 -0.4640 -1.5707 -0.6432
21649SOL     OW66878   5.962   0.279   1.903  0.6304  0.1516 -0.5825
21649SOL    HW166879   5.917   0.195   1.917  1.9614 -0.6621 -1.0395
21649SOL    HW266880   5.941   0.330   1.981  0.1024 -0.7451 -0.1141
21650SOL     OW66881   1.599   5.511   7.342  0.9263 -0.9825 -0.5274
21650SOL    HW166882   1.515   5.489   7.300  0.8379  0.0422 -0.9236
21650SOL    HW266883   1.629   5.429   7.381 -0.3749 -1.3191 -0.1839
21651SOL     OW66884   7.463   1.770   3.418  0.2668  0.3044 -0.3215
21651SOL    HW166885   7.414   1.824   3.480  0.5571  1.1549 -0.8051
21651SOL    HW266886   7.428   1.795   3.332  1.7799  1.2281 -0.7156
21652SOL     OW66887   4.873   3.758   6.539  0.2216  0.4539  0.1251
21652SOL    HW166888   4.859   3.758   6.444 -0.2903 -0.0961  0.1935
21652SOL    HW266889   4.787   3.781   6.576  0.7507  2.0426  0.4246
21653SOL     OW66890   3.252   8.088   6.095  0.7194  0.1049  0.0101
21653SOL    HW166891   3.184   8.028   6.064 -0.1700  0.2136  1.6598
21653SOL    HW266892   3.324   8.031   6.122  0.4474 -0.1421  0.2238
21654SOL     OW66893   3.100   8.515   5.445  0.6420 -0.0437  0.2440
21654SOL    HW166894   3.173   8.563   5.483  1.9770 -0.6236 -1.4458
21654SOL    HW266895   3.060   8.576   5.383 -0.2562  0.2350  1.0827
21655SOL     OW66896   7.679   5.132   2.383 -0.5888  0.6711 -0.1255
21655SOL    HW166897   7.739   5.066   2.420 -1.5542 -1.2175 -1.7319
21655SOL    HW266898   7.695   5.211   2.435  2.2859 -0.1410  0.4187
21656SOL     OW66899   6.317   2.370   3.507 -0.3415 -0.5534  0.5246
21656SOL    HW166900   6.339   2.278   3.493 -1.1941 -1.0874  2.3815
21656SOL    HW266901   6.401   2.416   3.504  0.0697 -1.3429 -0.6269
21657SOL     OW66902   6.927   3.315   3.502 -0.3456  0.2926  0.2313
21657SOL    HW166903   6.961   3.236   3.543 -0.3196  0.5191  0.6553
21657SOL    HW266904   6.995   3.339   3.438 -0.1683  0.1920  0.3784
21658SOL     OW66905   0.851   2.781   8.600  0.0815  0.0751 -0.1026
21658SOL    HW166906   0.865   2.702   8.548  0.9808  0.1556 -0.0028
21658SOL    HW266907   0.827   2.848   8.536 -0.0404 -0.1237 -0.2659
21659SOL     OW66908   7.571   6.370   6.853  0.0861  0.1706  0.3041
21659SOL    HW166909   7.507   6.433   6.887 -0.1432  0.9616 -1.4565
21659SOL    HW266910   7.519   6.310   6.799  0.5591 -0.3729  0.4479
21660SOL     OW66911   0.920   6.598   6.759 -0.6946  0.3766 -0.3797
21660SOL    HW166912   0.925   6.510   6.797 -0.3008 -0.0551 -1.4080
21660SOL    HW266913   0.831   6.628   6.781  0.0851  0.9010  2.4367
21661SOL     OW66914   3.583   3.301   8.704 -0.4346  0.4773  0.1213
21661SOL    HW166915   3.574   3.242   8.779 -3.8246  0.9917  0.2497
21661SOL    HW266916   3.655   3.359   8.729  1.0204 -1.6667  1.2718
21662SOL     OW66917   4.848   1.054   2.468 -0.2476 -0.6112  0.1415
21662SOL    HW166918   4.754   1.065   2.482 -1.1045 -1.8114 -3.5183
21662SOL    HW266919   4.866   1.105   2.389  1.8241 -1.6962 -0.1560
21663SOL     OW66920   3.195   8.121   6.403 -0.1310  0.2410 -0.5563
21663SOL    HW166921   3.264   8.120   6.470 -0.0514  0.7067 -0.6263
21663SOL    HW266922   3.240   8.144   6.322 -0.6204  2.4805 -0.2734
21664SOL     OW66923   1.308   7.917   3.966 -0.0798  0.2949  0.5696
21664SOL    HW166924   1.243   7.883   3.905  0.3883  1.5645 -0.6894
21664SOL    HW266925   1.266   7.993   4.006  1.2382  2.3999 -1.7708
21665SOL     OW66926   0.799   2.718   6.476 -0.4647 -0.3366  0.0556
21665SOL    HW166927   0.746   2.748   6.549 -0.2115 -0.3298  0.2387
21665SOL    HW266928   0.889   2.733   6.504 -0.3751  0.3714 -0.5568
21666SOL     OW66929   3.548   4.252   2.084  0.0921 -0.0456  0.5022
21666SOL    HW166930   3.609   4.326   2.082  0.5569 -0.4295  0.2547
21666SOL    HW266931   3.472   4.282   2.033  1.5943 -0.8557 -2.4360
21667SOL     OW66932   2.108   1.095   2.724  0.5208 -0.7399 -0.0294
21667SOL    HW166933   2.080   1.074   2.812  0.1304 -2.4212 -0.5291
21667SOL    HW266934   2.038   1.149   2.688  1.1811  0.8762  1.0186
21668SOL     OW66935   2.186   7.623   4.945 -0.1696  0.1450 -0.2150
21668SOL    HW166936   2.151   7.692   5.002  0.1940  2.1772 -2.3039
21668SOL    HW266937   2.281   7.639   4.943  0.1015 -1.2775  0.3167
21669SOL     OW66938   0.022   6.520   7.113  0.1567  0.6587 -0.3744
21669SOL    HW166939  -0.032   6.478   7.046  0.0817 -0.3940  0.3233
21669SOL    HW266940   0.106   6.474   7.109  0.4619  1.2058 -0.3611
21670SOL     OW66941   1.862   0.564   0.478  0.3038  0.4226  0.5644
21670SOL    HW166942   1.870   0.654   0.510  2.1288  1.1370 -1.6116
21670SOL    HW266943   1.871   0.572   0.383 -1.1820 -1.9211  0.1462
21671SOL     OW66944   3.047   8.001   2.149  0.1279 -0.6197 -0.0301
21671SOL    HW166945   3.107   7.952   2.204  1.0039 -0.8189 -1.1441
21671SOL    HW266946   3.103   8.049   2.088 -0.8302 -0.5540 -0.8868
21672SOL     OW66947   3.401   3.640   3.859 -0.1468 -0.1066  0.4852
21672SOL    HW166948   3.314   3.619   3.894 -1.0024  4.0466  1.3017
21672SOL    HW266949   3.422   3.725   3.896  3.3352  0.0712 -1.4976
21673SOL     OW66950   6.144   0.092   6.019 -0.0015  0.0848  0.2001
21673SOL    HW166951   6.186   0.041   6.088  0.9309  0.3863 -0.1229
21673SOL    HW266952   6.077   0.144   6.064 -4.2098 -4.5305  0.0664
21674SOL     OW66953   2.415   7.742   7.164 -0.1835  0.1882  0.1834
21674SOL    HW166954   2.363   7.808   7.119  0.6742 -0.0258 -1.2097
21674SOL    HW266955   2.505   7.775   7.160  0.3558 -1.2628 -1.0814
21675SOL     OW66956   7.349   5.094   2.923 -0.4328  0.4555 -0.5571
21675SOL    HW166957   7.338   5.033   2.996 -1.7177  0.7955 -0.4374
21675SOL    HW266958   7.330   5.180   2.962  0.2325  0.7998 -0.9816
21676SOL     OW66959   2.391   2.737   2.689 -0.2709  0.3457 -0.1819
21676SOL    HW166960   2.455   2.705   2.753 -1.5331 -0.2641  0.8248
21676SOL    HW266961   2.366   2.660   2.639 -0.3059  0.5603 -0.4998
21677SOL     OW66962   0.101   1.873   6.104  0.5006 -0.0224  0.2051
21677SOL    HW166963   0.012   1.907   6.097  0.4209 -0.2634  0.0656
21677SOL    HW266964   0.115   1.823   6.024  0.7411 -0.0327  0.2515
21678SOL     OW66965   5.742   4.701   4.160 -0.1900 -0.5285 -0.7093
21678SOL    HW166966   5.829   4.663   4.171 -0.0253  0.0562  0.1012
21678SOL    HW266967   5.759   4.788   4.124 -0.3709 -0.0691  0.2733
21679SOL     OW66968   5.383   7.143   5.332 -0.1724  0.0076  0.2334
21679SOL    HW166969   5.455   7.099   5.377  0.4480  0.8983  0.1393
21679SOL    HW266970   5.405   7.137   5.239  0.0712  0.7544  0.2355
21680SOL     OW66971   0.881   0.536   0.261  0.2877 -0.2829  0.3004
21680SOL    HW166972   0.936   0.550   0.183 -0.0396 -0.7752 -0.0279
21680SOL    HW266973   0.944   0.516   0.331  0.7811  2.5365  0.7765
21681SOL     OW66974   1.370   4.379   1.980  0.5136  0.1897  0.2209
21681SOL    HW166975   1.431   4.440   1.938  0.4077  0.2730  0.1883
21681SOL    HW266976   1.427   4.318   2.027  0.6406 -0.0837 -0.2834
21682SOL     OW66977   4.991   4.728   8.655  0.2465 -0.1913  0.1258
21682SOL    HW166978   4.924   4.766   8.711  0.0335 -0.5307  0.1028
21682SOL    HW266979   4.944   4.700   8.576  0.5819  0.5011 -0.3299
21683SOL     OW66980   6.690   6.531   8.310  0.2852 -0.0791  0.7673
21683SOL    HW166981   6.655   6.618   8.326 -0.2283 -0.4351  1.7051
21683SOL    HW266982   6.773   6.546   8.264  0.2050  0.8942  0.9181
21684SOL     OW66983   8.669   3.562   1.557 -0.3292 -0.2233 -0.3023
21684SOL    HW166984   8.648   3.655   1.564  0.2539 -0.0842 -0.3180
21684SOL    HW266985   8.731   3.546   1.628  2.4116  0.2625 -2.4239
21685SOL     OW66986   1.986   4.115   3.358 -0.3602 -0.4860 -0.2635
21685SOL    HW166987   1.972   4.141   3.449  0.6098 -0.9076  0.0274
21685SOL    HW266988   2.011   4.196   3.313  1.3919 -0.6284  0.3593
21686SOL     OW66989   2.057   2.440   6.590  0.0041  0.4112  0.2040
21686SOL    HW166990   2.138   2.406   6.552  0.3442  0.1619  1.1200
21686SOL    HW266991   2.007   2.362   6.614 -1.0409  0.5438 -1.4020
21687SOL     OW66992   3.630   3.885   3.419 -0.5080 -0.7676  0.0329
21687SOL    HW166993   3.666   3.805   3.379 -1.6919 -0.9043 -0.8095
21687SOL    HW266994   3.704   3.945   3.424 -0.0655 -1.1718 -1.3132
21688SOL     OW66995   7.703   4.160   7.369  0.2389 -0.1947 -0.3120
21688SOL    HW166996   7.692   4.192   7.458  0.3179  1.1833 -0.7778
21688SOL    HW266997   7.626   4.191   7.322 -0.5657 -2.1897 -0.4106
21689SOL     OW66998   1.988   1.414   7.662 -0.1989  0.3885 -0.2852
21689SOL    HW166999   2.060   1.354   7.684 -1.9022 -2.0526 -0.9371
21689SOL    HW267000   2.003   1.437   7.571  2.3148  3.9003  0.7753
21690SOL     OW67001   5.357   2.042   7.305  0.3360  1.0912  0.3866
21690SOL    HW167002   5.443   1.999   7.306  0.8366  1.9988 -1.0299
21690SOL    HW267003   5.350   2.083   7.391  0.2900 -0.8910  1.3837
21691SOL     OW67004   4.248   7.741   5.585  0.1021  0.4744 -0.3402
21691SOL    HW167005   4.287   7.785   5.510  2.4202 -0.0708  0.4861
21691SOL    HW267006   4.289   7.655   5.587 -0.5947  0.1418  1.0219
21692SOL     OW67007   1.370   2.699   3.705 -0.2596  0.1620 -0.3338
21692SOL    HW167008   1.443   2.686   3.765 -0.1383  0.7102 -0.3532
21692SOL    HW267009   1.403   2.762   3.641 -1.1393  1.3679  0.3571
21693SOL     OW67010   2.645   3.296   4.919  0.0541 -0.4288  0.4860
21693SOL    HW167011   2.573   3.240   4.889 -3.0472  2.4303  1.9664
21693SOL    HW267012   2.712   3.286   4.851 -3.0020 -0.8623 -2.8011
21694SOL     OW67013   6.406   0.153   7.978  0.5410 -0.2985  0.2677
21694SOL    HW167014   6.358   0.092   8.034 -2.1387  0.9000 -0.5925
21694SOL    HW267015   6.387   0.239   8.015  1.8138  0.2528 -0.3073
21695SOL     OW67016   1.520   3.030   0.891  0.0603 -0.3233 -0.5546
21695SOL    HW167017   1.594   3.076   0.853 -0.2157 -0.3487 -1.1343
21695SOL    HW267018   1.538   2.937   0.875 -0.4993 -0.2902 -1.4707
21696SOL     OW67019   4.491   4.687   1.583  0.7541 -0.0766  0.1026
21696SOL    HW167020   4.465   4.764   1.533  0.1140  1.6065  2.8004
21696SOL    HW267021   4.463   4.613   1.530 -0.8768  1.5767 -1.4957
21697SOL     OW67022   6.732   7.004   7.115 -0.4766 -0.0287 -0.0933
21697SOL    HW167023   6.671   6.956   7.172 -1.1268 -0.7026 -1.3193
21697SOL    HW267024   6.679   7.074   7.077 -0.4090 -0.4159 -0.9122
21698SOL     OW67025   1.574   1.659   7.216 -0.5535  0.0551  0.2284
21698SOL    HW167026   1.520   1.584   7.242 -0.0250 -0.0941  0.9391
21698SOL    HW267027   1.647   1.658   7.278  0.6278 -0.1579 -1.1191
21699SOL     OW67028   1.357   4.937   5.770 -0.2712 -0.3892 -0.1736
21699SOL    HW167029   1.366   4.843   5.786  1.7177 -0.1618  0.2837
21699SOL    HW267030   1.345   4.944   5.675 -3.0560 -1.2083  0.0327
21700SOL     OW67031   7.607   5.213   1.673  0.1344 -0.1190  0.8221
21700SOL    HW167032   7.538   5.214   1.739  0.7506 -0.6286  1.4775
21700SOL    HW267033   7.583   5.141   1.615 -0.9166  0.9134 -0.0881
21701SOL     OW67034   8.756   8.384   4.004 -0.8061 -0.8314  0.0173
21701SOL    HW167035   8.824   8.352   3.946 -1.2355  0.4460 -1.2661
21701SOL    HW267036   8.799   8.396   4.089  1.2807  2.1696 -1.2847
21702SOL     OW67037   5.922   6.695   2.314 -0.0541  0.4745 -0.3376
21702SOL    HW167038   5.891   6.774   2.357 -0.5751  0.0772  0.0334
21702SOL    HW267039   5.853   6.630   2.330  0.8061 -0.3363  0.2201
21703SOL     OW67040   2.711   4.516   2.023  0.0078  0.5208 -0.0825
21703SOL    HW167041   2.724   4.448   2.089  0.5862  0.2291 -0.4815
21703SOL    HW267042   2.781   4.501   1.960 -2.1449 -1.0598 -2.3105
21704SOL     OW67043   2.643   6.551   7.578 -0.4344  0.5499 -0.5010
21704SOL    HW167044   2.646   6.466   7.622 -1.6763  0.9547  0.4288
21704SOL    HW267045   2.707   6.605   7.626 -1.6232  0.9233  0.7186
21705SOL     OW67046   3.831   0.918   2.738 -0.5057 -0.7643  0.4323
21705SOL    HW167047   3.921   0.893   2.717  0.1065  1.2553  0.4816
21705SOL    HW267048   3.840   0.994   2.794 -2.2588 -0.1650 -0.0473
21706SOL     OW67049   6.957   4.793   1.511  0.0571 -0.8839  0.3139
21706SOL    HW167050   6.990   4.864   1.456  0.2241 -1.1160  0.1108
21706SOL    HW267051   7.035   4.760   1.557 -0.0065 -0.9784  0.3552
21707SOL     OW67052   3.461   2.822   7.970  0.4033  0.1917 -0.1207
21707SOL    HW167053   3.530   2.883   7.945 -1.1492  1.1516 -2.4927
21707SOL    HW267054   3.462   2.755   7.901 -1.9503  1.0993 -1.1487
21708SOL     OW67055   2.681   1.702   3.922 -0.5176  0.5956 -0.1090
21708SOL    HW167056   2.609   1.650   3.885  0.3589 -1.7344  1.2590
21708SOL    HW267057   2.739   1.719   3.849  0.4677 -2.6801 -0.2267
21709SOL     OW67058   3.407   6.146   2.607  0.1838 -0.2086  0.1574
21709SOL    HW167059   3.360   6.183   2.681  0.1876 -0.0367  0.0748
21709SOL    HW267060   3.364   6.062   2.591 -0.1766  0.0025  0.0015
21710SOL     OW67061   1.143   4.025   0.836 -0.3195 -0.1416  0.5732
21710SOL    HW167062   1.187   4.083   0.899 -1.3858  0.8735  0.4367
21710SOL    HW267063   1.160   3.937   0.869  2.1084  0.1600  0.2886
21711SOL     OW67064   0.999   8.650   5.881  0.3130 -0.1771  0.0194
21711SOL    HW167065   1.016   8.724   5.823  1.6425 -1.0067 -0.6905
21711SOL    HW267066   0.994   8.574   5.822  2.8504 -1.2226  1.0140
21712SOL     OW67067   0.061   3.376   3.674 -0.3203 -0.1044  0.5519
21712SOL    HW167068  -0.023   3.401   3.712 -0.7460  1.1456 -1.0909
21712SOL    HW267069   0.069   3.282   3.693 -3.1407 -0.8038 -1.0606
21713SOL     OW67070   6.294   7.406   2.158 -0.5495 -0.1275  0.1008
21713SOL    HW167071   6.324   7.360   2.236 -2.1612 -1.3553  0.0323
21713SOL    HW267072   6.199   7.402   2.162 -0.7055  1.3023 -1.0615
21714SOL     OW67073   2.629   4.061   6.024 -0.2990 -0.0713 -0.5768
21714SOL    HW167074   2.649   3.980   5.978 -1.6166 -0.6364 -0.2006
21714SOL    HW267075   2.553   4.040   6.078 -0.1761  1.1996  0.1406
21715SOL     OW67076   4.925   5.138   5.908 -0.1963  0.1022 -0.1062
21715SOL    HW167077   4.979   5.070   5.868  0.1080 -0.0346  0.5260
21715SOL    HW267078   4.969   5.157   5.991  1.4031  3.1244 -1.4902
21716SOL     OW67079   7.522   8.271   4.994 -0.3837 -1.0916 -0.1124
21716SOL    HW167080   7.580   8.198   4.972  0.0102 -1.2782  1.4009
21716SOL    HW267081   7.563   8.347   4.954 -0.8424 -1.6860 -1.7823
21717SOL     OW67082   7.013   7.623   7.819 -0.5241 -0.3599  0.1958
21717SOL    HW167083   7.063   7.586   7.892  0.6850  1.8535  0.5766
21717SOL    HW267084   7.017   7.718   7.833 -1.9331  0.0316 -1.6914
21718SOL     OW67085   3.140   2.468   6.918 -0.3664 -0.7590  0.3633
21718SOL    HW167086   3.177   2.406   6.982 -1.2305 -0.1150  1.5318
21718SOL    HW267087   3.050   2.481   6.948 -0.1894  1.1070  0.1754
21719SOL     OW67088   0.462   5.566   0.186 -0.0571 -0.5191  0.1092
21719SOL    HW167089   0.395   5.625   0.152  0.4462 -0.6082 -1.1061
21719SOL    HW267090   0.524   5.555   0.113  1.3298 -0.3764  1.2243
21720SOL     OW67091   1.442   2.915   1.872  0.1038  0.8601 -0.4820
21720SOL    HW167092   1.416   3.006   1.886 -0.1556  0.7135  0.0386
21720SOL    HW267093   1.509   2.899   1.940 -1.2239  0.1076  0.7018
21721SOL     OW67094   5.507   1.084   7.071  0.1028  0.2645 -0.5265
21721SOL    HW167095   5.589   1.061   7.114  1.4916 -2.2698 -4.0975
21721SOL    HW267096   5.522   1.173   7.038  0.5405  0.6555  0.6761
21722SOL     OW67097   7.331   3.729   0.322 -0.0267 -1.0531 -0.7666
21722SOL    HW167098   7.324   3.709   0.228  1.0769  0.5666 -1.2345
21722SOL    HW267099   7.420   3.764   0.332 -0.8498  0.7733  0.4904
21723SOL     OW67100   5.442   8.603   2.546 -0.4456  0.5603 -0.6881
21723SOL    HW167101   5.362   8.575   2.589  1.4888 -0.2379  2.7631
21723SOL    HW267102   5.445   8.551   2.465 -3.1067  0.3181 -0.7182
21724SOL     OW67103   0.112   1.727   8.045  0.0558  0.0706 -0.3677
21724SOL    HW167104   0.062   1.656   8.085  1.4920 -0.2375  0.9838
21724SOL    HW267105   0.048   1.797   8.030 -0.8441 -0.4302  0.9799
21725SOL     OW67106   1.059   5.111   1.753  0.1531 -0.0405  0.4020
21725SOL    HW167107   1.033   5.024   1.723 -1.1500  0.6371 -0.5034
21725SOL    HW267108   0.984   5.142   1.803  0.3069  0.8501  0.0883
21726SOL     OW67109   3.489   5.673   4.730 -0.3847 -0.0454 -0.6556
21726SOL    HW167110   3.470   5.767   4.725 -0.6646 -0.1369 -1.7208
21726SOL    HW267111   3.529   5.653   4.645  1.6711 -0.4847  0.3526
21727SOL     OW67112   2.848   8.720   4.994  0.2453  0.1336 -0.4732
21727SOL    HW167113   2.850   8.758   4.906 -0.4882 -0.4989 -0.7689
21727SOL    HW267114   2.755   8.716   5.016  0.3593 -0.7998 -0.1425
21728SOL     OW67115   2.541   8.461   6.803  0.0564 -0.1831  0.0837
21728SOL    HW167116   2.605   8.488   6.738  0.2294  0.5832  0.5554
21728SOL    HW267117   2.469   8.423   6.752 -0.7412  2.2460 -0.7644
21729SOL     OW67118   6.998   5.218   4.053 -0.1337 -0.5435  0.2506
21729SOL    HW167119   6.997   5.309   4.083  0.5194 -0.6266  0.5339
21729SOL    HW267120   7.071   5.178   4.099 -1.1301 -1.5255  1.0221
21730SOL     OW67121   5.314   7.360   3.314  0.1103 -0.1042  0.6103
21730SOL    HW167122   5.258   7.438   3.305  0.0692 -0.2628 -0.7645
21730SOL    HW267123   5.389   7.379   3.258  0.7695 -0.4906  1.3546
21731SOL     OW67124   7.974   0.619   1.065  0.0132 -0.0487 -0.2844
21731SOL    HW167125   7.918   0.562   1.118 -0.6540  2.0599  1.4374
21731SOL    HW267126   8.054   0.569   1.050  0.0635 -0.9110  2.4345
21732SOL     OW67127   1.801   4.139   2.702 -0.2496 -0.0176 -0.4885
21732SOL    HW167128   1.761   4.153   2.787  1.3161  1.6093  0.0490
21732SOL    HW267129   1.730   4.105   2.647 -1.0861 -1.9160  1.6288
21733SOL     OW67130   7.693   6.175   4.687 -0.2071 -0.4784 -0.7069
21733SOL    HW167131   7.601   6.202   4.685  0.1070  0.6390 -2.6406
21733SOL    HW267132   7.710   6.143   4.599  1.5113  0.2942 -0.6867
21734SOL     OW67133   8.133   0.366   1.417 -0.2358  0.5289  0.0031
21734SOL    HW167134   8.137   0.276   1.383 -1.0215  0.3988  0.2522
21734SOL    HW267135   8.200   0.368   1.486 -0.8199 -0.1316  0.6046
21735SOL     OW67136   2.106   3.226   1.749  0.1310  0.6264 -0.1714
21735SOL    HW167137   2.114   3.316   1.718 -0.0818  1.0482  0.9404
21735SOL    HW267138   2.043   3.186   1.689  0.4365  1.1327 -0.8408
21736SOL     OW67139   7.322   7.639   5.260  0.2098  0.2902  0.0181
21736SOL    HW167140   7.400   7.691   5.277 -0.1975  0.7704  0.4508
21736SOL    HW267141   7.278   7.683   5.188  0.6010 -0.2806 -0.5829
21737SOL     OW67142   7.648   1.064   2.000 -0.1890 -0.1958  0.0583
21737SOL    HW167143   7.662   1.144   1.950  0.7232  0.3271  1.1186
21737SOL    HW267144   7.709   1.001   1.962 -1.2348 -0.5523 -1.0838
21738SOL     OW67145   1.910   0.036   7.694  0.0167  0.7087 -0.1848
21738SOL    HW167146   1.875   0.076   7.615  0.1185 -0.1508 -0.6807
21738SOL    HW267147   1.982   0.093   7.720  0.5179  0.5486 -1.1921
21739SOL     OW67148   1.850   0.571   2.451  0.2145 -0.2221  0.0937
21739SOL    HW167149   1.833   0.476   2.449 -1.4880  0.0692 -0.4774
21739SOL    HW267150   1.777   0.607   2.501  2.3321  0.5588  2.8596
21740SOL     OW67151   4.426   1.304   7.186  0.2547 -0.1080 -0.0859
21740SOL    HW167152   4.446   1.213   7.166  1.0974 -0.0885  0.5795
21740SOL    HW267153   4.332   1.313   7.170  0.3484 -0.8302 -1.0960
21741SOL     OW67154   4.470   0.028   5.692  0.0475  0.5022 -0.5209
21741SOL    HW167155   4.452  -0.004   5.780  0.4258  1.2559 -0.1622
21741SOL    HW267156   4.506   0.116   5.705 -1.9319  1.5312 -1.5244
21742SOL     OW67157   2.864   8.804   0.457 -0.0013 -0.4199  0.5916
21742SOL    HW167158   2.959   8.798   0.461 -0.0618 -1.4059  0.6683
21742SOL    HW267159   2.840   8.766   0.372 -0.4506 -2.0084  1.3945
21743SOL     OW67160   7.801   1.973   7.379 -0.2852  0.5080  0.1376
21743SOL    HW167161   7.711   1.994   7.404 -0.7033 -0.7866 -0.1937
21743SOL    HW267162   7.844   1.949   7.461  0.2304  2.6193  0.5396
21744SOL     OW67163   5.060   8.351   5.760  0.1451 -0.0286 -0.1077
21744SOL    HW167164   5.045   8.390   5.846 -0.1494  2.1882 -1.1071
21744SOL    HW267165   5.070   8.426   5.701 -0.9062 -1.4729 -2.2374
21745SOL     OW67166   6.636   1.290   0.389 -0.0776  0.1422  0.0440
21745SOL    HW167167   6.640   1.385   0.378 -0.7963  0.3455  1.3040
21745SOL    HW267168   6.724   1.265   0.415 -0.5301  0.9484  2.7327
21746SOL     OW67169   7.363   3.939   0.807 -0.4028  0.2885  0.2004
21746SOL    HW167170   7.317   3.962   0.726 -2.0598  0.6619  1.2144
21746SOL    HW267171   7.311   3.869   0.846  1.3375 -1.1131  0.1367
21747SOL     OW67172   0.297   2.936   7.402  0.3797 -0.0426  0.5798
21747SOL    HW167173   0.256   2.855   7.433 -1.2968  0.9484  1.0645
21747SOL    HW267174   0.231   3.003   7.415  2.2975  1.7381  1.7326
21748SOL     OW67175   6.702   4.940   3.935 -0.0069  0.2691  0.0939
21748SOL    HW167176   6.737   4.922   4.022  2.1846  0.0564 -0.7437
21748SOL    HW267177   6.634   4.875   3.921  1.4355 -1.4484  0.6739
21749SOL     OW67178   2.426   7.717   3.381 -0.0407 -0.9060 -0.3553
21749SOL    HW167179   2.483   7.647   3.349 -0.1888 -1.0226 -0.3620
21749SOL    HW267180   2.445   7.791   3.323  1.9360 -0.1512  1.1469
21750SOL     OW67181   5.301   7.442   8.430 -0.3039 -0.0201 -0.4946
21750SOL    HW167182   5.340   7.517   8.386 -1.6183  1.0747  0.1502
21750SOL    HW267183   5.296   7.467   8.522 -0.9926 -0.7999 -0.3062
21751SOL     OW67184   7.713   2.024   6.943 -0.1801  0.3543  0.1903
21751SOL    HW167185   7.658   2.065   7.010 -0.0728  0.2201  0.3606
21751SOL    HW267186   7.758   1.953   6.989  0.3982  0.6815  0.1333
21752SOL     OW67187   5.892   4.162   2.801  0.4265  0.4487 -0.4613
21752SOL    HW167188   5.987   4.173   2.804  0.6315 -1.1235  2.0739
21752SOL    HW267189   5.860   4.220   2.870  0.0062 -1.8815  1.4336
21753SOL     OW67190   2.560   4.645   8.366 -0.1648 -0.5056  0.0043
21753SOL    HW167191   2.608   4.587   8.425 -0.0166  1.3012  1.7586
21753SOL    HW267192   2.471   4.608   8.364 -0.4835 -0.0512  2.3163
21754SOL     OW67193   1.723   0.359   1.796  0.4806  0.0416  0.3008
21754SOL    HW167194   1.792   0.294   1.783  0.6745  0.3598 -0.2798
21754SOL    HW267195   1.643   0.307   1.806  0.5557 -0.2793 -0.6799
21755SOL     OW67196   3.299   7.619   7.461  0.3016 -0.0156 -0.5058
21755SOL    HW167197   3.258   7.706   7.461 -0.0689 -0.1770 -1.4532
21755SOL    HW267198   3.237   7.563   7.507  0.8587  0.3523  0.7230
21756SOL     OW67199   5.552   5.684   1.865 -0.3360 -0.0814  0.1469
21756SOL    HW167200   5.525   5.611   1.809 -1.2349  0.9403 -0.7946
21756SOL    HW267201   5.518   5.662   1.951 -1.8326 -0.1511 -0.4268
21757SOL     OW67202   8.664   1.080   0.455  0.3652  0.5784  0.2775
21757SOL    HW167203   8.708   1.105   0.536  1.7112 -1.9388  0.3942
21757SOL    HW267204   8.581   1.042   0.483  0.6944 -0.0068  0.4720
21758SOL     OW67205   6.099   8.105   4.447  0.3454  0.0303  0.3336
21758SOL    HW167206   6.055   8.038   4.499  0.5797  0.2314  0.7984
21758SOL    HW267207   6.072   8.188   4.487  1.9086  0.1320  1.2726
21759SOL     OW67208   7.385   0.601   3.219  0.2792 -0.1055  0.3670
21759SOL    HW167209   7.330   0.678   3.206 -0.0579 -0.0801  1.8066
21759SOL    HW267210   7.470   0.636   3.245  0.0102 -0.2109  1.4255
21760SOL     OW67211   0.012   5.261   7.708  0.0583  0.2002 -0.3809
21760SOL    HW167212  -0.054   5.225   7.767  0.1503 -1.3826 -1.1804
21760SOL    HW267213   0.049   5.335   7.756 -1.0051 -0.0156  0.8444
21761SOL     OW67214   7.891   2.634   2.228 -0.2243 -0.4090  0.1181
21761SOL    HW167215   7.882   2.702   2.161  0.7077 -0.4597 -0.0844
21761SOL    HW267216   7.971   2.587   2.202 -0.3476 -0.9822  0.7777
21762SOL     OW67217   7.520   5.996   1.344 -0.7538 -0.1461 -0.1134
21762SOL    HW167218   7.537   6.069   1.403 -1.0911  1.7828 -2.2328
21762SOL    HW267219   7.484   5.927   1.400 -0.9704  1.5194  1.9172
21763SOL     OW67220   6.599   2.892   2.900  0.0294  0.3639  0.4461
21763SOL    HW167221   6.637   2.867   2.816  2.6625  1.6906  1.1488
21763SOL    HW267222   6.575   2.808   2.941  1.3771 -0.4965 -0.4361
21764SOL     OW67223   0.680   4.052   2.616  0.1337 -0.0192 -1.0546
21764SOL    HW167224   0.638   4.111   2.680 -0.9351 -1.6063 -0.2311
21764SOL    HW267225   0.645   4.080   2.532  0.3926  1.1405 -0.7979
21765SOL     OW67226   6.024   8.722   5.489  0.5258  0.2742 -0.2680
21765SOL    HW167227   6.087   8.721   5.561  2.3530  2.8357 -1.6563
21765SOL    HW267228   5.941   8.748   5.530  0.7633 -1.2052  1.2863
21766SOL     OW67229   2.934   5.875   2.042  0.1374  0.8271 -0.2305
21766SOL    HW167230   2.864   5.931   2.076 -0.7051 -0.1086 -0.3981
21766SOL    HW267231   3.004   5.937   2.020 -0.1531  1.6637  1.0709
21767SOL     OW67232   0.776   1.808   4.102  0.0600  0.1405  0.7943
21767SOL    HW167233   0.845   1.743   4.116  0.3401 -0.0903 -1.3512
21767SOL    HW267234   0.704   1.777   4.157  0.2797 -1.8737  0.0463
21768SOL     OW67235   3.396   0.059   1.485  0.2159  0.3713 -0.0743
21768SOL    HW167236   3.458  -0.008   1.513 -0.1606  0.5647  1.3338
21768SOL    HW267237   3.332   0.011   1.432  0.4684 -0.2082  0.1305
21769SOL     OW67238   1.300   7.374   2.907  0.0070  0.0368 -0.5799
21769SOL    HW167239   1.284   7.415   2.822  0.4704  0.6499 -0.3878
21769SOL    HW267240   1.247   7.426   2.968  0.0561 -0.0930 -0.4281
21770SOL     OW67241   0.548   7.731   2.137 -0.0821  0.4183  0.0013
21770SOL    HW167242   0.619   7.716   2.199  1.0125  0.3477 -1.2165
21770SOL    HW267243   0.562   7.821   2.105  0.5322 -0.1832 -1.5215
21771SOL     OW67244   3.835   2.536   4.560 -0.3625  0.2709 -0.5480
21771SOL    HW167245   3.863   2.620   4.598  0.6878  0.4878 -1.7371
21771SOL    HW267246   3.740   2.543   4.554 -0.2366  1.6850 -1.2869
21772SOL     OW67247   4.373   3.338   2.009 -0.2452 -0.2909 -0.1976
21772SOL    HW167248   4.382   3.370   1.919  0.3681  1.6898  0.5209
21772SOL    HW267249   4.407   3.409   2.063 -0.2500 -1.5994  1.6000
21773SOL     OW67250   0.209   6.024   4.267 -0.2102 -0.5301 -0.7158
21773SOL    HW167251   0.159   6.013   4.348 -0.3730 -0.2474 -0.7808
21773SOL    HW267252   0.234   6.116   4.266 -1.2195 -0.2483 -1.5804
21774SOL     OW67253   2.709   5.286   3.593 -0.2054 -0.6289  0.3894
21774SOL    HW167254   2.690   5.229   3.519  0.8062  1.6089 -1.7076
21774SOL    HW267255   2.667   5.369   3.572  2.1674  0.8517  1.0656
21775SOL     OW67256   3.756   5.419   1.218 -0.1142  0.7046  0.4873
21775SOL    HW167257   3.718   5.433   1.131 -1.3506  0.3800  0.9538
21775SOL    HW267258   3.833   5.476   1.220 -0.2069  0.8984 -0.7301
21776SOL     OW67259   0.691   0.145   0.253  0.3592  0.6716 -0.5655
21776SOL    HW167260   0.660   0.176   0.168 -0.5800 -0.4460 -0.6510
21776SOL    HW267261   0.675   0.218   0.312  0.6829  1.3256 -1.2647
21777SOL     OW67262   0.336   1.490   7.271  0.2679 -0.3636 -0.2158
21777SOL    HW167263   0.326   1.576   7.311 -0.3701 -0.1461 -0.8156
21777SOL    HW267264   0.367   1.434   7.342  1.1420  0.4554  0.0733
21778SOL     OW67265   1.415   4.511   0.274  0.3945  0.1413  0.2114
21778SOL    HW167266   1.381   4.446   0.213  1.0703 -0.4200  0.4092
21778SOL    HW267267   1.504   4.481   0.294  0.0878  0.1225  1.7149
21779SOL     OW67268   6.994   3.123   3.657  0.5755 -0.2268 -0.0918
21779SOL    HW167269   6.922   3.071   3.693  0.3385 -0.2748 -0.6259
21779SOL    HW267270   7.073   3.084   3.694  0.5709 -2.3370 -2.1075
21780SOL     OW67271   6.618   7.088   5.112 -0.2835  0.3585  0.1852
21780SOL    HW167272   6.617   6.993   5.099  2.6605  0.3152 -0.2570
21780SOL    HW267273   6.544   7.119   5.060 -0.1432 -1.5274 -1.2536
21781SOL     OW67274   6.971   3.884   8.564  0.3703  0.1804 -0.1014
21781SOL    HW167275   7.020   3.802   8.572 -0.2785 -0.3064 -0.9351
21781SOL    HW267276   6.896   3.862   8.509 -0.4186  1.0747  0.5749
21782SOL     OW67277   0.854   5.660   0.550 -0.3666  0.6871 -0.0488
21782SOL    HW167278   0.834   5.671   0.643 -1.6720  0.4580 -0.2821
21782SOL    HW267279   0.782   5.607   0.516  1.4942 -1.6719 -0.6319
21783SOL     OW67280   6.177   2.192   4.271  0.7904  0.1559 -0.0413
21783SOL    HW167281   6.198   2.240   4.350  2.9783 -0.2360 -0.2974
21783SOL    HW267282   6.160   2.102   4.300 -0.7215  0.4960  0.1812
21784SOL     OW67283   5.726   0.398   8.199 -0.1502 -0.0850  0.3758
21784SOL    HW167284   5.794   0.365   8.258  0.2447  0.9283  0.5099
21784SOL    HW267285   5.773   0.451   8.135 -0.5023 -1.6678 -1.2699
21785SOL     OW67286   5.938   8.137   8.814  0.1859 -0.4048 -0.0950
21785SOL    HW167287   5.974   8.221   8.843 -0.8848  0.2935 -0.6935
21785SOL    HW267288   5.999   8.071   8.847 -0.3293  0.3874  2.7394
21786SOL     OW67289   7.958   7.750   7.187  0.1835 -0.0447 -0.0620
21786SOL    HW167290   7.971   7.773   7.279  0.7250 -1.3652  0.2110
21786SOL    HW267291   7.944   7.834   7.143  3.8207  1.0723  0.6004
21787SOL     OW67292   4.476   4.037   6.701 -0.3317 -0.0471  0.6074
21787SOL    HW167293   4.473   4.131   6.682 -0.0092  0.3496  2.3835
21787SOL    HW267294   4.447   4.029   6.792  1.8310 -1.4019  1.2662
21788SOL     OW67295   6.299   2.427   2.484  0.0895  0.7731 -0.0417
21788SOL    HW167296   6.336   2.485   2.550 -0.8795  2.2273 -0.7181
21788SOL    HW267297   6.244   2.484   2.430  0.3194 -0.4863 -1.6942
21789SOL     OW67298   1.651   8.201   8.160 -1.0481 -0.6663 -0.4192
21789SOL    HW167299   1.643   8.160   8.246  1.0292 -0.1371  0.0689
21789SOL    HW267300   1.745   8.213   8.147 -1.3908  0.6250 -2.1258
21790SOL     OW67301   7.371   1.151   3.142  0.2225  0.2920 -0.2555
21790SOL    HW167302   7.390   1.106   3.060  2.6186  2.0499 -0.7806
21790SOL    HW267303   7.419   1.102   3.208  1.2682  0.9143 -0.5260
21791SOL     OW67304   5.564   3.352   4.962  0.3876 -0.4748  0.4831
21791SOL    HW167305   5.638   3.303   4.927 -0.5551 -1.9027  0.4010
21791SOL    HW267306   5.497   3.285   4.978 -0.8658  0.7732  0.5825
21792SOL     OW67307   4.256   0.906   6.904 -0.6093 -0.2635  0.3314
21792SOL    HW167308   4.252   0.878   6.995 -0.7079  1.5437  0.9318
21792SOL    HW267309   4.309   0.987   6.906 -3.1763  1.5803 -0.6956
21793SOL     OW67310   4.352   4.772   4.005 -0.7856 -0.6222  0.2806
21793SOL    HW167311   4.367   4.866   4.021  1.5563 -0.7283 -0.8017
21793SOL    HW267312   4.274   4.769   3.951 -0.1402  0.8509 -0.8079
21794SOL     OW67313   3.770   3.072   1.403 -0.0196 -0.0819 -0.0142
21794SOL    HW167314   3.834   3.038   1.339 -0.6370  0.9065 -1.1876
21794SOL    HW267315   3.709   3.124   1.351  0.5959  2.4715  1.6177
21795SOL     OW67316   3.343   0.592   2.213 -0.1309 -0.2904 -0.0157
21795SOL    HW167317   3.388   0.562   2.134 -0.3499 -1.2917  0.2314
21795SOL    HW267318   3.253   0.559   2.204 -0.1166 -0.5373  0.7227
21796SOL     OW67319   3.173   8.689   7.056 -0.5231  0.1037  0.0564
21796SOL    HW167320   3.211   8.709   7.142  0.1136  1.6547 -0.5654
21796SOL    HW267321   3.160   8.774   7.015  0.3679 -0.6647 -1.9106
21797SOL     OW67322   6.113   8.076   5.929 -0.4254 -0.0644  0.3431
21797SOL    HW167323   6.115   8.038   5.841 -1.6241  1.8590 -0.5958
21797SOL    HW267324   6.160   8.159   5.920  0.1914 -0.2292  1.7546
21798SOL     OW67325   0.406   1.915   1.837 -0.2577 -0.0377 -0.1144
21798SOL    HW167326   0.329   1.879   1.881 -0.0217  0.2578  0.5582
21798SOL    HW267327   0.422   1.855   1.764 -0.3103 -0.8941  0.5543
21799SOL     OW67328   3.519   4.536   8.379 -0.3844 -0.6806  0.1707
21799SOL    HW167329   3.559   4.598   8.440 -1.5670  1.6152 -1.2646
21799SOL    HW267330   3.466   4.479   8.435  1.7053 -1.2806  1.6663
21800SOL     OW67331   5.250   6.372   1.890 -0.1885  0.0516  0.8305
21800SOL    HW167332   5.340   6.346   1.871 -0.3051 -1.3151  2.0253
21800SOL    HW267333   5.258   6.456   1.935  0.5396 -0.3539  1.4813
21801SOL     OW67334   7.253   5.264   1.536 -0.2448 -0.1661 -0.5395
21801SOL    HW167335   7.248   5.318   1.616  0.5092 -1.5803  0.5142
21801SOL    HW267336   7.245   5.327   1.464 -2.6722  0.9722  0.6181
21802SOL     OW67337   3.279   1.933   5.968  0.3502 -0.2613 -0.6876
21802SOL    HW167338   3.209   1.928   5.902 -2.0918 -1.5908  1.7954
21802SOL    HW267339   3.281   2.025   5.995  0.1444 -0.0594 -1.3382
21803SOL     OW67340   6.092   6.993   0.812 -0.7395  0.8331 -1.0941
21803SOL    HW167341   6.056   6.936   0.745 -1.4150 -0.5528  0.3892
21803SOL    HW267342   6.027   6.992   0.882  0.8500  0.6079  0.4449
21804SOL     OW67343   8.368   2.856   3.362  0.4457 -0.4762  0.1545
21804SOL    HW167344   8.341   2.832   3.273 -0.2179  1.2804 -0.1517
21804SOL    HW267345   8.294   2.830   3.417 -1.3395  2.7039 -0.4649
21805SOL     OW67346   1.315   7.887   2.285  0.2607 -0.3949  0.5620
21805SOL    HW167347   1.252   7.930   2.344  0.5411 -2.4981  2.5203
21805SOL    HW267348   1.314   7.941   2.206 -0.4829  2.3373  2.2969
21806SOL     OW67349   6.520   3.651   8.061 -0.2284 -0.2965  0.2153
21806SOL    HW167350   6.527   3.711   7.986  0.4449 -0.7854 -0.1209
21806SOL    HW267351   6.610   3.634   8.086 -0.3436 -2.1321 -0.4729
21807SOL     OW67352   1.979   2.203   2.636  0.0401 -0.1681  0.5117
21807SOL    HW167353   1.948   2.122   2.676 -0.1587 -0.5129 -0.3291
21807SOL    HW267354   1.946   2.200   2.546  2.2158 -0.4202 -0.3394
21808SOL     OW67355   4.020   7.507   3.897 -0.0560  0.1858  0.1291
21808SOL    HW167356   4.072   7.554   3.962  1.0446 -1.2337  0.3265
21808SOL    HW267357   3.931   7.540   3.909  0.3629  0.9174  1.4533
21809SOL     OW67358   3.564   2.191   2.464 -0.2839 -0.4317  0.0572
21809SOL    HW167359   3.543   2.153   2.378 -2.2302 -1.1512  0.8015
21809SOL    HW267360   3.521   2.276   2.464  1.4540  0.4975 -0.4126
21810SOL     OW67361   8.327   1.777   2.788  0.7929  0.0714 -0.9071
21810SOL    HW167362   8.264   1.842   2.759 -0.7760 -0.2038  1.6511
21810SOL    HW267363   8.301   1.697   2.743 -0.4347  0.0694 -0.2359
21811SOL     OW67364   1.923   7.436   0.801  0.3068  0.3122  0.2432
21811SOL    HW167365   1.963   7.410   0.884 -1.2036 -0.9685  0.6060
21811SOL    HW267366   1.838   7.393   0.800  0.9731 -1.2046 -2.7694
21812SOL     OW67367   6.827   5.351   0.907 -0.6497  0.1677  0.4077
21812SOL    HW167368   6.781   5.436   0.911  1.3147  1.2513  2.3865
21812SOL    HW267369   6.909   5.371   0.862 -0.9621 -1.1421 -0.7737
21813SOL     OW67370   6.899   7.597   4.207 -0.1766  0.4690  0.2222
21813SOL    HW167371   6.992   7.577   4.200 -0.1180  0.5202  0.8213
21813SOL    HW267372   6.894   7.692   4.202 -0.2200  0.4567 -0.0080
21814SOL     OW67373   1.971   1.173   8.112 -0.6923 -0.1674 -0.0278
21814SOL    HW167374   2.064   1.148   8.113 -0.8846 -1.2595 -2.4520
21814SOL    HW267375   1.953   1.194   8.021 -2.1326  3.0877  0.8452
21815SOL     OW67376   6.313   1.924   0.564  0.1174  0.6065 -0.2839
21815SOL    HW167377   6.281   1.860   0.628  0.3519  0.0738 -0.6920
21815SOL    HW267378   6.408   1.910   0.563 -0.0638 -1.1730 -2.5790
21816SOL     OW67379   6.613   8.702   4.952 -0.0572  0.6526  0.7761
21816SOL    HW167380   6.685   8.756   4.919  2.1814 -2.7862 -0.6066
21816SOL    HW267381   6.566   8.673   4.874 -2.2898  1.8743  1.5931
21817SOL     OW67382   4.798   0.622   0.999  0.0540  0.3789 -0.0182
21817SOL    HW167383   4.706   0.596   1.012  0.0284  0.3267 -0.2954
21817SOL    HW267384   4.821   0.668   1.079  0.1453 -0.6250  0.5478
21818SOL     OW67385   8.645   0.840   2.049 -0.5578 -0.0018  0.6069
21818SOL    HW167386   8.620   0.869   1.961 -0.5933 -0.0212  0.6110
21818SOL    HW267387   8.566   0.801   2.086 -0.0847 -1.5982 -0.0084
21819SOL     OW67388   1.624   3.739   7.045  0.0083 -0.5979 -0.1936
21819SOL    HW167389   1.691   3.670   7.043  1.2314  0.4457  1.4871
21819SOL    HW267390   1.664   3.809   7.096 -1.9270  0.5891 -0.2113
21820SOL     OW67391   8.432   7.474   1.205 -0.1143 -0.0888  0.0269
21820SOL    HW167392   8.425   7.538   1.276  0.8884 -0.3864  0.4109
21820SOL    HW267393   8.395   7.394   1.241 -1.7614  0.3510 -0.5962
21821SOL     OW67394   4.233   5.857   8.300  0.0421 -0.2708  0.0677
21821SOL    HW167395   4.196   5.915   8.233 -0.0464 -1.1419 -0.6524
21821SOL    HW267396   4.268   5.782   8.251 -0.8158 -1.3537  1.0539
21822SOL     OW67397   0.027   3.228   0.684  0.1348  0.6920  0.3499
21822SOL    HW167398   0.105   3.174   0.671 -1.1981 -0.9193 -1.4896
21822SOL    HW267399   0.056   3.317   0.667  1.2186 -0.0752 -2.1944
21823SOL     OW67400   2.274   7.519   3.789 -0.1444 -0.2290 -0.1614
21823SOL    HW167401   2.254   7.613   3.781  0.3194 -0.1952 -1.0476
21823SOL    HW267402   2.368   7.516   3.804 -0.5274 -0.4361  2.9817
21824SOL     OW67403   4.965   1.838   0.186  0.4310  0.0669  0.8597
21824SOL    HW167404   4.981   1.898   0.113 -1.2806  0.3743  0.6855
21824SOL    HW267405   4.949   1.895   0.261 -0.4548 -0.1611  0.8607
21825SOL     OW67406   7.205   4.129   5.207  0.0245 -0.0541 -0.0095
21825SOL    HW167407   7.207   4.034   5.214 -0.5757 -0.0169  0.7616
21825SOL    HW267408   7.233   4.147   5.117  2.1278 -0.8572  0.4080
21826SOL     OW67409   3.128   3.355   3.591 -0.1687 -0.2801 -0.2231
21826SOL    HW167410   3.151   3.418   3.659  0.7899 -0.6729 -0.1706
21826SOL    HW267411   3.051   3.310   3.626 -0.0503 -0.0580  0.3360
21827SOL     OW67412   5.494   6.212   2.453  0.2924 -0.1708  0.0617
21827SOL    HW167413   5.449   6.177   2.530  1.9808  0.4706  1.4033
21827SOL    HW267414   5.549   6.283   2.487  1.5360 -0.2535 -1.6445
21828SOL     OW67415   4.733   1.845   3.210 -0.1999 -0.4335  0.3457
21828SOL    HW167416   4.716   1.804   3.295  0.9243 -1.6141  0.0268
21828SOL    HW267417   4.647   1.848   3.167 -0.4063 -1.9641  0.6046
21829SOL     OW67418   0.144   1.288   3.901 -0.3123 -0.3262 -0.6090
21829SOL    HW167419   0.238   1.298   3.916 -0.0818  0.1029 -2.0911
21829SOL    HW267420   0.107   1.273   3.987  1.2483 -1.6030 -0.1047
21830SOL     OW67421   5.191   4.519   6.907  0.5133  0.0636 -0.9453
21830SOL    HW167422   5.205   4.476   6.823 -0.2617 -0.0766 -1.0146
21830SOL    HW267423   5.127   4.463   6.952 -1.4156  1.7129 -1.4951
21831SOL     OW67424   2.698   3.690   4.818  0.0945  0.1397  0.0617
21831SOL    HW167425   2.698   3.635   4.896  0.3985 -1.0652 -0.7574
21831SOL    HW267426   2.758   3.647   4.758  0.5382  1.5209 -0.5364
21832SOL     OW67427   7.834   8.675   1.416  0.7394  0.6761  0.0878
21832SOL    HW167428   7.799   8.679   1.327  1.7524  0.9393 -0.3119
21832SOL    HW267429   7.777   8.734   1.466  1.1053  1.7815 -0.7396
21833SOL     OW67430   8.101   8.039   6.813  0.1774 -0.2397 -0.1199
21833SOL    HW167431   8.025   7.981   6.810 -1.7037  1.8257  2.5717
21833SOL    HW267432   8.135   8.030   6.902  1.1797  1.1534 -0.3352
21834SOL     OW67433   5.562   3.058   2.020 -0.7331  0.8373  0.2125
21834SOL    HW167434   5.633   3.092   1.965  1.2323  0.0850  2.1075
21834SOL    HW267435   5.506   3.009   1.960  0.5587  1.1428 -1.3179
21835SOL     OW67436   2.872   6.368   1.522 -0.0066  0.0395 -0.0708
21835SOL    HW167437   2.955   6.405   1.493 -0.1481  0.4784  0.0691
21835SOL    HW267438   2.842   6.315   1.449  1.7375 -2.4321  0.8702
21836SOL     OW67439   7.545   1.309   1.492  0.1251  0.2170 -0.0920
21836SOL    HW167440   7.451   1.290   1.487  0.0636  0.8103 -1.9588
21836SOL    HW267441   7.570   1.283   1.581 -2.4524  3.0270  1.6536
21837SOL     OW67442   5.777   7.394   6.704 -0.2850 -0.1852 -0.0676
21837SOL    HW167443   5.754   7.349   6.785  2.0998  1.6561  1.8149
21837SOL    HW267444   5.839   7.336   6.660 -1.0497 -0.8814 -0.2488
21838SOL     OW67445   6.248   4.181   5.096 -0.1335 -0.6375  0.5247
21838SOL    HW167446   6.337   4.215   5.096 -0.8930  1.5646 -0.7955
21838SOL    HW267447   6.223   4.179   5.188  0.4288  1.1945  0.7533
21839SOL     OW67448   1.056   2.764   0.491  0.3482 -0.3645 -0.0054
21839SOL    HW167449   1.065   2.858   0.475 -1.1877  0.3359  2.7018
21839SOL    HW267450   1.136   2.726   0.455  0.4608  1.7610 -2.3129
21840SOL     OW67451   3.053   6.768   1.522  0.3053 -0.0081  0.5112
21840SOL    HW167452   3.065   6.856   1.487  0.5465  0.3527  1.4788
21840SOL    HW267453   3.080   6.774   1.614 -1.0138 -0.7560  0.9801
21841SOL     OW67454   0.545   5.458   7.255  0.3523 -0.3253  0.1678
21841SOL    HW167455   0.543   5.493   7.344  1.6267 -1.3922  0.6517
21841SOL    HW267456   0.620   5.502   7.214 -1.5264  1.8680 -1.1870
21842SOL     OW67457   2.183   1.486   2.410 -0.4417  0.3426  0.4795
21842SOL    HW167458   2.218   1.575   2.414 -1.0257  0.5652  0.9893
21842SOL    HW267459   2.130   1.479   2.490  0.9893 -1.0696  1.3575
21843SOL     OW67460   5.039   7.746   1.822  0.0969  0.3575  0.2930
21843SOL    HW167461   5.049   7.780   1.911  0.3681 -0.1380  0.4533
21843SOL    HW267462   5.125   7.711   1.799 -0.5041 -1.5443  0.6961
21844SOL     OW67463   0.823   3.836   7.993  0.7031 -0.6323  0.3093
21844SOL    HW167464   0.745   3.871   8.036 -0.0818 -1.6606 -0.2700
21844SOL    HW267465   0.811   3.741   7.994  0.2600 -0.7028 -2.8913
21845SOL     OW67466   0.309   8.635   7.869  0.0083 -0.6009 -0.1567
21845SOL    HW167467   0.244   8.613   7.935 -0.6734 -0.2825 -0.7082
21845SOL    HW267468   0.334   8.725   7.890 -0.0995 -0.5506 -0.2433
21846SOL     OW67469   5.764   6.120   1.177  0.7458  0.2766  0.4793
21846SOL    HW167470   5.687   6.154   1.132  0.5873 -2.0242 -1.1453
21846SOL    HW267471   5.754   6.150   1.267 -1.3321  1.1693  0.0114
21847SOL     OW67472   2.868   8.103   4.008 -0.7415 -0.0047 -0.2091
21847SOL    HW167473   2.830   8.191   4.002 -0.3098  0.3365  1.5394
21847SOL    HW267474   2.962   8.116   3.996 -0.7343 -0.3155 -0.5200
21848SOL     OW67475   5.022   2.341   7.880  0.5656  0.1216 -0.7943
21848SOL    HW167476   5.073   2.393   7.943  0.2177  1.0960 -1.2928
21848SOL    HW267477   4.949   2.307   7.930  0.8878 -0.0268 -0.4206
21849SOL     OW67478   2.892   7.626   6.112 -0.2752  0.0334 -0.2776
21849SOL    HW167479   2.879   7.533   6.132 -0.3076 -0.1999 -1.3290
21849SOL    HW267480   2.960   7.654   6.172 -1.4386 -0.2308  1.2223
21850SOL     OW67481   4.034   3.753   4.532 -0.2520 -0.0412  0.1625
21850SOL    HW167482   4.067   3.819   4.471 -1.1645  0.0701 -0.2253
21850SOL    HW267483   4.028   3.673   4.479  1.9067 -0.7466  0.9062
21851SOL     OW67484   3.047   0.707   5.861 -0.1698 -0.1569 -0.2034
21851SOL    HW167485   3.063   0.619   5.895  2.5632  0.4492  0.3459
21851SOL    HW267486   3.095   0.765   5.920 -0.1990  1.5004 -1.7132
21852SOL     OW67487   1.109   7.592   3.022  0.1823 -0.0978 -0.0559
21852SOL    HW167488   1.101   7.669   3.078  2.5761 -0.0983  0.3964
21852SOL    HW267489   1.021   7.579   2.986 -0.3056  2.7944 -0.1378
21853SOL     OW67490   0.424   2.795   3.080 -0.2483  0.0488 -0.0898
21853SOL    HW167491   0.505   2.779   3.128 -0.5025 -0.6976  0.0911
21853SOL    HW267492   0.423   2.728   3.012 -1.0065 -0.3156  0.2783
21854SOL     OW67493   4.671   6.883   6.211 -0.2544  0.4970  0.3332
21854SOL    HW167494   4.748   6.843   6.170 -0.4243  0.0350  0.4584
21854SOL    HW267495   4.645   6.820   6.279  0.3946  1.5382  1.5900
21855SOL     OW67496   8.836   1.891   0.660  0.6485 -0.3073 -0.0605
21855SOL    HW167497   8.862   1.807   0.697 -1.2166 -0.0129  2.1820
21855SOL    HW267498   8.768   1.869   0.596  0.3166 -0.5226  0.3651
21856SOL     OW67499   2.716   0.534   6.823  0.4444 -0.6174 -0.0767
21856SOL    HW167500   2.713   0.625   6.854  1.2413 -0.5914 -0.0583
21856SOL    HW267501   2.692   0.482   6.900  1.3139 -0.4891  0.2958
21857SOL     OW67502   7.362   4.673   5.594 -0.1706  0.0907 -0.4309
21857SOL    HW167503   7.323   4.760   5.581 -0.1045  0.2126  0.1765
21857SOL    HW267504   7.302   4.629   5.654  1.3696  0.8263  1.8016
21858SOL     OW67505   4.288   2.663   3.815  0.1683  0.2987 -0.8871
21858SOL    HW167506   4.270   2.598   3.883 -0.3053  0.0514 -1.2455
21858SOL    HW267507   4.248   2.743   3.848  1.4163  0.6211 -0.0842
21859SOL     OW67508   3.346   8.636   8.167  0.1766 -0.2101  0.2855
21859SOL    HW167509   3.266   8.584   8.168 -0.1816  0.3021 -0.5182
21859SOL    HW267510   3.369   8.647   8.260  0.8633 -2.6708  0.4758
21860SOL     OW67511   2.008   1.562   0.403 -0.0574  0.4341  0.3113
21860SOL    HW167512   2.074   1.587   0.467 -0.3838 -0.3873  0.9998
21860SOL    HW267513   2.047   1.488   0.356  0.9721  2.2383 -1.8153
21861SOL     OW67514   6.886   0.416   7.994  0.7665  0.1982 -0.3057
21861SOL    HW167515   6.897   0.442   8.086 -0.4877  0.8525 -0.3073
21861SOL    HW267516   6.949   0.345   7.981  0.4947 -0.3725  1.2659
21862SOL     OW67517   1.410   6.752   4.525 -0.4172  0.5375 -0.1135
21862SOL    HW167518   1.422   6.713   4.611  0.3932 -1.7066 -1.1608
21862SOL    HW267519   1.352   6.691   4.479  0.2553  0.9619 -1.5970
21863SOL     OW67520   6.590   7.128   1.339  0.0642 -0.2378 -0.0307
21863SOL    HW167521   6.597   7.092   1.428  1.7903  0.4569  0.1629
21863SOL    HW267522   6.583   7.052   1.282  2.1180 -0.8749  0.4885
21864SOL     OW67523   0.020   6.430   8.148 -0.1395 -0.1512 -0.0905
21864SOL    HW167524   0.056   6.389   8.227  1.4001 -0.2341 -0.7851
21864SOL    HW267525  -0.075   6.424   8.158  0.0296 -2.1297  0.7470
21865SOL     OW67526   7.276   6.509   6.367  0.0876 -0.7109 -0.1581
21865SOL    HW167527   7.285   6.528   6.460  0.2593 -3.3545  0.4336
21865SOL    HW267528   7.270   6.595   6.326  0.4135  0.5423  2.2301
21866SOL     OW67529   3.587   2.038   0.782  0.5988 -0.4968 -0.2062
21866SOL    HW167530   3.660   2.090   0.816 -0.5567 -0.6316  2.7537
21866SOL    HW267531   3.614   2.015   0.693  3.3334  0.9609  0.1296
21867SOL     OW67532   3.864   4.554   4.420  0.0226  0.1091 -0.2539
21867SOL    HW167533   3.782   4.603   4.414 -0.0317 -0.0723 -1.0722
21867SOL    HW267534   3.844   4.481   4.480 -0.1481  0.5773  0.2648
21868SOL     OW67535   7.954   8.730   0.383  0.0820  0.2709  0.0115
21868SOL    HW167536   7.931   8.721   0.475 -1.0841 -0.3459 -0.3189
21868SOL    HW267537   7.940   8.642   0.346 -0.7307  0.8133 -1.0113
21869SOL     OW67538   7.010   7.261   7.739 -0.3569 -0.2114 -0.5966
21869SOL    HW167539   7.074   7.322   7.702  0.4486 -1.0608 -0.6596
21869SOL    HW267540   7.062   7.202   7.794 -0.9696 -1.3362 -1.1797
21870SOL     OW67541   0.401   8.311   5.056  0.3054  0.4545 -0.3274
21870SOL    HW167542   0.462   8.298   4.984  0.1513 -0.0262 -0.3764
21870SOL    HW267543   0.391   8.224   5.095  0.3166  0.6913  0.2156
21871SOL     OW67544   2.698   2.803   0.087 -0.1436 -0.3121  0.0239
21871SOL    HW167545   2.737   2.758   0.012  0.0389 -0.7359  0.3675
21871SOL    HW267546   2.624   2.852   0.050  1.4247  1.5088 -0.8270
21872SOL     OW67547   3.294   3.674   3.268 -0.4873 -0.1160 -0.3009
21872SOL    HW167548   3.349   3.747   3.238 -2.2697  1.3455 -0.2001
21872SOL    HW267549   3.348   3.597   3.255  2.0128  1.3251  0.8281
21873SOL     OW67550   4.836   3.855   4.166 -0.2977 -0.6130  0.0975
21873SOL    HW167551   4.782   3.926   4.203 -0.8638 -0.2442 -1.3690
21873SOL    HW267552   4.773   3.790   4.137  0.2099 -1.5611  1.0581
21874SOL     OW67553   3.305   5.161   1.372  0.3433  0.4535 -0.5886
21874SOL    HW167554   3.374   5.164   1.305  1.6701  2.5459  0.7583
21874SOL    HW267555   3.319   5.240   1.424 -1.1740 -0.6530  1.6398
21875SOL     OW67556   3.585   3.423   7.197 -0.4565  0.4405 -0.3026
21875SOL    HW167557   3.681   3.421   7.196 -0.4507 -0.8997 -1.9947
21875SOL    HW267558   3.561   3.456   7.110 -1.5263  0.3508 -0.0552
21876SOL     OW67559   0.952   8.779   4.573 -0.0110 -0.2289 -0.5586
21876SOL    HW167560   0.925   8.816   4.489 -0.1897  0.6292 -0.1294
21876SOL    HW267561   0.882   8.803   4.633 -0.6037 -2.0653 -0.4452
21877SOL     OW67562   4.166   8.427   5.226  0.2585  0.0570 -0.1771
21877SOL    HW167563   4.103   8.468   5.167  1.2271  0.2310 -1.1209
21877SOL    HW267564   4.139   8.335   5.228  0.0680  0.0965 -0.6986
21878SOL     OW67565   1.530   6.166   1.096  1.0477 -0.3336 -0.2860
21878SOL    HW167566   1.446   6.159   1.051  0.2328  0.8316  0.9663
21878SOL    HW267567   1.563   6.252   1.073  0.4041  0.4739  1.5751
21879SOL     OW67568   8.781   0.594   2.611  0.1876  0.4202  0.4067
21879SOL    HW167569   8.712   0.659   2.600 -1.5168 -1.1561  1.2161
21879SOL    HW267570   8.769   0.533   2.538 -0.6441 -0.9898  1.6665
21880SOL     OW67571   5.765   8.288   7.673  0.1062  0.0608 -0.4871
21880SOL    HW167572   5.687   8.342   7.681  1.7159  2.4424  0.1896
21880SOL    HW267573   5.811   8.322   7.597  1.9271  0.7613  0.8633
21881SOL     OW67574   8.368   3.924   0.762  0.2876  0.0845  0.5634
21881SOL    HW167575   8.356   4.016   0.738 -0.7467 -0.3991 -0.9993
21881SOL    HW267576   8.298   3.906   0.825 -0.7612 -0.0871 -0.6082
21882SOL     OW67577   6.522   4.314   3.043  0.1613 -0.0343  0.2193
21882SOL    HW167578   6.538   4.324   3.137 -1.8721  0.5171  0.5398
21882SOL    HW267579   6.427   4.317   3.034  0.3426  0.9229 -1.9742
21883SOL     OW67580   0.961   2.428   0.661  0.7685  0.0938  0.5445
21883SOL    HW167581   0.895   2.359   0.662  1.5954 -0.7526 -0.4608
21883SOL    HW267582   0.938   2.485   0.735 -1.7074  0.4659 -0.4215
21884SOL     OW67583   5.463   5.070   4.465  0.2582 -0.2024  0.0348
21884SOL    HW167584   5.490   5.013   4.393  1.8892  0.6839 -0.0994
21884SOL    HW267585   5.543   5.114   4.493 -0.8552  1.7802  0.3472
21885SOL     OW67586   5.217   8.742   2.854 -0.5800  0.6156 -0.3331
21885SOL    HW167587   5.284   8.791   2.805  1.8426  0.0757  2.2000
21885SOL    HW267588   5.225   8.652   2.822 -0.8894  0.7689 -0.8396
21886SOL     OW67589   0.074   8.303   0.165  0.9002  0.0347 -0.6527
21886SOL    HW167590   0.095   8.221   0.210 -2.0890 -0.5702 -0.1669
21886SOL    HW267591   0.028   8.275   0.086  0.4049  1.2450 -0.8091
21887SOL     OW67592   1.368   3.948   5.532  0.2683  0.0390  0.5251
21887SOL    HW167593   1.427   3.955   5.607  0.8821 -0.0017  0.0504
21887SOL    HW267594   1.352   3.854   5.523  0.1077  0.0521  0.6693
21888SOL     OW67595   4.779   0.973   5.781 -0.3062  0.1275  0.0437
21888SOL    HW167596   4.866   0.950   5.813  0.4041  0.4935 -1.5361
21888SOL    HW267597   4.748   1.040   5.842  1.5713  1.8124 -0.7103
21889SOL     OW67598   1.895   8.054   3.590  0.1719  0.2554  0.7681
21889SOL    HW167599   1.898   8.149   3.580 -1.2048  0.3492  1.0953
21889SOL    HW267600   1.814   8.028   3.547  1.2117 -0.9517 -0.5355
21890SOL     OW67601   7.330   8.745   7.972 -0.2211  0.3418 -0.2339
21890SOL    HW167602   7.409   8.718   7.925  0.3702  1.1566  0.2614
21890SOL    HW267603   7.335   8.698   8.055  0.2090  1.0533  0.1544
21891SOL     OW67604   2.838   7.554   1.498 -0.6752 -0.1838  0.8963
21891SOL    HW167605   2.851   7.522   1.587 -0.7698 -0.1297  0.9296
21891SOL    HW267606   2.764   7.614   1.505 -1.1777 -0.7693  0.6399
21892SOL     OW67607   3.734   8.281   0.595  0.3564  0.3345 -0.1441
21892SOL    HW167608   3.787   8.279   0.515 -0.2700  1.0933 -0.5964
21892SOL    HW267609   3.780   8.342   0.652  0.6899 -0.0430 -0.0039
21893SOL     OW67610   1.991   5.246   4.127 -0.0653  0.2578  0.3416
21893SOL    HW167611   1.925   5.272   4.190 -0.0181 -0.2675  0.6157
21893SOL    HW267612   1.943   5.195   4.061 -0.0164  0.2811  0.2879
21894SOL     OW67613   8.079   6.192   1.059  0.3663 -0.3569 -0.5043
21894SOL    HW167614   8.106   6.244   1.134 -0.8348  0.3034 -0.5046
21894SOL    HW267615   8.011   6.133   1.093 -0.6752  0.4199 -1.1925
21895SOL     OW67616   0.194   2.200   3.970 -0.3362  0.6452  0.3029
21895SOL    HW167617   0.104   2.179   3.996  0.3256 -0.2518  1.9662
21895SOL    HW267618   0.249   2.155   4.033  1.3070  1.3500 -0.5635
21896SOL     OW67619   8.752   1.889   8.746 -0.0840  0.3057 -0.9973
21896SOL    HW167620   8.824   1.921   8.691 -0.4839  0.0809 -1.6727
21896SOL    HW267621   8.795   1.844   8.819  0.4890  2.3659 -0.0140
21897SOL     OW67622   2.698   5.091   0.459  0.3076 -0.3572  0.0020
21897SOL    HW167623   2.663   5.038   0.388  0.9257 -0.4866 -0.2154
21897SOL    HW267624   2.764   5.147   0.417  0.7207 -0.4779  0.4772
21898SOL     OW67625   6.268   1.028   6.763 -0.2512  0.4764 -0.2978
21898SOL    HW167626   6.201   1.081   6.805  0.5952  0.6996  0.8095
21898SOL    HW267627   6.221   0.978   6.696 -1.6705 -0.0378  1.0347
21899SOL     OW67628   7.725   1.693   2.403 -0.0977 -0.7758  0.2105
21899SOL    HW167629   7.682   1.643   2.472  0.1179  0.2014  1.0706
21899SOL    HW267630   7.706   1.644   2.323 -1.8958 -0.9452  0.6978
21900SOL     OW67631   5.456   6.373   1.707  0.9709  0.0036  0.0884
21900SOL    HW167632   5.504   6.455   1.721  1.0928 -0.1402  0.5570
21900SOL    HW267633   5.518   6.305   1.735  0.0152 -0.1175  2.0962
21901SOL     OW67634   5.864   4.742   7.682 -0.6268 -1.0537  0.0933
21901SOL    HW167635   5.852   4.837   7.682 -2.6977 -1.1816 -2.9649
21901SOL    HW267636   5.861   4.718   7.775 -2.4390  1.6208  0.8535
21902SOL     OW67637   0.442   6.321   5.141  0.2697  0.1748  0.5039
21902SOL    HW167638   0.386   6.244   5.143  0.5753 -0.0429  1.1311
21902SOL    HW267639   0.441   6.353   5.231 -1.9863  2.4744 -0.2317
21903SOL     OW67640   1.956   6.156   6.910 -0.0754 -0.2076  0.0181
21903SOL    HW167641   1.969   6.094   6.982 -1.0164 -1.5603 -0.9375
21903SOL    HW267642   1.862   6.178   6.914 -0.1378 -0.2956 -0.7853
21904SOL     OW67643   6.104   8.062   0.445 -0.4440 -0.1332  0.5259
21904SOL    HW167644   6.159   8.083   0.521  0.3063 -2.6174  0.7406
21904SOL    HW267645   6.018   8.041   0.482  0.2330 -2.5239  0.9070
21905SOL     OW67646   6.076   7.907   7.146 -0.5858 -0.0624  0.4402
21905SOL    HW167647   6.066   7.847   7.073 -0.4256 -0.2667  0.5835
21905SOL    HW267648   6.101   7.991   7.106  1.8326 -0.7244  0.3710
21906SOL     OW67649   6.608   1.589   7.930  0.0757 -0.0570  0.4430
21906SOL    HW167650   6.661   1.534   7.872  1.3426  0.7332  0.8257
21906SOL    HW267651   6.518   1.571   7.903  0.6180  0.3966 -1.9074
21907SOL     OW67652   5.824   8.279   3.784 -0.4997  0.2476 -0.1761
21907SOL    HW167653   5.862   8.366   3.773 -0.3918 -0.0103 -2.4124
21907SOL    HW267654   5.863   8.246   3.865  2.2567  0.9343 -1.0936
21908SOL     OW67655   4.090   3.348   1.111 -0.3283  0.0186 -0.3219
21908SOL    HW167656   4.120   3.261   1.139  1.0320  0.6107  0.1640
21908SOL    HW267657   4.065   3.337   1.020  0.7270 -0.6991 -0.5473
21909SOL     OW67658   4.832   5.990   3.672 -0.4995 -0.1598  0.0279
21909SOL    HW167659   4.783   6.037   3.740  0.1000  0.7634 -0.1651
21909SOL    HW267660   4.911   6.042   3.659 -1.1837  0.4226 -2.3122
21910SOL     OW67661   8.454   8.820   2.660 -0.4598 -0.5002  0.0104
21910SOL    HW167662   8.433   8.780   2.576  0.4834  0.0213 -0.4941
21910SOL    HW267663   8.374   8.866   2.685 -0.5283 -0.0705 -0.9533
21911SOL     OW67664   2.476   6.366   1.119 -0.0397 -0.4098 -0.1122
21911SOL    HW167665   2.418   6.359   1.044  1.6043 -2.8347 -1.2950
21911SOL    HW267666   2.464   6.456   1.151 -2.4008  0.0007 -1.8738
21912SOL     OW67667   8.705   8.314   7.947 -0.4274  0.3190 -0.5749
21912SOL    HW167668   8.698   8.250   7.876 -0.9523 -0.0429 -0.2032
21912SOL    HW267669   8.641   8.285   8.012 -1.8047  2.0741 -1.0631
21913SOL     OW67670   7.392   1.448   1.731  0.2748  0.1665  0.4843
21913SOL    HW167671   7.399   1.417   1.821  1.4660  2.5900  1.3416
21913SOL    HW267672   7.419   1.540   1.736 -0.3071  0.5696 -2.2465
21914SOL     OW67673   2.337   8.477   6.287 -0.0959 -0.5513 -0.2787
21914SOL    HW167674   2.302   8.562   6.313 -1.4096 -0.9881 -0.5337
21914SOL    HW267675   2.353   8.486   6.193 -3.4962 -1.5516 -1.1100
21915SOL     OW67676   7.863   6.394   7.930  0.4081 -0.1880  0.2499
21915SOL    HW167677   7.796   6.430   7.871  0.0389  0.3957  1.0137
21915SOL    HW267678   7.943   6.441   7.906  0.5057 -0.7433 -0.5299
21916SOL     OW67679   5.487   4.002   7.063  0.2078 -0.4570 -0.2441
21916SOL    HW167680   5.534   4.055   6.998 -0.0324 -0.9694 -0.8499
21916SOL    HW267681   5.411   4.055   7.087  0.6667  0.0389  0.1581
21917SOL     OW67682   0.025   2.518   8.675  0.2518 -0.0497 -0.2182
21917SOL    HW167683   0.080   2.580   8.723  0.9822 -0.1438 -0.8990
21917SOL    HW267684   0.077   2.437   8.674 -0.3402 -0.4370 -0.0212
21918SOL     OW67685   0.025   5.729   4.686  0.5695 -0.1816  0.4610
21918SOL    HW167686   0.049   5.749   4.596 -0.5197 -2.1696 -0.3525
21918SOL    HW267687  -0.061   5.687   4.679  0.6526 -0.7731  2.3639
21919SOL     OW67688   2.511   1.128   4.044  0.0660 -0.1515  0.3941
21919SOL    HW167689   2.588   1.134   4.101 -0.2935 -1.3983  1.0579
21919SOL    HW267690   2.539   1.075   3.970  0.2995  0.7810 -0.1968
21920SOL     OW67691   0.447   2.513   3.753  0.6334 -0.6585 -0.0076
21920SOL    HW167692   0.405   2.589   3.712  0.0355 -1.9738 -1.9881
21920SOL    HW267693   0.522   2.494   3.697  0.1201 -2.1789 -0.2298
21921SOL     OW67694   5.634   6.419   2.606 -0.4146  0.1334 -0.1458
21921SOL    HW167695   5.690   6.477   2.657 -2.4873  0.9146  1.4015
21921SOL    HW267696   5.556   6.472   2.588 -1.2227 -1.3189 -1.0615
21922SOL     OW67697   3.437   3.535   7.412 -0.2055  0.1787  0.5457
21922SOL    HW167698   3.482   3.598   7.469 -1.5713  1.8167 -0.0814
21922SOL    HW267699   3.503   3.511   7.346  0.3147  1.0761  0.7163
21923SOL     OW67700   7.605   1.795   6.115  0.7166  0.4757  0.1199
21923SOL    HW167701   7.558   1.714   6.136  1.3971  0.0896  0.1916
21923SOL    HW267702   7.609   1.796   6.019  2.0175 -0.3644  0.1402
21924SOL     OW67703   1.692   0.498   7.189  0.4434 -0.4522 -0.0197
21924SOL    HW167704   1.756   0.474   7.256  1.1298  0.3636 -0.3582
21924SOL    HW267705   1.652   0.579   7.221 -0.2870 -0.8537  0.0960
21925SOL     OW67706   3.859   8.001   7.415  0.4391 -0.2964 -0.1477
21925SOL    HW167707   3.806   8.076   7.387 -0.2274 -0.6026  0.2621
21925SOL    HW267708   3.874   8.016   7.509  0.5527 -0.5271 -0.1285
21926SOL     OW67709   5.604   1.016   8.236 -0.4800  0.0571  0.3346
21926SOL    HW167710   5.660   0.982   8.305 -1.2648  0.4773  1.1972
21926SOL    HW267711   5.635   0.972   8.156 -0.7259 -1.8045  1.2185
21927SOL     OW67712   0.065   7.964   3.168  0.3346 -0.0438  0.3688
21927SOL    HW167713   0.072   8.055   3.141 -1.5595  0.2860  0.8399
21927SOL    HW267714   0.042   7.917   3.088  0.2222  0.0721  0.3325
21928SOL     OW67715   6.582   8.734   2.080 -0.6785  0.2078  0.1326
21928SOL    HW167716   6.528   8.793   2.027 -0.8380  0.2221  0.3132
21928SOL    HW267717   6.564   8.647   2.044 -2.2613 -0.0235  1.4000
21929SOL     OW67718   5.378   0.926   5.216 -0.3692 -0.6543 -0.0205
21929SOL    HW167719   5.436   1.001   5.219 -0.1569 -0.8431  0.9323
21929SOL    HW267720   5.377   0.893   5.306  1.2858 -3.1245 -0.8080
21930SOL     OW67721   1.690   1.305   4.422 -0.0072 -0.6087 -0.0957
21930SOL    HW167722   1.596   1.321   4.417  0.1635  0.4702 -0.1796
21930SOL    HW267723   1.698   1.218   4.460 -1.0308  0.1520  1.9975
21931SOL     OW67724   0.835   3.688   0.745 -0.2464 -0.0760  0.3162
21931SOL    HW167725   0.916   3.720   0.785 -0.2087 -0.1129  0.2689
21931SOL    HW267726   0.829   3.733   0.661 -0.1476 -0.2590  0.2097
21932SOL     OW67727   6.206   4.406   1.186 -0.3961  0.4322 -0.2763
21932SOL    HW167728   6.270   4.454   1.134 -1.1051  0.3531 -1.2401
21932SOL    HW267729   6.204   4.319   1.147 -1.4787  0.5930 -0.5946
21933SOL     OW67730   8.061   6.959   5.820 -0.3416 -0.0535 -0.5419
21933SOL    HW167731   8.073   7.045   5.782  0.6907 -0.2976 -0.7975
21933SOL    HW267732   8.013   6.975   5.901  0.5233  0.8558 -0.1883
21934SOL     OW67733   4.627   0.855   3.264 -0.3678 -0.3272 -0.4650
21934SOL    HW167734   4.569   0.878   3.337  0.9199 -0.7120  0.7316
21934SOL    HW267735   4.627   0.933   3.208  0.2357  0.8479  1.0631
21935SOL     OW67736   5.619   4.057   3.580  0.2717 -0.6406  0.5228
21935SOL    HW167737   5.548   3.993   3.572  0.8754 -1.1911 -0.8372
21935SOL    HW267738   5.575   4.142   3.581 -0.4144 -0.9424 -0.8840
21936SOL     OW67739   5.902   1.485   0.481  0.3052 -0.1681 -0.5629
21936SOL    HW167740   5.909   1.400   0.439  1.4520  0.3813 -1.5448
21936SOL    HW267741   5.990   1.502   0.515 -0.3645 -0.1991  1.3356
21937SOL     OW67742   7.930   7.781   5.304 -0.7930  0.0159  0.1483
21937SOL    HW167743   7.950   7.837   5.229  0.1121  1.4391  1.3906
21937SOL    HW267744   7.860   7.827   5.350 -0.9798 -0.5835  0.4760
21938SOL     OW67745   4.067   0.278   0.672 -0.0513  0.2430 -0.1054
21938SOL    HW167746   4.060   0.230   0.755  3.4159 -0.4684 -0.0884
21938SOL    HW267747   4.103   0.363   0.697  0.4580  0.2387 -0.8133
21939SOL     OW67748   7.885   2.880   2.517 -0.0544 -0.7646 -0.2052
21939SOL    HW167749   7.892   2.827   2.596  0.6562 -0.6046 -0.1540
21939SOL    HW267750   7.791   2.890   2.503 -0.2480  1.0535  1.8862
21940SOL     OW67751   3.352   0.444   8.725 -0.1310 -0.3298 -0.2429
21940SOL    HW167752   3.345   0.520   8.667 -0.2935 -1.3940 -1.6781
21940SOL    HW267753   3.414   0.472   8.793 -0.1587  1.0642 -0.7425
21941SOL     OW67754   4.378   0.665   0.727  0.3737 -0.0002 -0.0912
21941SOL    HW167755   4.348   0.753   0.750 -0.6033 -0.0640 -1.0266
21941SOL    HW267756   4.458   0.680   0.676 -1.2075  0.5817 -2.6059
21942SOL     OW67757   7.693   5.311   0.420  0.2982 -0.3091  0.0673
21942SOL    HW167758   7.719   5.313   0.512  0.1820 -1.5060  0.1363
21942SOL    HW267759   7.598   5.300   0.422  0.4662 -2.0140 -0.1746
21943SOL     OW67760   2.365   2.956   5.104 -0.5342  0.1871 -0.2318
21943SOL    HW167761   2.423   2.989   5.174 -0.3009  0.5837 -0.6085
21943SOL    HW267762   2.343   2.867   5.132 -2.4964  1.1707  1.6455
21944SOL     OW67763   5.333   6.704   3.424 -0.0484  0.4078 -0.4350
21944SOL    HW167764   5.362   6.745   3.343  3.1221 -0.7320 -0.0017
21944SOL    HW267765   5.378   6.752   3.494 -0.6083 -0.3412  0.4760
21945SOL     OW67766   3.807   4.298   0.220  0.5941  0.3668  0.0762
21945SOL    HW167767   3.835   4.225   0.165  0.0845  0.8126 -0.7997
21945SOL    HW267768   3.711   4.294   0.218  0.5667  0.8394  0.3158
21946SOL     OW67769   8.746   8.218   2.418  0.1314 -0.4674  0.1669
21946SOL    HW167770   8.702   8.279   2.477  1.7981  0.6709  0.2989
21946SOL    HW267771   8.698   8.136   2.428 -1.1094  0.3498  1.2781
21947SOL     OW67772   7.280   8.463   4.428 -0.1944  0.1775 -0.0196
21947SOL    HW167773   7.211   8.513   4.383  0.3900  1.4790  0.5026
21947SOL    HW267774   7.236   8.383   4.456 -0.7304 -0.4690 -2.4161
21948SOL     OW67775   4.092   3.928   0.732  0.3755 -0.0958 -0.3678
21948SOL    HW167776   4.149   3.854   0.713  0.0741 -0.5603  0.4944
21948SOL    HW267777   4.144   4.005   0.709  0.7012 -0.5681 -1.2300
21949SOL     OW67778   5.209   5.829   4.839 -0.3452 -0.8319 -0.1982
21949SOL    HW167779   5.256   5.750   4.813  0.0833 -0.3739 -0.8892
21949SOL    HW267780   5.278   5.888   4.870 -0.7119 -0.8912  0.7624
21950SOL     OW67781   5.728   0.330   2.703  0.4475 -0.0369 -0.4765
21950SOL    HW167782   5.708   0.408   2.652  0.4841 -0.6624 -1.4656
21950SOL    HW267783   5.746   0.363   2.791 -1.8287  0.8572 -0.2879
21951SOL     OW67784   4.425   5.352   4.276  0.3224  0.3043  0.2755
21951SOL    HW167785   4.477   5.317   4.204 -1.6512  0.5888 -1.3789
21951SOL    HW267786   4.444   5.446   4.275  1.0002  0.1838  0.7716
21952SOL     OW67787   0.544   4.199   3.498  0.0515  0.1691 -0.5532
21952SOL    HW167788   0.585   4.113   3.512  1.1282  0.7666  0.1768
21952SOL    HW267789   0.450   4.182   3.500  0.2520 -1.0210 -0.5985
21953SOL     OW67790   0.532   0.835   7.355  0.1093 -0.0134  0.0384
21953SOL    HW167791   0.479   0.904   7.394  1.5204  1.4116 -0.4656
21953SOL    HW267792   0.518   0.759   7.411 -2.0583  0.4304  0.1917
21954SOL     OW67793   6.082   8.005   7.459  0.0597 -0.1395  0.4644
21954SOL    HW167794   6.099   8.006   7.554 -1.3023 -0.0855  0.7178
21954SOL    HW267795   6.159   8.048   7.421  1.4666 -1.6952  1.3873
21955SOL     OW67796   0.540   4.571   6.947  0.0563  0.0885 -0.5201
21955SOL    HW167797   0.574   4.543   7.032  0.8626 -1.0286 -1.1832
21955SOL    HW267798   0.512   4.661   6.961  1.4553  0.3892  0.5876
21956SOL     OW67799   2.124   1.989   8.530  0.0210  0.1829  0.3013
21956SOL    HW167800   2.065   2.064   8.529  0.8321  0.8565  1.2296
21956SOL    HW267801   2.201   2.019   8.579 -0.0705 -1.5563  1.6345
21957SOL     OW67802   7.117   7.075   5.742  0.9295 -0.0430 -0.2701
21957SOL    HW167803   7.024   7.058   5.756  1.5051 -1.7584  2.0032
21957SOL    HW267804   7.134   7.158   5.785  1.0201 -1.3032  2.2877
21958SOL     OW67805   4.161   3.019   1.984  0.2507  0.0008  0.0328
21958SOL    HW167806   4.069   3.019   2.013  0.6095  0.9210  1.2327
21958SOL    HW267807   4.194   3.105   2.008  1.2242 -0.0239 -1.1281
21959SOL     OW67808   4.633   4.507   4.180  0.3645  0.1224 -0.2554
21959SOL    HW167809   4.704   4.539   4.124  0.1113  0.5517 -0.3426
21959SOL    HW267810   4.673   4.495   4.266  0.9180 -1.1975 -0.6728
21960SOL     OW67811   6.339   4.558   2.440  0.1384 -0.2039 -0.0706
21960SOL    HW167812   6.309   4.474   2.405  1.1173 -0.1702 -1.0654
21960SOL    HW267813   6.258   4.604   2.463 -0.4000 -1.6184  1.0352
21961SOL     OW67814   7.598   3.040   6.904 -0.3801 -0.2686  0.4490
21961SOL    HW167815   7.665   3.013   6.966  0.4768  0.8866  0.0493
21961SOL    HW267816   7.616   2.989   6.825  0.0845  0.1123  0.3100
21962SOL     OW67817   6.519   2.451   0.515 -0.3303 -0.2669 -0.4739
21962SOL    HW167818   6.580   2.379   0.533 -0.5861 -0.7719 -1.5327
21962SOL    HW267819   6.532   2.469   0.422  0.5670  1.8671  0.0169
21963SOL     OW67820   2.710   3.318   6.424 -0.1094 -0.2361  0.2143
21963SOL    HW167821   2.624   3.340   6.461 -0.4910 -1.1437 -0.1099
21963SOL    HW267822   2.691   3.254   6.356  0.7596  0.1461 -0.4031
21964SOL     OW67823   8.302   2.057   3.422  0.1126  0.0471  0.3471
21964SOL    HW167824   8.232   1.994   3.439  1.5890 -1.5076  0.9919
21964SOL    HW267825   8.381   2.003   3.415  1.2666  1.7416 -0.2892
21965SOL     OW67826   2.762   2.554   5.649 -0.1126  0.5704 -0.0512
21965SOL    HW167827   2.679   2.512   5.629 -0.6206  1.5265  0.0057
21965SOL    HW267828   2.810   2.554   5.566 -0.7051  1.1792 -0.4029
21966SOL     OW67829   5.100   3.531   8.324 -0.6252  0.3864  0.2740
21966SOL    HW167830   5.009   3.520   8.353 -0.0512 -0.7315  1.7798
21966SOL    HW267831   5.121   3.622   8.348 -0.6016 -0.0905  2.2389
21967SOL     OW67832   3.703   6.446   7.440  0.0373  0.3440  0.1254
21967SOL    HW167833   3.742   6.528   7.471 -0.2084 -0.4191  2.6865
21967SOL    HW267834   3.770   6.380   7.457 -0.9844 -0.4499  1.2612
21968SOL     OW67835   5.086   4.597   2.528 -0.2565  0.1897 -0.4380
21968SOL    HW167836   5.175   4.633   2.537 -0.6567  1.5832 -1.6379
21968SOL    HW267837   5.092   4.538   2.453 -0.4020  0.5376 -0.7278
21969SOL     OW67838   5.543   2.366   2.639  0.2557  0.0956 -0.2793
21969SOL    HW167839   5.561   2.425   2.713 -1.2118  0.6379 -0.3204
21969SOL    HW267840   5.501   2.290   2.678  0.9520 -0.3654 -0.3913
21970SOL     OW67841   3.458   2.488   5.686  0.5535 -0.2948 -0.6560
21970SOL    HW167842   3.387   2.521   5.741 -0.1685 -0.2976 -1.5649
21970SOL    HW267843   3.418   2.416   5.637  1.7446 -1.6915  0.3299
21971SOL     OW67844   2.601   8.117   3.269 -0.3756  0.0847  0.3625
21971SOL    HW167845   2.653   8.146   3.193  0.2429 -0.1585  0.6820
21971SOL    HW267846   2.552   8.195   3.295  1.5966  1.0409  1.4756
21972SOL     OW67847   2.374   1.234   3.751 -0.0707  0.0053 -0.3382
21972SOL    HW167848   2.402   1.259   3.839 -0.8679 -1.5246  0.3890
21972SOL    HW267849   2.444   1.178   3.718  0.4787  0.9989 -0.9248
21973SOL     OW67850   0.060   2.628   5.530  0.0032  0.5281  0.2397
21973SOL    HW167851  -0.003   2.571   5.575  0.0129 -0.0508 -0.4600
21973SOL    HW267852   0.041   2.616   5.437  0.9668  0.5462  0.0289
21974SOL     OW67853   0.452   0.715   4.103 -0.3981  0.7602  0.1549
21974SOL    HW167854   0.446   0.755   4.190 -1.4332 -0.9142  0.9033
21974SOL    HW267855   0.363   0.686   4.084  0.0978 -0.1699 -0.8403
21975SOL     OW67856   4.541   4.073   1.021 -0.1454  0.2598 -0.1539
21975SOL    HW167857   4.580   3.992   1.053 -1.6034 -0.5474 -0.3341
21975SOL    HW267858   4.611   4.116   0.972  0.3275 -1.4741 -1.0757
21976SOL     OW67859   2.032   3.245   2.009 -0.0563  0.7049 -0.1979
21976SOL    HW167860   2.044   3.243   1.914 -1.4948 -1.0139 -0.3831
21976SOL    HW267861   2.121   3.239   2.044  0.4765  1.0986 -1.4242
21977SOL     OW67862   4.269   8.339   2.846  0.4453  1.0923  0.3109
21977SOL    HW167863   4.269   8.259   2.795  0.8455  1.5884 -0.4891
21977SOL    HW267864   4.325   8.320   2.921 -2.0353 -0.4271  1.8954
21978SOL     OW67865   4.728   5.595   1.995 -0.0617 -0.1359 -0.2328
21978SOL    HW167866   4.737   5.560   2.084 -0.1652 -0.2740 -0.2751
21978SOL    HW267867   4.673   5.530   1.950  0.1549 -0.1684 -0.4533
21979SOL     OW67868   1.073   2.679   4.246  0.4765  0.1510 -0.2451
21979SOL    HW167869   1.105   2.646   4.330  1.4075  0.8691 -0.2988
21979SOL    HW267870   0.979   2.661   4.247  0.2845  1.0505  1.3911
21980SOL     OW67871   5.302   5.836   2.546  0.0550 -0.1095  0.2397
21980SOL    HW167872   5.316   5.767   2.611  2.8180  0.5734  0.4795
21980SOL    HW267873   5.316   5.792   2.462 -0.3803 -0.2985  0.2620
21981SOL     OW67874   2.953   7.189   6.550  0.3288  0.1777  0.2337
21981SOL    HW167875   2.906   7.243   6.614  0.5471  2.3144 -1.2714
21981SOL    HW267876   3.042   7.183   6.585 -0.2528 -1.2681  1.5688
21982SOL     OW67877   1.731   4.931   0.370  0.2624  0.3943  0.4247
21982SOL    HW167878   1.787   5.009   0.369  1.1609 -0.2315  0.1046
21982SOL    HW267879   1.758   4.882   0.293 -0.8457  0.1377  0.1968
21983SOL     OW67880   3.521   4.283   0.790 -0.2081  0.3320  0.2208
21983SOL    HW167881   3.563   4.362   0.755 -1.5608  1.7839  1.6865
21983SOL    HW267882   3.514   4.299   0.884  0.9999 -2.3211  0.8559
21984SOL     OW67883   4.219   0.309   0.214 -0.4577  0.3140 -0.3330
21984SOL    HW167884   4.147   0.332   0.156  0.1919 -1.7967 -2.1150
21984SOL    HW267885   4.291   0.367   0.187 -0.9015  1.1178  0.1678
21985SOL     OW67886   4.179   6.913   5.618 -0.1415  0.0551 -0.0561
21985SOL    HW167887   4.108   6.977   5.616  1.2021  1.5995 -0.2129
21985SOL    HW267888   4.159   6.858   5.694 -0.9609  1.0943  0.5030
21986SOL     OW67889   4.394   2.756   7.924  0.4580 -0.0234 -0.2206
21986SOL    HW167890   4.450   2.776   7.850 -0.2882  2.8503 -0.1223
21986SOL    HW267891   4.311   2.729   7.884  0.9050 -1.2619 -0.3651
21987SOL     OW67892   3.235   1.620   1.611  0.0217  0.0734  0.1388
21987SOL    HW167893   3.268   1.654   1.528  2.9116 -0.3355  0.9904
21987SOL    HW267894   3.196   1.695   1.655  1.9777  1.2460 -0.0168
21988SOL     OW67895   7.098   0.626   1.671 -0.4227  0.1174  0.0125
21988SOL    HW167896   7.084   0.543   1.625  0.6307  0.9340 -1.8652
21988SOL    HW267897   7.188   0.621   1.702 -0.1303  0.7964 -0.6926
21989SOL     OW67898   8.338   8.173   3.223 -0.1021 -0.2973  0.2330
21989SOL    HW167899   8.382   8.101   3.268 -0.0310 -0.0233  0.6027
21989SOL    HW267900   8.249   8.140   3.207  0.7478 -1.6422 -2.3081
21990SOL     OW67901   2.131   2.385   6.036 -0.4607  0.0165  0.0485
21990SOL    HW167902   2.075   2.450   6.077  0.1348 -0.4713  1.7042
21990SOL    HW267903   2.130   2.311   6.097 -0.6403 -1.3010 -1.4900
21991SOL     OW67904   3.833   3.484   4.685  0.1132 -0.1794 -0.0757
21991SOL    HW167905   3.898   3.535   4.732 -0.1348 -0.2447  0.3492
21991SOL    HW267906   3.883   3.435   4.620  0.7280 -1.4790  1.3086
21992SOL     OW67907   5.857   1.503   0.169 -0.5603 -0.1218 -0.2968
21992SOL    HW167908   5.790   1.438   0.188 -0.6965 -0.2732 -1.2275
21992SOL    HW267909   5.890   1.529   0.255 -2.5660  0.7721  0.2812
21993SOL     OW67910   4.438   2.493   4.600  0.8319 -0.1126 -0.6757
21993SOL    HW167911   4.482   2.481   4.684 -2.2675 -2.3135  0.8615
21993SOL    HW267912   4.478   2.427   4.543 -0.2885 -2.0965  0.6904
21994SOL     OW67913   1.980   0.096   5.662 -0.3194  0.0157 -0.1220
21994SOL    HW167914   2.051   0.075   5.603 -1.6802 -0.0929 -1.7987
21994SOL    HW267915   1.907   0.040   5.634 -1.5841  1.3174  0.4262
21995SOL     OW67916   6.600   2.942   5.751  0.3541 -0.2275  0.4164
21995SOL    HW167917   6.610   3.017   5.810  1.9532 -0.1738  0.1213
21995SOL    HW267918   6.688   2.905   5.743 -0.4531 -2.4910  0.9844
21996SOL     OW67919   5.894   5.775   7.279 -0.1018  0.1858  0.1615
21996SOL    HW167920   5.951   5.713   7.325  1.0226  1.5789  0.7055
21996SOL    HW267921   5.816   5.781   7.334  0.5036  0.5362  0.9870
21997SOL     OW67922   5.781   4.434   5.482 -0.3333  0.7065  0.0679
21997SOL    HW167923   5.706   4.381   5.510  0.2438  0.7524  1.8426
21997SOL    HW267924   5.742   4.514   5.447 -1.1542 -0.1554 -1.0753
21998SOL     OW67925   6.489   0.506   5.166 -0.0187  0.4216  0.2267
21998SOL    HW167926   6.500   0.586   5.219  0.8718  0.5073 -0.0802
21998SOL    HW267927   6.556   0.447   5.198 -2.1360 -1.1499  2.1001
21999SOL     OW67928   7.448   2.944   3.222 -0.0911  0.3149 -0.1873
21999SOL    HW167929   7.474   2.917   3.134  1.6676  0.5377  0.2111
21999SOL    HW267930   7.355   2.965   3.215 -0.2490 -0.7267 -1.7220
22000SOL     OW67931   1.422   2.984   7.426 -0.5143 -0.4283 -0.2212
22000SOL    HW167932   1.457   3.047   7.489  0.6656 -1.2070 -0.0683
22000SOL    HW267933   1.346   2.946   7.471  0.0046 -0.5960  0.5297
22001SOL     OW67934   4.259   7.724   2.765  0.2837  0.2582  1.0635
22001SOL    HW167935   4.267   7.692   2.854  1.0120 -2.0050  0.2622
22001SOL    HW267936   4.289   7.814   2.768 -1.9438  1.0372  3.4935
22002SOL     OW67937   8.428   6.330   0.163  0.3998  0.1727  0.2683
22002SOL    HW167938   8.441   6.411   0.113 -2.6077  1.9223  1.9589
22002SOL    HW267939   8.385   6.271   0.101  0.3014  0.8436 -0.3221
22003SOL     OW67940   2.797   4.862   6.163 -0.1610 -0.2090  0.1580
22003SOL    HW167941   2.888   4.892   6.160  0.5866 -2.3461 -0.3936
22003SOL    HW267942   2.803   4.767   6.175 -2.3355 -0.3835  0.3585
22004SOL     OW67943   6.744   0.054   3.314 -0.1916  0.0358 -0.3100
22004SOL    HW167944   6.759   0.137   3.269  0.6149 -0.2283 -0.5477
22004SOL    HW267945   6.649   0.041   3.310 -0.0636 -0.7223 -3.3312
22005SOL     OW67946   3.412   1.906   0.428 -0.2069 -0.1031 -0.0000
22005SOL    HW167947   3.318   1.922   0.419  0.0674  1.8620  0.0491
22005SOL    HW267948   3.432   1.839   0.362 -1.4879  0.1306 -0.6550
22006SOL     OW67949   1.478   0.660   3.365  0.5528  0.1754  0.6509
22006SOL    HW167950   1.512   0.743   3.399  1.2906  0.6531 -1.1238
22006SOL    HW267951   1.538   0.636   3.295  0.2695 -1.8208  1.0212
22007SOL     OW67952   5.597   2.923   2.905  0.5444  0.5146  0.3840
22007SOL    HW167953   5.650   2.874   2.967 -0.0285  0.4974  0.8643
22007SOL    HW267954   5.592   3.011   2.942 -0.1211  0.4044  0.5639
22008SOL     OW67955   7.224   2.398   0.912  0.5248 -0.3464 -0.7711
22008SOL    HW167956   7.152   2.439   0.864  1.3462  3.0906  0.6371
22008SOL    HW267957   7.185   2.372   0.996  0.4885 -0.4685 -0.8246
22009SOL     OW67958   8.041   4.562   4.726 -0.1413  1.0503 -0.7113
22009SOL    HW167959   8.060   4.641   4.676  1.7544  1.3193  0.3118
22009SOL    HW267960   8.052   4.589   4.818 -2.3760  0.2961 -0.1702
22010SOL     OW67961   2.583   5.092   5.347  0.4030 -0.4827  0.0063
22010SOL    HW167962   2.645   5.092   5.420  0.6655  2.2595 -0.0853
22010SOL    HW267963   2.639   5.086   5.269  0.1529 -2.9384 -0.0487
22011SOL     OW67964   4.276   2.605   5.086  0.1477 -0.3741 -0.0902
22011SOL    HW167965   4.296   2.524   5.133 -2.2529  0.3200  2.3702
22011SOL    HW267966   4.181   2.605   5.077  0.3030  0.8936 -2.5849
22012SOL     OW67967   3.730   5.782   3.395  0.0591 -0.1496 -1.1873
22012SOL    HW167968   3.725   5.874   3.370 -0.9180 -0.2558 -1.4398
22012SOL    HW267969   3.821   5.769   3.422  0.0518  1.0458 -0.5245
22013SOL     OW67970   6.384   8.632   1.850 -0.4805 -0.2168  0.1283
22013SOL    HW167971   6.307   8.685   1.871 -0.9523 -0.7946 -0.1375
22013SOL    HW267972   6.367   8.597   1.763  1.7864  2.7535 -1.7072
22014SOL     OW67973   4.754   3.095   4.948  0.4043 -0.0856 -0.1842
22014SOL    HW167974   4.716   3.165   4.894  0.9270 -0.5465 -1.1766
22014SOL    HW267975   4.817   3.140   5.004 -0.0421  0.3852 -0.0490
22015SOL     OW67976   4.397   6.541   1.305 -0.6644 -0.5448  0.2575
22015SOL    HW167977   4.318   6.595   1.299 -0.1662  0.4740  2.0917
22015SOL    HW267978   4.382   6.470   1.243 -3.8494 -1.3999  1.7917
22016SOL     OW67979   7.164   7.956   2.895  0.3125 -0.1710  0.0149
22016SOL    HW167980   7.219   8.024   2.856 -0.1729  0.4755  0.4494
22016SOL    HW267981   7.203   7.939   2.980 -1.0825  1.4969  1.0574
22017SOL     OW67982   7.868   2.763   4.184  0.2242  0.2122 -0.0456
22017SOL    HW167983   7.798   2.702   4.161  0.1925 -0.1634  0.9919
22017SOL    HW267984   7.935   2.749   4.117  0.1662 -0.8858  0.1054
22018SOL     OW67985   6.779   1.528   0.778  0.0732 -0.0544  0.3717
22018SOL    HW167986   6.734   1.596   0.728  1.0925  0.3153 -0.0577
22018SOL    HW267987   6.708   1.483   0.825 -0.9421 -0.4613 -1.4477
22019SOL     OW67988   1.219   0.601   2.725 -0.4001  0.1065  0.2297
22019SOL    HW167989   1.182   0.600   2.637 -2.0890  0.3600  0.9122
22019SOL    HW267990   1.281   0.674   2.724  1.6583 -1.5157 -1.4988
22020SOL     OW67991   2.548   8.459   5.397  1.0738  0.2895  0.2346
22020SOL    HW167992   2.567   8.525   5.330 -0.5684 -0.6238 -1.2240
22020SOL    HW267993   2.543   8.376   5.348 -1.4493 -0.2240  1.2414
22021SOL     OW67994   3.030   6.604   0.144  0.0476  0.6312  0.1516
22021SOL    HW167995   3.114   6.572   0.112 -0.4859 -0.1151 -0.5638
22021SOL    HW267996   3.025   6.573   0.234 -1.0688 -2.7353 -0.9067
22022SOL     OW67997   5.203   8.134   3.783  0.0849 -0.3412  0.1650
22022SOL    HW167998   5.206   8.082   3.702 -0.2379 -1.4534  0.8451
22022SOL    HW267999   5.294   8.140   3.811  0.4482  1.5772 -1.1773
22023SOL     OW68000   3.964   3.451   7.444  0.3265  0.0258 -0.5147
22023SOL    HW168001   3.909   3.523   7.474  0.0094 -0.5147  0.2286
22023SOL    HW268002   3.994   3.408   7.524 -0.8276 -1.6667 -0.9397
22024SOL     OW68003   8.031   4.844   7.189 -0.0511 -0.1914  0.1923
22024SOL    HW168004   8.094   4.896   7.239 -0.4117  0.1032  0.3557
22024SOL    HW268005   8.084   4.789   7.132  0.3510  0.0531  0.3252
22025SOL     OW68006   8.579   1.387   4.032 -0.1325 -0.1039 -0.1987
22025SOL    HW168007   8.510   1.451   4.015 -0.3255 -0.0819  0.6003
22025SOL    HW268008   8.569   1.365   4.125  0.0918 -1.1059 -0.3999
22026SOL     OW68009   6.873   8.082   4.353 -0.4095 -0.3861 -0.2254
22026SOL    HW168010   6.803   8.142   4.379  1.9641  1.9962  1.1634
22026SOL    HW268011   6.925   8.132   4.290  1.4848 -1.0314  0.7469
22027SOL     OW68012   5.792   8.088   7.025  0.4750 -0.6007 -0.0093
22027SOL    HW168013   5.743   8.152   6.971  1.4781  0.2203  0.0191
22027SOL    HW268014   5.727   8.056   7.087  0.1773  1.2618  0.7308
22028SOL     OW68015   6.925   8.433   4.728 -0.2320  0.5957 -0.1814
22028SOL    HW168016   6.982   8.510   4.725 -0.9125  1.1083 -0.1294
22028SOL    HW268017   6.933   8.400   4.818  0.6277  0.1615 -0.4078
22029SOL     OW68018   0.505   4.022   5.261 -0.3016 -0.4313  0.0634
22029SOL    HW168019   0.586   4.027   5.210 -1.5827  1.1398 -1.9506
22029SOL    HW268020   0.456   3.951   5.222 -0.1735 -1.0127  0.9215
22030SOL     OW68021   8.384   8.571   5.048 -0.6056  0.2835 -0.3275
22030SOL    HW168022   8.394   8.629   4.973  0.1683 -0.7468 -1.0599
22030SOL    HW268023   8.303   8.600   5.091 -1.3792  0.5266 -1.8868
22031SOL     OW68024   1.683   3.513   0.587 -0.5833  0.3666 -0.4824
22031SOL    HW168025   1.593   3.487   0.606 -0.5056 -0.7547 -1.5379
22031SOL    HW268026   1.731   3.495   0.668 -1.0842 -0.1572 -0.2979
22032SOL     OW68027   2.591   4.987   4.039  0.2933  0.4705 -0.3430
22032SOL    HW168028   2.680   4.970   4.009  1.0332  0.4488  1.7313
22032SOL    HW268029   2.580   4.931   4.116 -0.5867  2.3187  0.9601
22033SOL     OW68030   3.695   4.486   0.717 -0.0796 -0.0076  0.1631
22033SOL    HW168031   3.744   4.568   0.709 -2.5176  1.4165 -1.6098
22033SOL    HW268032   3.756   4.418   0.687  1.4196  1.3818 -0.0354
22034SOL     OW68033   1.029   8.492   0.731  0.0365 -0.1941  0.1753
22034SOL    HW168034   1.120   8.521   0.737  0.0683 -0.4465  0.9987
22034SOL    HW268035   0.978   8.572   0.744  0.1328 -0.0369 -0.3794
22035SOL     OW68036   2.455   6.263   3.762  0.4979 -1.1707  0.0925
22035SOL    HW168037   2.408   6.247   3.844 -1.7524  0.3379 -0.8031
22035SOL    HW268038   2.511   6.338   3.780 -1.0572  0.0790 -0.0740
22036SOL     OW68039   8.074   8.242   0.275 -0.0377  0.6792 -0.4016
22036SOL    HW168040   8.110   8.218   0.361 -0.9203  0.6815 -0.0230
22036SOL    HW268041   7.984   8.208   0.277 -0.0967  0.7773 -1.2867
22037SOL     OW68042   4.990   6.299   6.343  0.1129  0.0033 -0.2449
22037SOL    HW168043   4.986   6.302   6.439  0.1700 -0.9108 -0.2021
22037SOL    HW268044   5.000   6.391   6.316 -1.3925  0.4346  0.5502
22038SOL     OW68045   8.562   3.004   3.496  0.0004  0.1125 -0.2318
22038SOL    HW168046   8.531   2.936   3.436 -0.1071 -1.2700  1.3203
22038SOL    HW268047   8.491   3.015   3.559  0.2875  1.2081 -0.0779
22039SOL     OW68048   7.107   5.356   4.646 -0.6198 -0.1145 -0.2371
22039SOL    HW168049   7.018   5.358   4.612 -0.1884  0.2156 -1.3849
22039SOL    HW268050   7.163   5.369   4.570  0.4098  0.0499  0.5135
22040SOL     OW68051   0.701   4.241   0.316  0.5246  0.2294 -0.1543
22040SOL    HW168052   0.607   4.251   0.328  0.4765 -0.5220  0.2024
22040SOL    HW268053   0.721   4.289   0.236 -0.6571 -1.9736 -1.8714
22041SOL     OW68054   0.067   7.172   6.664 -0.4053  0.0239 -0.5392
22041SOL    HW168055   0.025   7.143   6.746  1.4968 -0.6216  0.2604
22041SOL    HW268056   0.083   7.265   6.677 -2.4711  0.5299 -1.2854
22042SOL     OW68057   0.192   5.873   0.511  0.4543  0.0395 -1.0871
22042SOL    HW168058   0.250   5.798   0.500  0.6558 -0.1547  0.9799
22042SOL    HW268059   0.241   5.947   0.476  0.8271 -0.5515 -1.8425
22043SOL     OW68060   1.655   6.503   1.306 -0.0236  0.4607 -0.7065
22043SOL    HW168061   1.750   6.518   1.307 -0.1291  1.5281 -2.5331
22043SOL    HW268062   1.626   6.527   1.394  1.6142 -1.7168  0.5257
22044SOL     OW68063   1.733   5.203   4.492 -0.3089  0.1352  0.0344
22044SOL    HW168064   1.732   5.255   4.412  0.6287  0.2736  0.1094
22044SOL    HW268065   1.703   5.116   4.464  0.4229  0.0628 -0.5530
22045SOL     OW68066   2.157   5.170   1.296 -0.0236  0.5085  0.9724
22045SOL    HW168067   2.210   5.201   1.222  0.6423  0.1646  1.2905
22045SOL    HW268068   2.154   5.075   1.284  0.2613  0.4284  1.4896
22046SOL     OW68069   5.559   5.475   4.658 -0.5580  0.0875 -0.0835
22046SOL    HW168070   5.603   5.397   4.624  0.0875  0.3389  0.1426
22046SOL    HW268071   5.604   5.548   4.616  1.3583  0.4938  2.3916
22047SOL     OW68072   8.661   5.774   7.204 -0.3013 -0.0010  0.7593
22047SOL    HW168073   8.741   5.733   7.238 -1.0617 -0.6495  1.8269
22047SOL    HW268074   8.691   5.825   7.129  1.3846  1.0276  2.0445
22048SOL     OW68075   7.904   2.918   3.448 -0.1306 -0.3350  0.0648
22048SOL    HW168076   7.881   2.995   3.500  2.4204  0.1800  0.5924
22048SOL    HW268077   7.834   2.911   3.383 -1.7922  0.8482  1.6243
22049SOL     OW68078   5.351   8.432   5.831 -0.1814  0.3292 -0.5287
22049SOL    HW168079   5.323   8.419   5.741 -1.0970 -0.6288 -0.1245
22049SOL    HW268080   5.325   8.352   5.877  0.2064  0.8215  0.5995
22050SOL     OW68081   7.764   2.185   7.984  0.1155  0.0408  0.3259
22050SOL    HW168082   7.801   2.239   8.053  0.1582  1.6262 -0.8960
22050SOL    HW268083   7.670   2.201   7.988  0.2180  0.9715 -0.6398
22051SOL     OW68084   0.714   0.537   5.600  0.3545  0.0346  0.0471
22051SOL    HW168085   0.688   0.625   5.629  0.5144 -0.4659  1.8129
22051SOL    HW268086   0.632   0.489   5.593  0.3247  0.1251 -0.2329
22052SOL     OW68087   7.485   0.064   7.078 -0.4421  0.5146  0.4242
22052SOL    HW168088   7.576   0.040   7.099 -0.2484 -0.1873 -1.0634
22052SOL    HW268089   7.439  -0.020   7.075 -1.1597  0.8689  1.1438
22053SOL     OW68090   5.405   3.548   2.568  0.0975 -0.3513  0.1657
22053SOL    HW168091   5.391   3.489   2.494 -0.0452 -0.1256  0.0092
22053SOL    HW268092   5.459   3.498   2.629  1.0501 -0.1976 -0.5284
22054SOL     OW68093   7.744   2.791   7.474 -0.2003  0.6080 -0.5564
22054SOL    HW168094   7.719   2.764   7.385  1.0156  0.0018 -0.7287
22054SOL    HW268095   7.707   2.724   7.531  1.1753 -0.4060 -0.8271
22055SOL     OW68096   1.675   2.537   0.206 -0.4511 -0.2724 -0.1684
22055SOL    HW168097   1.681   2.568   0.116  0.1062  1.4255  0.4227
22055SOL    HW268098   1.657   2.443   0.198  0.5248 -0.3356 -2.0424
22056SOL     OW68099   3.902   7.111   0.216 -0.3308  0.7011 -0.0001
22056SOL    HW168100   3.814   7.075   0.208 -0.5587  1.0496  0.7893
22056SOL    HW268101   3.937   7.072   0.296  0.4988  0.0482 -0.6615
22057SOL     OW68102   2.815   4.083   6.214 -0.7285  0.0690  0.0640
22057SOL    HW168103   2.764   4.090   6.295  0.0153  0.5089  0.5154
22057SOL    HW268104   2.752   4.097   6.144 -1.2191  0.6475  0.6036
22058SOL     OW68105   5.875   0.295   1.106 -0.4403  0.2872  0.1213
22058SOL    HW168106   5.938   0.262   1.169 -0.6203 -0.0581  0.1195
22058SOL    HW268107   5.928   0.349   1.046  0.0078 -0.6659 -0.3785
22059SOL     OW68108   5.267   0.221   7.717 -0.2338 -0.5369  0.1180
22059SOL    HW168109   5.318   0.301   7.700 -3.1791  1.2065 -1.4216
22059SOL    HW268110   5.179   0.253   7.739 -1.0694 -3.3744  1.3499
22060SOL     OW68111   7.564   0.962   3.385 -0.0680 -0.3203  0.1678
22060SOL    HW168112   7.601   1.014   3.457  1.9032 -0.6265 -0.5717
22060SOL    HW268113   7.595   0.874   3.401 -1.5315 -0.8742  0.1613
22061SOL     OW68114   5.544   2.409   8.870 -0.0882 -0.3630 -0.2564
22061SOL    HW168115   5.498   2.336   8.910 -1.1858  0.3146 -0.2658
22061SOL    HW268116   5.604   2.367   8.807  0.1908 -1.3069  0.6027
22062SOL     OW68117   6.768   1.543   7.116  0.4502  0.4702  0.7086
22062SOL    HW168118   6.751   1.485   7.190  2.6787 -1.6737 -0.2992
22062SOL    HW268119   6.694   1.529   7.057 -0.3074  0.6317  1.5957
22063SOL     OW68120   6.789   1.355   6.224 -0.0720  0.1789 -0.3345
22063SOL    HW168121   6.802   1.416   6.152  1.0908  1.0101  0.5365
22063SOL    HW268122   6.767   1.411   6.299  2.0508 -0.3155  0.7389
22064SOL     OW68123   6.018   1.617   7.204 -0.5925  0.0222  0.3810
22064SOL    HW168124   6.048   1.631   7.114 -2.2324 -0.8151 -0.3506
22064SOL    HW268125   5.926   1.641   7.202 -0.3484  1.2268  2.1945
22065SOL     OW68126   4.419   4.760   1.330  0.2276 -0.1374  0.9875
22065SOL    HW168127   4.507   4.758   1.293 -0.2244 -0.2427 -0.1154
22065SOL    HW268128   4.362   4.738   1.257 -0.5845 -2.0675  2.1358
22066SOL     OW68129   5.877   5.840   1.520 -0.2846 -0.1416 -0.2174
22066SOL    HW168130   5.847   5.762   1.473 -0.9088  0.1779 -0.3457
22066SOL    HW268131   5.865   5.912   1.458 -1.0294  0.2714  0.3983
22067SOL     OW68132   2.196   3.265   7.517  0.2320 -0.0137 -0.4038
22067SOL    HW168133   2.162   3.269   7.606  0.1141 -1.3578 -0.3670
22067SOL    HW268134   2.290   3.251   7.528  0.3385  0.6023 -0.4995
22068SOL     OW68135   0.202   3.342   4.083  0.0905  0.0276  0.7736
22068SOL    HW168136   0.168   3.253   4.075  0.7594 -0.2464  0.9732
22068SOL    HW268137   0.296   3.332   4.094  0.5095  0.8541 -1.5090
22069SOL     OW68138   8.176   7.777   3.306 -0.6697  0.1173  0.0421
22069SOL    HW168139   8.181   7.871   3.290  0.8258  0.2149  0.8684
22069SOL    HW268140   8.136   7.769   3.392 -1.2656 -0.0452 -0.2414
22070SOL     OW68141   5.546   3.222   1.406 -0.3129  0.1872 -0.5988
22070SOL    HW168142   5.507   3.157   1.347 -1.3945  0.4530 -0.2063
22070SOL    HW268143   5.491   3.300   1.395 -0.6891  0.1785  0.9014
22071SOL     OW68144   5.942   2.960   8.180 -0.2410  0.0341  0.1682
22071SOL    HW168145   6.036   2.959   8.161 -0.3529 -0.8536 -0.4312
22071SOL    HW268146   5.901   2.970   8.094 -0.7075 -1.0230  0.2463
22072SOL     OW68147   3.622   5.477   6.576 -0.2207  0.1342  0.4079
22072SOL    HW168148   3.626   5.561   6.529  1.2648  0.4371  0.9981
22072SOL    HW268149   3.599   5.502   6.666  1.3872  0.0897  0.8734
22073SOL     OW68150   4.391   0.850   5.549  0.2547  0.4443  0.2954
22073SOL    HW168151   4.383   0.803   5.632  0.6456  0.1241  0.1529
22073SOL    HW268152   4.416   0.939   5.574 -3.0706  1.3800  0.7524
22074SOL     OW68153   1.600   5.894   2.344 -0.0650 -0.2021  0.2248
22074SOL    HW168154   1.626   5.858   2.259 -1.4172 -1.3629  0.2660
22074SOL    HW268155   1.545   5.970   2.322 -0.3971 -0.4902  0.0460
22075SOL     OW68156   7.673   0.140   5.663  0.1333  0.2154 -0.1948
22075SOL    HW168157   7.662   0.085   5.585 -0.0981  1.1169 -0.8174
22075SOL    HW268158   7.588   0.137   5.706  0.2273 -0.1961 -0.0345
22076SOL     OW68159   5.397   7.080   8.651 -0.3422  0.4096  0.1183
22076SOL    HW168160   5.399   7.001   8.705 -0.0634 -0.0129 -0.5003
22076SOL    HW268161   5.304   7.097   8.636 -0.3938  0.0826  0.0749
22077SOL     OW68162   0.384   5.366   1.833  0.1600 -0.8361  0.2636
22077SOL    HW168163   0.313   5.329   1.885  0.1187 -1.9506 -0.5377
22077SOL    HW268164   0.393   5.306   1.758 -0.8270  1.5031 -1.8723
22078SOL     OW68165   0.930   8.545   6.674  0.0917  0.2390  0.2591
22078SOL    HW168166   0.900   8.477   6.734  1.1026  0.4004  0.9638
22078SOL    HW268167   0.864   8.614   6.682 -0.4771 -0.2785  0.1785
22079SOL     OW68168   3.334   2.176   0.758 -0.2395 -0.1159 -0.0278
22079SOL    HW168169   3.415   2.133   0.783 -0.7660 -0.5264  1.0556
22079SOL    HW268170   3.271   2.104   0.747 -1.0476  0.3167  1.4895
22080SOL     OW68171   1.960   2.891   3.599  0.5493 -0.2635 -0.0308
22080SOL    HW168172   1.927   2.946   3.528 -0.1385 -0.9612 -0.2591
22080SOL    HW268173   1.885   2.878   3.657  0.5964 -1.2736 -0.1784
22081SOL     OW68174   8.739   2.037   7.244  0.0174  0.0817  0.1515
22081SOL    HW168175   8.814   2.032   7.185  0.9148 -0.7620  1.3127
22081SOL    HW268176   8.777   2.053   7.330 -1.0542 -1.2956  0.9197
22082SOL     OW68177   4.722   2.108   0.742 -0.1117 -0.1605  0.1956
22082SOL    HW168178   4.696   2.192   0.703 -2.5815 -1.1774 -0.5422
22082SOL    HW268179   4.640   2.060   0.752  1.1161 -2.0967  1.6134
22083SOL     OW68180   1.669   3.870   0.955  0.1591 -0.0314 -0.2726
22083SOL    HW168181   1.669   3.837   0.865  0.0253  0.6460 -0.5267
22083SOL    HW268182   1.580   3.855   0.986  0.4129 -0.9855  0.0233
22084SOL     OW68183   6.574   1.190   8.082 -0.4090 -0.4850 -0.1616
22084SOL    HW168184   6.529   1.228   8.006 -0.0511 -1.3075 -0.7977
22084SOL    HW268185   6.659   1.162   8.048 -0.3398 -1.0871  0.4902
22085SOL     OW68186   8.018   7.313   1.563  0.1198 -0.5032 -0.3631
22085SOL    HW168187   8.085   7.373   1.596 -1.2588  2.2477 -2.1711
22085SOL    HW268188   8.037   7.305   1.470 -0.8349 -1.4661 -0.4975
22086SOL     OW68189   4.423   3.647   6.510  0.5177 -0.2738 -0.0079
22086SOL    HW168190   4.386   3.603   6.586  0.4115  0.4328  0.3657
22086SOL    HW268191   4.374   3.612   6.435 -0.0848 -0.2357  0.3576
22087SOL     OW68192   8.300   2.327   3.440  0.0975  0.0562  0.2844
22087SOL    HW168193   8.368   2.354   3.377 -0.2276 -0.5762 -0.3491
22087SOL    HW268194   8.268   2.244   3.406 -1.6939  0.8226  0.0172
22088SOL     OW68195   0.819   8.240   5.649  0.0475 -0.1110 -0.4720
22088SOL    HW168196   0.893   8.211   5.597  0.0240  1.0420 -1.1872
22088SOL    HW268197   0.744   8.234   5.589 -0.2260 -0.0855 -0.1374
22089SOL     OW68198   0.215   7.956   2.002 -0.8946 -0.0935 -0.3780
22089SOL    HW168199   0.256   8.039   2.028 -1.1845 -0.1864  0.3981
22089SOL    HW268200   0.156   7.980   1.931  0.3937  0.0653 -1.4447
22090SOL     OW68201   7.995   4.953   3.540  0.0676 -0.4391  0.2229
22090SOL    HW168202   7.985   5.008   3.617 -0.0858  0.5716 -0.4895
22090SOL    HW268203   8.020   4.868   3.574 -3.4440 -1.0527  1.6860
22091SOL     OW68204   3.545   3.885   6.046 -0.3399 -0.1858 -0.1899
22091SOL    HW168205   3.495   3.962   6.016  0.1448  0.8410  1.4717
22091SOL    HW268206   3.561   3.834   5.967 -1.1830  1.1342 -1.2579
22092SOL     OW68207   3.653   4.293   2.418 -0.3645  0.0835 -0.1774
22092SOL    HW168208   3.672   4.382   2.447 -0.5348  0.2518 -0.5821
22092SOL    HW268209   3.559   4.292   2.400 -0.3015 -0.0797 -0.5146
22093SOL     OW68210   3.654   2.484   8.423 -0.2778 -0.1688  0.1075
22093SOL    HW168211   3.719   2.483   8.493  1.8659  1.5062 -1.6984
22093SOL    HW268212   3.607   2.567   8.436 -1.1194 -0.7169  0.5975
22094SOL     OW68213   0.966   1.466   1.394 -0.6183  0.1031 -0.5932
22094SOL    HW168214   0.892   1.524   1.406 -0.8243 -0.2097 -0.3238
22094SOL    HW268215   1.009   1.464   1.479 -2.1976 -2.2853  0.2644
22095SOL     OW68216   2.231   7.905   4.811 -0.1531  0.9019  0.0274
22095SOL    HW168217   2.255   7.913   4.719 -0.3265 -0.8022 -0.2003
22095SOL    HW268218   2.135   7.906   4.811 -0.1912 -0.6249 -0.0088
22096SOL     OW68219   5.140   1.748   1.210  0.2563 -0.1433  0.0081
22096SOL    HW168220   5.091   1.774   1.132  0.3682 -0.4459 -0.1631
22096SOL    HW268221   5.199   1.680   1.180 -1.1750 -1.7971  0.7579
22097SOL     OW68222   6.200   4.190   1.610 -0.1477 -0.0590  0.2815
22097SOL    HW168223   6.291   4.190   1.581  0.8706  1.1319  3.1499
22097SOL    HW268224   6.156   4.247   1.547  1.3025  0.1767 -0.5756
22098SOL     OW68225   0.493   3.083   5.148  0.2083  0.2679  0.2022
22098SOL    HW168226   0.441   3.164   5.149 -0.3617 -0.0905  0.1301
22098SOL    HW268227   0.536   3.081   5.233 -1.1382 -0.2053  0.9156
22099SOL     OW68228   8.020   1.027   0.942  0.4990  0.0506 -0.4085
22099SOL    HW168229   8.074   0.981   0.878 -0.6927 -0.4775 -1.0739
22099SOL    HW268230   8.017   0.968   1.017 -0.4770 -0.6956 -1.0040
22100SOL     OW68231   6.006   2.207   2.115 -0.6548  1.0369  0.3418
22100SOL    HW168232   6.069   2.144   2.150 -3.8632 -2.2942  0.7682
22100SOL    HW268233   6.005   2.189   2.021 -2.2901 -0.3624  0.5944
22101SOL     OW68234   5.142   7.216   6.108 -0.2149  0.4406 -0.0076
22101SOL    HW168235   5.146   7.294   6.053  0.2858 -0.4653 -1.3171
22101SOL    HW268236   5.230   7.178   6.101 -0.9216 -1.1128 -0.7353
22102SOL     OW68237   0.096   6.457   2.065 -0.0227  0.1172 -0.2233
22102SOL    HW168238   0.110   6.480   1.973  1.2592  0.9883  0.1627
22102SOL    HW268239   0.054   6.370   2.062 -1.9226  0.9966 -1.6497
22103SOL     OW68240   1.130   0.965   5.296  0.7416 -0.3273  0.1541
22103SOL    HW168241   1.170   0.907   5.232  0.1874 -1.6024  0.9270
22103SOL    HW268242   1.198   0.980   5.361  0.4653 -1.2600  0.6753
22104SOL     OW68243   4.368   6.947   3.395 -0.1387 -0.1180  0.2070
22104SOL    HW168244   4.361   6.864   3.349 -0.8707 -0.3908  0.7916
22104SOL    HW268245   4.289   6.952   3.449  0.6878  0.1815  1.4432
22105SOL     OW68246   7.687   0.465   2.810  0.2544 -0.6459  0.5382
22105SOL    HW168247   7.744   0.536   2.840 -0.1756 -0.4238  0.8469
22105SOL    HW268248   7.647   0.500   2.730 -0.9666  0.0012  1.3981
22106SOL     OW68249   7.183   5.489   8.813 -0.3560  0.1980 -0.2925
22106SOL    HW168250   7.143   5.562   8.765  2.9691  2.0383 -0.5532
22106SOL    HW268251   7.243   5.448   8.751  0.6478 -0.2965  0.9569
22107SOL     OW68252   8.031   7.006   3.431 -0.3652  0.2903  0.1789
22107SOL    HW168253   8.056   6.976   3.344 -0.9824 -0.2228  0.1690
22107SOL    HW268254   7.958   7.066   3.416 -0.4772  0.1957  0.3353
22108SOL     OW68255   1.636   1.786   1.536 -0.2095  0.0876 -0.1535
22108SOL    HW168256   1.607   1.867   1.492  1.7980  0.7683 -0.3278
22108SOL    HW268257   1.674   1.817   1.619 -0.8854 -0.8631  0.5274
22109SOL     OW68258   1.509   0.139   8.870 -0.2433  0.1421 -0.2063
22109SOL    HW168259   1.436   0.114   8.814 -0.4801  0.5343 -0.0816
22109SOL    HW268260   1.561   0.199   8.817  0.4313 -0.7559 -0.5749
22110SOL     OW68261   7.538   0.880   5.547  0.3384  0.2204  0.1207
22110SOL    HW168262   7.484   0.848   5.476 -3.1080 -1.0226  2.9850
22110SOL    HW268263   7.502   0.967   5.567 -0.9678 -0.7052  2.1981
22111SOL     OW68264   6.138   5.163   3.882  0.2724 -0.2083  0.1524
22111SOL    HW168265   6.169   5.232   3.823  0.1845 -0.2833  0.0165
22111SOL    HW268266   6.118   5.208   3.964  1.3954 -0.2542  0.4738
22112SOL     OW68267   7.412   5.816   7.934  0.3265 -0.0717  0.3142
22112SOL    HW168268   7.319   5.840   7.932  0.4169  0.2231 -1.1581
22112SOL    HW268269   7.416   5.732   7.889  0.9773  0.7309 -1.1807
22113SOL     OW68270   1.327   2.833   5.103  0.1767  0.5692  0.0757
22113SOL    HW168271   1.364   2.749   5.132  0.9112  0.9041  0.1266
22113SOL    HW268272   1.234   2.827   5.125  0.4115  0.1604  1.0146
22114SOL     OW68273   5.731   3.614   1.279 -0.3741 -0.2003  0.7556
22114SOL    HW168274   5.782   3.611   1.360 -0.1453 -0.1974  0.6107
22114SOL    HW268275   5.747   3.701   1.244  1.5339 -1.0430 -0.5891
22115SOL     OW68276   5.954   7.267   7.840 -0.6618 -0.7142  0.5584
22115SOL    HW168277   5.892   7.329   7.877  0.3010  1.0566 -0.6715
22115SOL    HW268278   6.037   7.289   7.880 -0.5504 -2.2292  1.2321
22116SOL     OW68279   8.525   4.641   0.835 -0.1951 -0.3687 -0.4443
22116SOL    HW168280   8.527   4.649   0.740 -2.3164 -0.6203 -0.5499
22116SOL    HW268281   8.433   4.656   0.859 -0.1025 -2.2203  1.3673
22117SOL     OW68282   3.948   7.083   7.900  0.4419  0.1955  0.0946
22117SOL    HW168283   3.861   7.074   7.860  1.0472 -0.7153 -1.1102
22117SOL    HW268284   3.938   7.047   7.988 -0.4797  0.4156  0.0894
22118SOL     OW68285   2.152   5.399   3.176 -0.0995 -0.6420 -0.2822
22118SOL    HW168286   2.097   5.343   3.230 -0.0616 -0.0345  0.4030
22118SOL    HW268287   2.091   5.464   3.140 -0.2211 -1.3758 -1.4350
22119SOL     OW68288   0.799   1.260   7.103 -0.1273 -0.7657 -0.2487
22119SOL    HW168289   0.767   1.269   7.193 -1.7407 -2.7033 -0.5808
22119SOL    HW268290   0.833   1.347   7.082 -0.6580  0.0222  1.8642
22120SOL     OW68291   3.105   3.756   3.451  0.0821  0.1945  0.4747
22120SOL    HW168292   3.142   3.731   3.367 -1.6482  1.2317 -0.6604
22120SOL    HW268293   3.173   3.809   3.492  0.1073  1.6874 -1.3481
22121SOL     OW68294   6.588   7.769   2.672  0.4817 -0.2229  0.0840
22121SOL    HW168295   6.556   7.757   2.762  0.1080 -1.6580 -0.2183
22121SOL    HW268296   6.534   7.839   2.637 -0.2273 -0.4986  0.5875
22122SOL     OW68297   0.974   0.202   8.099  0.4191 -0.4328 -0.4225
22122SOL    HW168298   0.960   0.140   8.028 -1.2030  1.2624 -1.6747
22122SOL    HW268299   0.896   0.194   8.154  0.5917 -0.0973 -0.1238
22123SOL     OW68300   5.071   1.931   2.382 -0.4891 -0.2533 -0.3927
22123SOL    HW168301   5.023   1.982   2.317  3.1942  1.9356 -1.7438
22123SOL    HW268302   5.118   1.865   2.331 -0.0698 -0.6515  0.4845
22124SOL     OW68303   2.334   0.211   2.810  0.4377  0.3557  0.0624
22124SOL    HW168304   2.246   0.209   2.848  0.6998  1.0620  0.7230
22124SOL    HW268305   2.327   0.269   2.735  0.3047  0.2806  0.0161
22125SOL     OW68306   1.644   6.211   8.642  0.6551  0.4204 -0.0031
22125SOL    HW168307   1.558   6.180   8.616  0.7260 -0.5272  0.8319
22125SOL    HW268308   1.688   6.232   8.559 -0.6631  1.7995 -0.4091
22126SOL     OW68309   0.800   7.968   7.252  0.0318  0.3045  0.2370
22126SOL    HW168310   0.750   8.049   7.247  1.2421  1.0092 -1.2273
22126SOL    HW268311   0.759   7.919   7.323 -1.1948  1.8702  0.6667
22127SOL     OW68312   5.250   7.161   3.572  0.2144 -0.0523  0.6371
22127SOL    HW168313   5.227   7.173   3.480  0.2887 -1.6955  0.3710
22127SOL    HW268314   5.184   7.100   3.606  0.7634 -0.2356  1.4096
22128SOL     OW68315   0.806   2.336   0.355  0.0240  0.6011  0.4718
22128SOL    HW168316   0.889   2.379   0.374  0.3438 -0.2443  1.0467
22128SOL    HW268317   0.773   2.380   0.277  0.2981  1.9241  1.0828
22129SOL     OW68318   6.434   4.970   5.744  0.0066  0.1244  0.3963
22129SOL    HW168319   6.448   4.877   5.764  0.7687  0.3125  0.7757
22129SOL    HW268320   6.522   5.007   5.739 -0.1347  0.2704 -2.5812
22130SOL     OW68321   4.109   8.103   8.860 -0.0549 -0.5922  0.2406
22130SOL    HW168322   4.155   8.184   8.835  0.3145 -0.1505  2.2126
22130SOL    HW268323   4.155   8.072   8.938 -1.2334 -1.8175  0.4884
22131SOL     OW68324   4.264   7.386   5.994 -0.6275  0.0128 -0.7307
22131SOL    HW168325   4.341   7.432   5.961  0.2367  1.5416  2.8484
22131SOL    HW268326   4.199   7.455   6.006 -1.0209 -0.5025  0.2270
22132SOL     OW68327   3.196   8.296   8.399  0.1875  0.6596  0.1771
22132SOL    HW168328   3.190   8.206   8.431 -0.7743  0.0304 -1.6187
22132SOL    HW268329   3.216   8.286   8.306 -0.8012  2.2738 -0.2375
22133SOL     OW68330   6.245   2.301   0.044  0.0561  0.2082  0.4193
22133SOL    HW168331   6.163   2.350   0.048  0.4191  0.9824 -1.0544
22133SOL    HW268332   6.253   2.273  -0.047  1.0568 -0.5066  0.7046
22134SOL     OW68333   8.759   5.088   4.321  0.3960 -0.4745 -0.1105
22134SOL    HW168334   8.786   5.003   4.357  0.0242  0.0647  1.4851
22134SOL    HW268335   8.842   5.133   4.303  0.5896 -0.6684  0.2777
22135SOL     OW68336   6.131   3.952   6.236  0.1079 -0.1883 -0.5371
22135SOL    HW168337   6.042   3.919   6.226 -0.3782  0.4273  1.2561
22135SOL    HW268338   6.140   4.018   6.167 -0.5374 -0.7915 -1.2203
22136SOL     OW68339   2.745   3.755   0.498  0.0113 -0.1655 -0.6993
22136SOL    HW168340   2.807   3.810   0.451  2.7855 -1.3227  1.3130
22136SOL    HW268341   2.728   3.803   0.580 -0.5670 -0.5854 -0.5642
22137SOL     OW68342   3.524   0.201   0.777  0.0998 -0.1342 -0.1191
22137SOL    HW168343   3.556   0.124   0.730 -1.5301 -2.0119  1.6338
22137SOL    HW268344   3.442   0.172   0.818  0.7310  1.7197  2.7765
22138SOL     OW68345   0.818   2.029   3.897  0.3758  0.1839  0.0247
22138SOL    HW168346   0.779   2.011   3.812  1.5332 -0.6204 -0.3526
22138SOL    HW268347   0.793   1.955   3.952  1.4315 -0.3963 -0.2522
22139SOL     OW68348   2.459   1.840   4.842  0.4728 -0.3491 -0.0616
22139SOL    HW168349   2.423   1.883   4.764  0.7764 -0.4115 -0.2395
22139SOL    HW268350   2.443   1.902   4.913  0.1066 -0.3331 -0.1560
22140SOL     OW68351   4.869   1.973   7.857 -0.2414  0.0718 -0.1457
22140SOL    HW168352   4.937   1.982   7.791 -0.1921 -0.4111 -0.1656
22140SOL    HW268353   4.897   1.898   7.910  1.4939  2.4063  2.5576
22141SOL     OW68354   7.880   2.726   2.742 -0.3276  0.3053 -0.0748
22141SOL    HW168355   7.854   2.757   2.828 -1.0732  1.2903 -0.6321
22141SOL    HW268356   7.916   2.639   2.757 -1.9644 -0.2328  1.0302
22142SOL     OW68357   7.849   0.740   1.588  0.1627 -0.0687 -0.4487
22142SOL    HW168358   7.890   0.658   1.618  0.9380  0.4419 -0.0772
22142SOL    HW268359   7.849   0.733   1.493  0.2766 -0.4755 -0.4212
22143SOL     OW68360   0.954   6.099   5.602  0.0808 -0.2904  0.1384
22143SOL    HW168361   1.042   6.135   5.601 -0.2553  1.1000  4.1614
22143SOL    HW268362   0.901   6.165   5.647 -2.8498 -1.5407 -1.1898
22144SOL     OW68363   5.858   2.447   3.312  0.4831 -0.6357 -0.1064
22144SOL    HW168364   5.825   2.442   3.402  1.3378 -0.6007  0.2233
22144SOL    HW268365   5.799   2.391   3.261  0.1103 -0.8137  0.5144
22145SOL     OW68366   6.002   8.641   0.059  0.1846 -0.2744  0.4587
22145SOL    HW168367   6.051   8.685  -0.011 -1.6060 -1.0304 -1.3792
22145SOL    HW268368   5.993   8.707   0.127  1.4501  0.7079 -0.2684
22146SOL     OW68369   6.490   7.230   6.278  0.2052  0.1487 -0.0766
22146SOL    HW168370   6.448   7.193   6.355 -0.2579  0.1826 -0.3079
22146SOL    HW268371   6.418   7.253   6.220  0.4685  1.4373  0.0701
22147SOL     OW68372   0.577   2.973   0.498  0.2416 -0.4392  0.4154
22147SOL    HW168373   0.646   3.026   0.538  0.3876  1.2422 -1.8182
22147SOL    HW268374   0.495   3.014   0.527  0.3098 -0.0447  0.0602
22148SOL     OW68375   1.593   8.140   3.705  0.3126  0.2159 -0.1258
22148SOL    HW168376   1.517   8.193   3.727 -0.5776 -1.5318  1.2248
22148SOL    HW268377   1.666   8.202   3.704 -1.1261  2.0300 -1.9405
22149SOL     OW68378   3.439   2.286   4.643 -0.1763 -0.5259 -0.1740
22149SOL    HW168379   3.453   2.231   4.720 -1.3298 -0.5426  0.0420
22149SOL    HW268380   3.347   2.272   4.620 -0.3224  0.8357 -0.4938
22150SOL     OW68381   3.436   5.073   3.079  0.2492  0.2054  0.8157
22150SOL    HW168382   3.493   5.118   3.016 -0.1432  1.2824  1.2084
22150SOL    HW268383   3.478   5.087   3.163  1.3767 -2.1757  0.7437
22151SOL     OW68384   6.782   5.863   2.723 -0.1762  0.2048  0.3464
22151SOL    HW168385   6.777   5.811   2.804  0.8859 -1.5182 -0.6536
22151SOL    HW268386   6.712   5.829   2.668 -0.5271  0.9863  0.2865
22152SOL     OW68387   0.354   8.211   1.995 -0.0205 -0.2555 -0.7201
22152SOL    HW168388   0.409   8.183   1.922  0.4622  0.3022 -0.5732
22152SOL    HW268389   0.305   8.286   1.960 -1.4655 -1.3592 -1.1807
22153SOL     OW68390   5.417   1.550   1.693 -0.1618  0.1356  0.3313
22153SOL    HW168391   5.328   1.556   1.657 -0.2571 -1.3916  0.2837
22153SOL    HW268392   5.474   1.571   1.619 -0.4558  0.2393  0.1323
22154SOL     OW68393   7.447   7.332   8.463 -0.4191  0.1674  0.0674
22154SOL    HW168394   7.510   7.345   8.533 -1.2581  2.0055  0.5356
22154SOL    HW268395   7.478   7.254   8.417  1.0678 -0.1131  1.4597
22155SOL     OW68396   1.089   7.334   0.159  0.4751  0.3485  0.4788
22155SOL    HW168397   0.994   7.346   0.158  0.5118  0.6351  0.5376
22155SOL    HW268398   1.117   7.366   0.245  0.9049  2.3961 -0.3702
22156SOL     OW68399   7.589   3.347   0.497  0.4480  0.4760 -0.1967
22156SOL    HW168400   7.556   3.258   0.509  0.3448  0.5484  0.0568
22156SOL    HW268401   7.595   3.358   0.402 -0.5436  0.5631 -0.2602
22157SOL     OW68402   7.206   7.583   0.295 -0.2716  0.4531 -0.2517
22157SOL    HW168403   7.197   7.645   0.224  3.1491 -0.4698 -1.7183
22157SOL    HW268404   7.278   7.617   0.348 -1.1586 -0.1274  1.4088
22158SOL     OW68405   6.749   4.214   5.465  0.2854  0.1188  0.0292
22158SOL    HW168406   6.800   4.167   5.400  1.1965  0.4275  0.5094
22158SOL    HW268407   6.733   4.300   5.426  0.0050 -0.0223 -0.1749
22159SOL     OW68408   0.132   4.193   7.805  0.6160  0.5840  0.1735
22159SOL    HW168409   0.072   4.251   7.758 -0.9905 -1.0763  0.0508
22159SOL    HW268410   0.091   4.180   7.890  0.4433 -1.0521 -0.1292
22160SOL     OW68411   0.750   2.327   8.562  0.1735  0.0223 -0.1733
22160SOL    HW168412   0.661   2.321   8.598  0.4187 -0.8358  0.3118
22160SOL    HW268413   0.760   2.419   8.539 -0.4487  0.3438  0.7911
22161SOL     OW68414   7.715   7.118   4.545  1.0179 -0.2158 -0.4981
22161SOL    HW168415   7.750   7.088   4.629 -0.4322 -1.9361 -0.4508
22161SOL    HW268416   7.703   7.038   4.493  2.2642  0.8265 -2.5487
22162SOL     OW68417   8.036   8.159   1.417 -0.5595 -0.1019  0.0846
22162SOL    HW168418   8.025   8.186   1.509  0.8265 -1.5301  0.7111
22162SOL    HW268419   8.125   8.124   1.413 -1.0337 -1.2033 -1.5207
22163SOL     OW68420   5.096   3.886   8.199  0.2505  0.0071  0.0360
22163SOL    HW168421   5.088   3.818   8.133 -0.8261 -0.0411  0.1884
22163SOL    HW268422   5.014   3.935   8.192  0.5030  0.5448  0.7370
22164SOL     OW68423   4.387   2.801   4.539 -0.4994  1.0037  0.3978
22164SOL    HW168424   4.375   2.712   4.573  3.6782  0.0266 -0.1194
22164SOL    HW268425   4.451   2.841   4.597 -0.2847  2.7223 -0.9376
22165SOL     OW68426   8.571   4.345   4.416 -0.1221  0.0149 -0.1861
22165SOL    HW168427   8.502   4.279   4.403 -0.5777  0.5662 -0.6043
22165SOL    HW268428   8.523   4.426   4.436  0.3372  0.6740 -1.6371
22166SOL     OW68429   2.872   4.026   1.799 -0.2265  0.2235  0.6763
22166SOL    HW168430   2.832   4.081   1.866 -1.3955  0.9847 -0.5986
22166SOL    HW268431   2.915   4.088   1.740  0.4494 -0.4048  0.4887
22167SOL     OW68432   2.437   7.467   1.315  0.3213 -0.2933  0.3960
22167SOL    HW168433   2.381   7.431   1.247 -0.0457  2.3705 -0.8371
22167SOL    HW268434   2.387   7.454   1.396 -0.9413 -0.1933 -0.3409
22168SOL     OW68435   3.867   3.967   0.878  0.4137  0.8211 -0.7671
22168SOL    HW168436   3.890   4.030   0.947 -2.3058  1.0732  0.0268
22168SOL    HW268437   3.949   3.953   0.830  1.5723  3.4142  0.2640
22169SOL     OW68438   4.510   2.727   8.585 -0.1562 -0.0476 -0.3425
22169SOL    HW168439   4.475   2.640   8.601  0.8231 -0.5846 -1.0389
22169SOL    HW268440   4.602   2.713   8.565 -0.0337  1.1302 -0.7050
22170SOL     OW68441   2.655   4.033   8.352 -0.1046  0.0534  0.0349
22170SOL    HW168442   2.709   4.099   8.309 -0.1517 -0.1982 -0.4146
22170SOL    HW268443   2.644   3.964   8.287  1.4956 -1.2839  1.0861
22171SOL     OW68444   5.599   6.514   6.294 -0.5083  0.1855 -0.0288
22171SOL    HW168445   5.514   6.530   6.335 -0.7065  0.7586 -0.6486
22171SOL    HW268446   5.661   6.567   6.345 -1.0892  2.7339 -1.7840
22172SOL     OW68447   0.583   5.556   1.729 -0.1489  0.5016  0.5203
22172SOL    HW168448   0.557   5.481   1.782  0.3964  0.4312  0.6983
22172SOL    HW268449   0.505   5.579   1.680 -0.4899  0.1908  0.9114
22173SOL     OW68450   2.103   4.148   7.933  0.0294  0.1789  0.4486
22173SOL    HW168451   2.124   4.241   7.926  0.0362  0.0718 -1.6314
22173SOL    HW268452   2.180   4.109   7.975  0.6032  0.9203  0.1056
22174SOL     OW68453   2.054   0.743   8.557 -0.2941 -0.1829  0.3903
22174SOL    HW168454   2.144   0.740   8.590 -0.0072 -0.1392 -0.3607
22174SOL    HW268455   2.001   0.765   8.633  0.3975  0.3626  0.7217
22175SOL     OW68456   7.367   0.943   5.045  0.2326  0.2456 -0.0850
22175SOL    HW168457   7.288   0.994   5.060 -0.0924 -0.8280  2.3292
22175SOL    HW268458   7.337   0.854   5.028  0.9073 -0.1005  0.4751
22176SOL     OW68459   7.033   8.250   4.184  0.0322  0.3493 -0.5942
22176SOL    HW168460   7.013   8.307   4.259  0.6987  0.6322 -0.6214
22176SOL    HW268461   7.012   8.303   4.107  0.1938  0.3860 -0.6139
22177SOL     OW68462   7.553   7.795   2.775 -0.1011 -0.2497 -0.1414
22177SOL    HW168463   7.459   7.783   2.791 -0.2230 -1.3244 -1.5288
22177SOL    HW268464   7.596   7.740   2.841 -0.4170  0.2785  0.5262
22178SOL     OW68465   7.596   2.247   0.313 -0.2235 -0.4966  0.7113
22178SOL    HW168466   7.635   2.238   0.400  1.8207 -0.3746 -0.1362
22178SOL    HW268467   7.627   2.171   0.265  0.2064  0.3897 -0.4532
22179SOL     OW68468   1.542   4.362   0.598 -0.1491 -0.2239 -0.1005
22179SOL    HW168469   1.551   4.269   0.619 -2.4504 -0.8582 -1.5697
22179SOL    HW268470   1.538   4.406   0.683 -0.3967 -1.6364  0.6455
22180SOL     OW68471   7.104   6.351   2.055 -0.1164  0.4570 -0.4614
22180SOL    HW168472   7.025   6.371   2.005 -0.0448 -0.0835 -0.7947
22180SOL    HW268473   7.085   6.268   2.098  0.3875  0.1582 -0.8015
22181SOL     OW68474   5.822   6.103   5.710  0.4271  0.2852 -0.6882
22181SOL    HW168475   5.865   6.022   5.685 -0.1201 -0.2314  0.0146
22181SOL    HW268476   5.768   6.126   5.635  0.7340  0.1112 -0.9650
22182SOL     OW68477   7.567   2.889   2.987 -0.2361  0.2868  0.1764
22182SOL    HW168478   7.631   2.826   2.955 -0.2887  0.2999  0.0452
22182SOL    HW268479   7.546   2.943   2.911 -0.4207  0.2669  0.2125
22183SOL     OW68480   8.775   5.632   7.658  0.0477 -0.2050 -0.2853
22183SOL    HW168481   8.861   5.640   7.699 -0.2813 -1.4142  0.6979
22183SOL    HW268482   8.787   5.569   7.587 -0.5394 -2.5459  1.5677
22184SOL     OW68483   7.426   3.105   6.239 -0.7084 -0.4388 -0.1700
22184SOL    HW168484   7.357   3.114   6.305 -0.7874  1.1538 -0.4255
22184SOL    HW268485   7.508   3.112   6.288 -0.7587 -0.0630 -0.1376
22185SOL     OW68486   2.938   2.257   2.904 -0.1979 -0.7220 -0.1440
22185SOL    HW168487   3.000   2.198   2.947  1.4475  0.0516 -1.3594
22185SOL    HW268488   2.990   2.333   2.881 -1.3753 -0.4497 -2.0938
22186SOL     OW68489   1.603   7.757   8.693 -0.3826 -0.1103 -0.3479
22186SOL    HW168490   1.614   7.822   8.762 -0.5265 -0.1772 -0.2610
22186SOL    HW268491   1.653   7.681   8.723  0.0725  0.0813 -0.6134
22187SOL     OW68492   3.461   6.565   6.088 -0.0788 -0.9528 -0.0458
22187SOL    HW168493   3.431   6.507   6.018 -2.2992 -1.1223  0.9764
22187SOL    HW268494   3.526   6.514   6.135 -0.4499 -1.7957 -0.4348
22188SOL     OW68495   6.031   8.213   6.354 -0.2860 -0.0589  0.0764
22188SOL    HW168496   6.001   8.301   6.333 -0.4432  0.3075  1.6912
22188SOL    HW268497   6.107   8.199   6.297 -2.8125 -0.6544 -3.4594
22189SOL     OW68498   7.565   8.377   8.359 -0.6483 -0.2613  0.4725
22189SOL    HW168499   7.638   8.324   8.391  0.4016  0.1183 -1.1192
22189SOL    HW268500   7.586   8.466   8.389 -0.2905 -0.1094 -0.1915
22190SOL     OW68501   1.975   1.842   3.664 -0.2690 -0.4837 -0.3750
22190SOL    HW168502   1.957   1.752   3.690  2.4993 -0.6279  1.4850
22190SOL    HW268503   1.931   1.895   3.731 -0.0906 -0.5582 -0.1961
22191SOL     OW68504   8.277   5.256   6.699  0.0482 -0.2156  0.1969
22191SOL    HW168505   8.274   5.336   6.753  0.8092 -0.8254  1.1844
22191SOL    HW268506   8.364   5.258   6.659  0.6300 -1.2067  1.3264
22192SOL     OW68507   6.930   3.604   2.235  0.1603  0.1968 -0.7275
22192SOL    HW168508   6.934   3.552   2.315  0.3321  1.4842  0.1401
22192SOL    HW268509   7.016   3.646   2.229  0.7547 -1.1087 -2.5049
22193SOL     OW68510   2.693   2.882   6.543 -0.5758 -0.4571  0.3078
22193SOL    HW168511   2.668   2.960   6.493  2.8267  0.1646 -0.6921
22193SOL    HW268512   2.659   2.808   6.492 -2.7981  0.2697  0.6386
22194SOL     OW68513   2.471   8.009   8.640  0.1274  0.5377  0.3039
22194SOL    HW168514   2.520   8.044   8.565 -1.5197  1.4354 -0.3846
22194SOL    HW268515   2.406   8.076   8.661 -0.4921 -0.3971  1.5365
22195SOL     OW68516   1.760   7.252   3.230  0.2813 -0.2142 -0.5944
22195SOL    HW168517   1.732   7.336   3.194 -0.8666 -0.1794  0.3047
22195SOL    HW268518   1.678   7.207   3.251  0.8115 -0.0966  2.2157
22196SOL     OW68519   6.445   3.481   8.738 -0.3092 -0.8101  0.2742
22196SOL    HW168520   6.460   3.389   8.716  0.3486 -1.1565  2.0000
22196SOL    HW268521   6.531   3.513   8.765 -0.8726 -0.2051  1.4134
22197SOL     OW68522   1.804   7.932   8.246  0.1081 -0.0159  0.2378
22197SOL    HW168523   1.768   7.850   8.281 -3.2065  0.6577 -1.1586
22197SOL    HW268524   1.771   7.999   8.305 -0.3124  0.5892 -0.6685
22198SOL     OW68525   4.585   7.143   1.137  0.4403 -0.2015 -0.3103
22198SOL    HW168526   4.630   7.187   1.209  0.9406  1.2676 -1.4675
22198SOL    HW268527   4.652   7.132   1.069  0.8067 -4.3414  0.4721
22199SOL     OW68528   1.248   5.608   7.976 -0.2529  0.6232  0.2396
22199SOL    HW168529   1.215   5.698   7.976 -0.0854  0.7274  1.9435
22199SOL    HW268530   1.174   5.555   8.005  0.1247  0.4470  0.9111
22200SOL     OW68531   0.903   4.782   6.156  0.7253  0.7000 -0.0491
22200SOL    HW168532   0.938   4.734   6.231 -0.7371 -3.0137 -1.5268
22200SOL    HW268533   0.824   4.825   6.190 -0.3374 -1.5354  0.5187
22201SOL     OW68534   2.154   1.307   0.382  0.1691  0.5486  0.4822
22201SOL    HW168535   2.136   1.258   0.462  1.2934 -0.8847 -0.0863
22201SOL    HW268536   2.170   1.240   0.316  1.2425  1.6794 -0.4676
22202SOL     OW68537   2.637   0.995   0.864 -0.3985  0.2159  0.1446
22202SOL    HW168538   2.696   1.034   0.929 -0.1093  0.7765 -0.4505
22202SOL    HW268539   2.644   0.901   0.880  2.5761  0.0345 -1.4472
22203SOL     OW68540   7.788   4.807   7.740  0.4056  0.6435  0.2698
22203SOL    HW168541   7.725   4.766   7.800  0.2884  0.6016  0.1196
22203SOL    HW268542   7.872   4.800   7.785  0.4248  0.0251  0.1475
22204SOL     OW68543   5.997   6.296   3.825  0.7669 -0.1433 -0.5526
22204SOL    HW168544   6.027   6.383   3.853  0.1900  0.4711 -1.7521
22204SOL    HW268545   5.980   6.249   3.907  1.9786  0.5513  0.1268
22205SOL     OW68546   0.584   0.332   8.373 -0.5346 -0.0105 -0.0013
22205SOL    HW168547   0.595   0.367   8.285  0.0861 -0.3745 -0.0742
22205SOL    HW268548   0.673   0.313   8.403 -0.7581 -0.1249  0.6085
22206SOL     OW68549   5.518   4.987   5.342 -0.1845 -0.7410 -0.0110
22206SOL    HW168550   5.529   4.902   5.386  1.0971 -1.9747 -2.5307
22206SOL    HW268551   5.606   5.024   5.338  0.2477 -1.7678 -3.4074
22207SOL     OW68552   2.444   7.874   3.179 -0.2485 -0.8729 -0.1483
22207SOL    HW168553   2.460   7.868   3.085  0.0727  0.8683 -0.2325
22207SOL    HW268554   2.500   7.946   3.209  2.6397 -3.7602  2.0924
22208SOL     OW68555   0.129   2.049   5.472 -0.0093 -0.0463 -0.0315
22208SOL    HW168556   0.134   2.065   5.566 -2.1424 -1.2619  0.3394
22208SOL    HW268557   0.099   1.959   5.465  0.1239  0.0226 -1.8925
22209SOL     OW68558   0.595   7.622   4.786  0.4123 -0.7082  0.0515
22209SOL    HW168559   0.551   7.700   4.752  0.7505 -1.6421 -2.7574
22209SOL    HW268560   0.591   7.632   4.881 -0.1784  2.3668 -0.1909
22210SOL     OW68561   3.657   2.406   0.709 -0.3597  0.4601 -0.6588
22210SOL    HW168562   3.696   2.354   0.779 -0.0728  1.1487 -0.2995
22210SOL    HW268563   3.600   2.345   0.663  0.3640 -0.3030 -0.5604
22211SOL     OW68564   8.175   5.786   3.651 -0.5286  0.4442  0.3357
22211SOL    HW168565   8.252   5.821   3.608  0.6968 -0.2123  1.8801
22211SOL    HW268566   8.148   5.854   3.712 -0.3425  0.1536  0.7495
22212SOL     OW68567   2.880   5.503   0.293 -0.1345 -0.0656  0.3244
22212SOL    HW168568   2.899   5.484   0.201 -0.4556 -2.3694  0.6909
22212SOL    HW268569   2.878   5.599   0.297  3.5677  0.2583 -1.3103
22213SOL     OW68570   0.796   3.527   7.554 -0.1812 -0.1561 -0.2623
22213SOL    HW168571   0.742   3.605   7.557  1.8697  1.3196  0.9432
22213SOL    HW268572   0.884   3.559   7.532  0.5389 -2.2391 -0.6587
22214SOL     OW68573   5.856   0.957   0.959 -0.1642 -0.4677  0.1964
22214SOL    HW168574   5.937   0.946   1.009  0.3541 -0.9001 -0.7124
22214SOL    HW268575   5.791   0.903   1.006  0.0273 -0.0142  1.0014
22215SOL     OW68576   7.824   0.529   4.473 -0.7992  0.8494  0.1410
22215SOL    HW168577   7.857   0.579   4.399 -0.1966  0.1267 -0.0993
22215SOL    HW268578   7.729   0.533   4.465 -0.7417  0.8211 -0.6412
22216SOL     OW68579   8.804   0.338   5.909  0.3690 -0.0247 -0.0936
22216SOL    HW168580   8.835   0.383   5.830 -0.0155 -0.6318 -0.5944
22216SOL    HW268581   8.853   0.256   5.910  0.0724 -0.1992  0.0763
22217SOL     OW68582   8.755   8.666   0.992 -0.0006  0.3377  0.7922
22217SOL    HW168583   8.798   8.616   1.062 -0.5007 -0.3159  0.6466
22217SOL    HW268584   8.718   8.599   0.935  0.9198  0.8442 -0.4528
22218SOL     OW68585   3.991   2.019   7.814  0.3891  0.7929  0.4373
22218SOL    HW168586   3.957   1.936   7.780  0.0486  1.3854 -0.7146
22218SOL    HW268587   4.051   2.049   7.746 -0.5898  2.1878  0.1561
22219SOL     OW68588   6.539   0.987   6.047 -0.3895 -0.0474 -0.7590
22219SOL    HW168589   6.597   1.062   6.061 -0.0589 -0.1409 -1.5634
22219SOL    HW268590   6.532   0.980   5.952 -0.0341 -1.3227 -0.7098
22220SOL     OW68591   8.467   6.105   6.613 -0.2499 -0.4228 -0.0840
22220SOL    HW168592   8.455   6.051   6.691  0.0304 -2.8895 -1.6778
22220SOL    HW268593   8.379   6.133   6.589 -0.3045  0.7106  1.2825
22221SOL     OW68594   1.530   4.022   1.854  0.0222 -0.4203 -0.0594
22221SOL    HW168595   1.499   3.953   1.913 -0.1705  0.8127  1.3552
22221SOL    HW268596   1.452   4.075   1.837  0.6037  0.6751  0.6345
22222SOL     OW68597   1.919   2.658   4.401 -0.7966  0.0319 -0.3542
22222SOL    HW168598   1.870   2.703   4.332  0.4205  1.7034 -0.2047
22222SOL    HW268599   1.974   2.595   4.355 -0.9509  0.2172 -0.7913
22223SOL     OW68600   1.803   3.900   8.671 -0.3544 -0.2780  0.1816
22223SOL    HW168601   1.735   3.840   8.640 -1.0292  0.2171  0.6649
22223SOL    HW268602   1.877   3.884   8.613 -1.1659 -0.2378 -0.9103
22224SOL     OW68603   2.712   1.979   1.056  0.2047  0.2138  0.4454
22224SOL    HW168604   2.639   1.936   1.012  1.9967 -0.6455 -1.8754
22224SOL    HW268605   2.736   1.918   1.126  1.2479 -1.5828 -1.3739
22225SOL     OW68606   0.792   0.316   7.721  0.1590  0.4982  0.1282
22225SOL    HW168607   0.732   0.275   7.659 -0.9403  1.9422  0.2011
22225SOL    HW268608   0.813   0.247   7.783 -1.8612  0.0871  0.4116
22226SOL     OW68609   1.008   2.394   5.350  0.5252 -0.5617 -0.8163
22226SOL    HW168610   1.053   2.374   5.432  1.2716  1.2927 -0.7223
22226SOL    HW268611   1.029   2.486   5.333  1.2072 -1.1489 -3.6041
22227SOL     OW68612   6.293   7.747   8.816  0.6638 -0.0992 -0.0254
22227SOL    HW168613   6.283   7.674   8.755 -4.4606 -1.5249  2.0063
22227SOL    HW268614   6.275   7.825   8.763 -1.7906 -1.1289 -0.8644
22228SOL     OW68615   3.684   0.159   7.909 -0.5562 -0.2908 -0.3232
22228SOL    HW168616   3.593   0.147   7.882 -0.6339  0.4481 -0.4005
22228SOL    HW268617   3.735   0.138   7.831 -0.6594 -0.6078 -0.3082
22229SOL     OW68618   1.918   2.602   6.899 -0.1137  0.2002  0.1789
22229SOL    HW168619   1.868   2.577   6.977  1.0765 -1.2789  0.5132
22229SOL    HW268620   1.994   2.648   6.933 -0.1149  0.4639 -0.1726
22230SOL     OW68621   0.189   1.812   7.664  0.3646 -0.6781 -0.6781
22230SOL    HW168622   0.191   1.753   7.739 -0.1859 -0.6335 -0.6272
22230SOL    HW268623   0.227   1.762   7.592  0.4426 -0.8862 -0.4924
22231SOL     OW68624   2.694   8.144   8.838  0.1841 -0.3248  0.1641
22231SOL    HW168625   2.634   8.132   8.764  0.4515 -1.6597  0.1402
22231SOL    HW268626   2.763   8.202   8.804  0.1027 -0.6212 -0.5154
22232SOL     OW68627   3.900   6.915   6.230 -0.1015  0.1861 -0.0571
22232SOL    HW168628   3.941   7.001   6.239 -1.7529  1.1960 -1.5432
22232SOL    HW268629   3.970   6.853   6.247  1.2074  1.8142  0.7710
22233SOL     OW68630   3.341   3.431   0.446  0.4814 -0.5352  0.5443
22233SOL    HW168631   3.387   3.510   0.417 -0.3115  0.3819  1.6951
22233SOL    HW268632   3.252   3.442   0.414  0.8264 -1.9447 -1.0159
22234SOL     OW68633   4.358   6.457   8.332  0.2817 -0.0706  0.1315
22234SOL    HW168634   4.420   6.435   8.263  1.6650  1.1116  0.9496
22234SOL    HW268635   4.343   6.551   8.321 -3.2204 -0.6412 -1.4840
22235SOL     OW68636   4.381   7.631   0.982 -1.2459 -0.1283  0.1037
22235SOL    HW168637   4.444   7.565   1.012 -0.8459  0.1987 -0.0053
22235SOL    HW268638   4.358   7.679   1.061 -0.2558  0.6787 -0.0797
22236SOL     OW68639   5.851   5.983   6.661 -0.0603  0.6677  0.2401
22236SOL    HW168640   5.772   5.963   6.611  1.4063 -0.1133 -1.8846
22236SOL    HW268641   5.847   6.078   6.675  0.3215  1.2706 -3.0098
22237SOL     OW68642   0.253   4.276   2.369  0.4203 -0.3019  0.2917
22237SOL    HW168643   0.161   4.266   2.343 -0.2847 -0.3914  2.6385
22237SOL    HW268644   0.294   4.193   2.342 -0.4439 -0.7352  0.2647
22238SOL     OW68645   0.291   1.354   7.828 -0.1047  0.1491 -0.3453
22238SOL    HW168646   0.300   1.367   7.733  0.9978 -0.3905 -0.3293
22238SOL    HW268647   0.282   1.442   7.863 -1.3246  0.3163 -1.0115
22239SOL     OW68648   1.658   0.838   5.620 -0.1649 -0.0908 -0.0346
22239SOL    HW168649   1.704   0.922   5.621  1.6866 -1.0525  1.2514
22239SOL    HW268650   1.622   0.831   5.709 -0.2244 -0.7108 -0.1089
22240SOL     OW68651   8.234   4.865   1.826 -0.0483  0.0677  0.0847
22240SOL    HW168652   8.303   4.931   1.822  1.3447 -1.4032 -2.0077
22240SOL    HW268653   8.279   4.785   1.850 -1.3642 -0.5809  0.4929
22241SOL     OW68654   7.220   4.203   5.676  0.1687 -0.3636  0.1759
22241SOL    HW168655   7.146   4.161   5.719  0.4878  0.1338  1.2619
22241SOL    HW268656   7.182   4.249   5.601 -0.4811 -0.8652  0.1965
22242SOL     OW68657   4.895   6.431   3.287  0.5216  0.0173 -0.0135
22242SOL    HW168658   4.990   6.439   3.276  0.6275  0.9518  1.3086
22242SOL    HW268659   4.872   6.500   3.350 -0.7996 -1.2641  0.9766
22243SOL     OW68660   7.698   3.800   1.476  0.0636  0.2380  0.4847
22243SOL    HW168661   7.688   3.800   1.381  1.4200 -0.3820  0.3193
22243SOL    HW268662   7.698   3.893   1.500  0.3268  0.4193 -0.2045
22244SOL     OW68663   5.250   5.314   5.425 -0.1799 -0.2207  0.2285
22244SOL    HW168664   5.203   5.353   5.352 -0.2222 -1.4594 -0.4433
22244SOL    HW268665   5.207   5.349   5.503 -0.1247  1.1241 -0.3243
22245SOL     OW68666   0.607   1.747   7.485  0.8181  0.0033  0.1549
22245SOL    HW168667   0.642   1.695   7.557  0.0551  2.2319  2.2852
22245SOL    HW268668   0.538   1.692   7.447  1.7171 -1.5090  0.6276
22246SOL     OW68669   0.581   5.685   6.856 -0.6515  0.2282  0.3302
22246SOL    HW168670   0.673   5.667   6.877  0.2036  2.8675 -0.7449
22246SOL    HW268671   0.572   5.655   6.765 -1.4606 -1.7440  0.9984
22247SOL     OW68672   1.016   8.286   6.146  0.0862 -0.6235  0.3446
22247SOL    HW168673   1.070   8.249   6.076 -1.3159 -1.1736 -0.4952
22247SOL    HW268674   0.926   8.273   6.116 -0.6049 -1.7278  2.6856
22248SOL     OW68675   7.779   2.939   1.245  0.0736 -0.1086 -0.5559
22248SOL    HW168676   7.746   2.984   1.323 -0.6876  0.2281 -1.0518
22248SOL    HW268677   7.756   2.998   1.173  0.3324 -0.6414 -1.0807
22249SOL     OW68678   4.982   2.240   5.317  0.1587  0.5707  0.0937
22249SOL    HW168679   5.051   2.178   5.292 -0.5756 -0.1502 -0.1794
22249SOL    HW268680   4.902   2.203   5.280 -0.4173  1.2842  0.6027
22250SOL     OW68681   7.553   5.548   4.195  0.1229  0.2516  0.1447
22250SOL    HW168682   7.484   5.481   4.194 -0.6106  0.9952  0.0095
22250SOL    HW268683   7.506   5.630   4.203  0.9227  0.8802 -1.2719
22251SOL     OW68684   3.670   6.761   6.226  0.0837  0.1357  0.2590
22251SOL    HW168685   3.613   6.805   6.163 -0.6841 -1.8244 -0.4665
22251SOL    HW268686   3.742   6.823   6.240 -1.9129  2.4686  0.8195
22252SOL     OW68687   8.061   3.810   1.332  0.0201  0.2480  0.0550
22252SOL    HW168688   8.046   3.895   1.375 -0.5325 -0.4924  1.3858
22252SOL    HW268689   8.046   3.827   1.239  0.1202  1.6501  0.2689
22253SOL     OW68690   7.191   6.602   2.506 -0.1685  0.5328  0.3308
22253SOL    HW168691   7.199   6.550   2.426 -1.6806  1.2723 -0.3276
22253SOL    HW268692   7.097   6.601   2.526 -0.1253  2.3385  0.7472
22254SOL     OW68693   3.491   0.959   2.168 -0.1286 -0.7274 -0.5519
22254SOL    HW168694   3.427   0.928   2.231  0.5913  0.5878  0.8749
22254SOL    HW268695   3.576   0.940   2.208  0.3389  0.1015 -1.1191
22255SOL     OW68696   3.711   1.738   6.268  0.5098 -0.0100  0.5110
22255SOL    HW168697   3.657   1.750   6.347  0.1596 -1.4933  0.5282
22255SOL    HW268698   3.716   1.643   6.257  2.9590  0.0887  0.3721
22256SOL     OW68699   1.491   2.922   3.585 -0.3209 -0.2499  0.6446
22256SOL    HW168700   1.471   2.983   3.655  0.3015  1.2306 -0.4261
22256SOL    HW268701   1.545   2.972   3.523  0.1150 -1.8396 -0.3304
22257SOL     OW68702   5.607   1.711   0.799 -0.2353  0.3343 -0.1678
22257SOL    HW168703   5.695   1.745   0.819  0.2801  0.5221 -2.4950
22257SOL    HW268704   5.611   1.686   0.707 -1.9220 -2.0138  0.3019
22258SOL     OW68705   0.002   6.293   4.830 -0.3507 -0.5871 -0.2021
22258SOL    HW168706  -0.083   6.264   4.798 -0.9350  0.0728  0.7109
22258SOL    HW268707  -0.015   6.380   4.867  0.5894 -0.7245  0.5765
22259SOL     OW68708   0.484   5.251   0.796  0.0596  0.1292  0.1441
22259SOL    HW168709   0.436   5.200   0.860  1.7655  1.4228  2.6163
22259SOL    HW268710   0.566   5.203   0.783  0.3199  0.5891  0.0280
22260SOL     OW68711   8.401   3.911   7.871  0.5262  0.3664  0.3451
22260SOL    HW168712   8.371   3.832   7.826  0.3201  0.1325  0.8839
22260SOL    HW268713   8.339   3.979   7.845 -0.6861 -0.1767  1.6761
22261SOL     OW68714   2.874   5.035   3.415 -0.3789  0.3742 -0.0597
22261SOL    HW168715   2.782   5.041   3.390  0.1354  0.4669 -2.0664
22261SOL    HW268716   2.922   5.048   3.334  1.3955 -1.8087  0.5354
22262SOL     OW68717   1.710   8.479   6.077  0.2777  0.9832 -0.1465
22262SOL    HW168718   1.708   8.431   6.160  1.6630  1.0794 -0.0381
22262SOL    HW268719   1.779   8.545   6.088  1.1342  0.4038 -1.6882
22263SOL     OW68720   3.289   3.923   4.450 -0.3837 -0.4864 -0.2518
22263SOL    HW168721   3.234   3.863   4.400 -0.6654  0.2838 -0.8945
22263SOL    HW268722   3.377   3.888   4.441 -0.9375 -2.9702  2.5766
22264SOL     OW68723   2.479   3.440   7.907  0.4565  0.0363 -0.7069
22264SOL    HW168724   2.566   3.461   7.941 -0.2220 -0.2001  1.3670
22264SOL    HW268725   2.430   3.521   7.915 -0.1882 -0.4426  0.5967
22265SOL     OW68726   4.022   7.922   5.627 -0.4785  0.6901  0.1419
22265SOL    HW168727   4.031   7.982   5.553 -0.4847  0.4369 -0.0680
22265SOL    HW268728   4.095   7.861   5.618 -0.5519  0.5816  0.2722
22266SOL     OW68729   7.134   3.651   3.558  0.3469  0.6236 -0.2455
22266SOL    HW168730   7.122   3.565   3.517 -0.2636  0.6448 -0.1238
22266SOL    HW268731   7.199   3.695   3.504  0.3352  0.2488 -0.5657
22267SOL     OW68732   8.306   3.638   1.921 -0.4825  0.0400 -0.3687
22267SOL    HW168733   8.259   3.612   2.001 -2.1167 -1.5694 -1.7786
22267SOL    HW268734   8.295   3.733   1.917 -0.1580  0.1912  1.4157
22268SOL     OW68735   6.856   0.862   5.998 -0.2121 -0.4536 -0.0930
22268SOL    HW168736   6.942   0.856   6.039 -1.8682 -1.6107  3.6526
22268SOL    HW268737   6.818   0.943   6.033  0.0546  1.4124 -3.6229
22269SOL     OW68738   2.680   8.394   5.006  0.2092  0.4525  0.2477
22269SOL    HW168739   2.676   8.484   5.040  0.9685  0.6996 -0.2980
22269SOL    HW268740   2.628   8.343   5.068  1.4756  0.8986  1.7372
22270SOL     OW68741   6.847   8.286   3.498 -0.7790  0.1232  0.0117
22270SOL    HW168742   6.797   8.311   3.421 -0.4543  2.1972  0.4160
22270SOL    HW268743   6.782   8.280   3.568 -0.7888  0.4275  0.0307
22271SOL     OW68744   6.666   4.608   0.355  0.1953 -0.3039  0.0885
22271SOL    HW168745   6.747   4.566   0.325 -0.0901 -1.6501  1.1170
22271SOL    HW268746   6.666   4.693   0.311  1.6869 -0.6584 -0.6784
22272SOL     OW68747   5.626   0.773   3.266  0.3485 -0.1927  0.9052
22272SOL    HW168748   5.695   0.707   3.254  0.9251  0.6250 -0.4988
22272SOL    HW268749   5.650   0.844   3.207 -2.2792 -0.3200 -0.4759
22273SOL     OW68750   5.104   0.774   4.845  0.2234  0.4141 -0.2627
22273SOL    HW168751   5.104   0.805   4.754 -0.2063 -1.9121 -1.1230
22273SOL    HW268752   5.020   0.730   4.855  0.5136  0.1243  1.0905
22274SOL     OW68753   6.534   3.603   3.417  0.3471  0.0428  0.0544
22274SOL    HW168754   6.545   3.646   3.332 -0.0951  0.8675  0.3972
22274SOL    HW268755   6.456   3.644   3.454 -0.2764 -1.2996  0.2726
22275SOL     OW68756   2.713   0.147   3.252 -0.4891 -0.1159 -0.0097
22275SOL    HW168757   2.684   0.208   3.184 -1.1284 -0.3924  0.0126
22275SOL    HW268758   2.805   0.170   3.266 -0.8538  1.2204  0.4026
22276SOL     OW68759   4.195   3.544   5.865  0.1365 -0.5014  0.1010
22276SOL    HW168760   4.130   3.498   5.917  1.3122 -2.9184 -0.4045
22276SOL    HW268761   4.183   3.510   5.776  1.3509 -0.1552 -0.2131
22277SOL     OW68762   8.465   2.935   4.384  0.8340  0.7481 -0.4904
22277SOL    HW168763   8.436   3.007   4.328  0.0618  1.0246  0.2395
22277SOL    HW268764   8.397   2.868   4.374  1.6057  0.0649 -1.2524
22278SOL     OW68765   5.444   3.329   5.810  0.1105 -0.1731  0.6054
22278SOL    HW168766   5.488   3.405   5.770  0.6307 -0.4514  0.6440
22278SOL    HW268767   5.422   3.358   5.898 -0.4592  0.2222  0.3440
22279SOL     OW68768   5.326   1.496   4.298  0.0864  0.8507 -0.2249
22279SOL    HW168769   5.322   1.574   4.353  2.0480  2.1324 -1.7579
22279SOL    HW268770   5.241   1.454   4.309 -0.8529  2.9403  1.0201
22280SOL     OW68771   6.768   6.654   6.470  0.5049  0.5981 -0.7997
22280SOL    HW168772   6.849   6.617   6.435  0.1185  1.0163 -2.2232
22280SOL    HW268773   6.796   6.727   6.526  1.1609 -0.3014  0.0753
22281SOL     OW68774   0.124   4.236   4.739  0.1222 -0.3282  0.0652
22281SOL    HW168775   0.115   4.142   4.723  0.7251 -0.1339 -1.5019
22281SOL    HW268776   0.163   4.241   4.827  1.5180 -1.5878 -0.4387
22282SOL     OW68777   2.036   0.157   4.265 -0.0272 -0.3313 -0.3662
22282SOL    HW168778   2.062   0.068   4.288 -0.2504 -0.3459 -0.1693
22282SOL    HW268779   2.024   0.155   4.170  3.4125  0.3482 -0.9634
22283SOL     OW68780   5.718   8.329   8.354  0.6572  0.2053  0.2040
22283SOL    HW168781   5.718   8.277   8.434 -0.5911 -0.6009 -0.2836
22283SOL    HW268782   5.642   8.297   8.304  0.5711  1.6541 -0.6676
22284SOL     OW68783   3.440   7.754   6.416  0.2305 -0.2714  0.2086
22284SOL    HW168784   3.407   7.665   6.410  0.5426 -0.4757  1.4501
22284SOL    HW268785   3.521   7.747   6.467  0.9309  0.5536 -0.7469
22285SOL     OW68786   8.445   8.779   5.316  0.1299 -0.0740  0.3871
22285SOL    HW168787   8.376   8.712   5.313  0.0123  0.0658 -0.2417
22285SOL    HW268788   8.431   8.831   5.237 -2.0247  2.9609  2.5045
22286SOL     OW68789   1.706   5.513   2.295 -0.0883 -0.2392 -0.4610
22286SOL    HW168790   1.658   5.465   2.227  1.9492 -2.1912 -0.6568
22286SOL    HW268791   1.798   5.496   2.275  0.6490  1.7204  1.0257
22287SOL     OW68792   7.259   4.615   3.542  0.0882  0.1564  0.1718
22287SOL    HW168793   7.281   4.598   3.634 -0.8534 -0.9196  0.2240
22287SOL    HW268794   7.219   4.702   3.542 -3.0035 -1.1119  1.3763
22288SOL     OW68795   6.993   1.628   1.954 -0.1330  0.2114 -0.2611
22288SOL    HW168796   7.064   1.564   1.957 -1.2864 -1.0843  0.8475
22288SOL    HW268797   6.983   1.648   1.861  0.5224 -0.9030 -0.5868
22289SOL     OW68798   4.846   6.639   2.844  0.5251  0.3659  0.2198
22289SOL    HW168799   4.912   6.643   2.774  3.2551 -1.7559  2.4694
22289SOL    HW268800   4.800   6.557   2.828 -0.9253  1.3114 -0.6986
22290SOL     OW68801   1.002   7.367   2.720 -0.0917  0.2095 -0.2537
22290SOL    HW168802   0.925   7.397   2.671 -0.7752 -0.9594  0.0821
22290SOL    HW268803   1.072   7.426   2.692 -1.0495  1.1557 -0.7312
22291SOL     OW68804   6.012   0.135   5.765  0.1205 -0.5725  0.4213
22291SOL    HW168805   6.039   0.217   5.722  0.8590 -1.3486 -0.6589
22291SOL    HW268806   6.053   0.139   5.851  1.9234 -0.6959 -0.3728
22292SOL     OW68807   4.595   7.242   5.007  0.2384 -0.8562 -0.3801
22292SOL    HW168808   4.538   7.263   4.933 -0.7763  0.0671  0.6268
22292SOL    HW268809   4.683   7.260   4.975 -0.3667  2.5087 -0.4745
22293SOL     OW68810   3.056   7.662   7.732 -0.6830 -0.0298 -0.2628
22293SOL    HW168811   3.131   7.722   7.731  0.3939 -1.3500 -1.0207
22293SOL    HW268812   3.093   7.577   7.711 -2.2633 -0.8992  0.3171
22294SOL     OW68813   6.538   1.420   5.825 -0.2769  0.2111  0.2117
22294SOL    HW168814   6.588   1.366   5.886 -0.5698 -1.2616 -0.8045
22294SOL    HW268815   6.567   1.391   5.739  0.3490  2.4525 -0.3857
22295SOL     OW68816   0.690   4.281   4.514  0.2061 -0.3969 -0.4155
22295SOL    HW168817   0.613   4.225   4.527  0.1553 -0.0275  1.0380
22295SOL    HW268818   0.670   4.330   4.434 -0.9361 -0.5215 -0.2280
22296SOL     OW68819   4.430   2.950   3.979  0.3999 -0.5329  0.1118
22296SOL    HW168820   4.496   2.885   4.003  2.2964  1.3991  0.3418
22296SOL    HW268821   4.385   2.911   3.904  2.5159 -1.4735 -0.7531
22297SOL     OW68822   1.173   6.228   1.145 -0.0135  0.5455 -0.0978
22297SOL    HW168823   1.112   6.191   1.081  1.4735 -0.2352 -1.1043
22297SOL    HW268824   1.141   6.197   1.230 -1.2112  0.4619 -0.5550
22298SOL     OW68825   1.552   8.029   5.249 -0.3385  0.2763 -0.1701
22298SOL    HW168826   1.595   7.996   5.328 -0.7141 -1.8569 -0.8010
22298SOL    HW268827   1.518   8.115   5.275  1.0869  0.4149  1.4289
22299SOL     OW68828   4.519   7.185   4.314 -0.7944 -0.3087 -0.0123
22299SOL    HW168829   4.570   7.168   4.393 -1.9652 -1.6319  0.4880
22299SOL    HW268830   4.542   7.114   4.254 -2.5668 -1.4049  0.5147
22300SOL     OW68831   5.407   7.870   5.551  0.0696 -0.6644 -0.1641
22300SOL    HW168832   5.462   7.896   5.625 -1.1166 -0.7545  0.7847
22300SOL    HW268833   5.388   7.778   5.567  0.6183 -0.9532 -1.1318
22301SOL     OW68834   1.845   0.947   3.925  0.0051  0.1030  0.8082
22301SOL    HW168835   1.770   0.987   3.882 -1.7342 -2.1178  1.5888
22301SOL    HW268836   1.829   0.958   4.019  0.5163 -0.5920  0.9932
22302SOL     OW68837   8.407   4.110   8.048  0.1807 -0.6263  0.1695
22302SOL    HW168838   8.323   4.104   8.093 -0.5044  0.8785 -0.8461
22302SOL    HW268839   8.417   4.025   8.004 -1.2037 -0.5275 -0.3733
22303SOL     OW68840   6.466   0.504   1.110 -0.1834  0.3320  0.3276
22303SOL    HW168841   6.561   0.492   1.109 -0.2707 -0.3839 -0.9578
22303SOL    HW268842   6.435   0.456   1.033 -1.3783  2.3822 -0.5321
22304SOL     OW68843   4.986   2.495   5.233  0.0217 -0.3276  0.1937
22304SOL    HW168844   5.044   2.522   5.304 -0.7713 -1.0352  1.1248
22304SOL    HW268845   4.963   2.405   5.253 -1.6257  0.0232  0.0068
22305SOL     OW68846   3.366   4.468   5.961  0.9095  0.2128 -0.0754
22305SOL    HW168847   3.362   4.376   5.984  0.3775  0.4504  0.8131
22305SOL    HW268848   3.399   4.469   5.871  2.0401 -0.7797  0.3052
22306SOL     OW68849   8.627   4.895   2.505 -0.0388  0.5994 -0.5910
22306SOL    HW168850   8.695   4.910   2.570 -1.3406  0.8254  0.7757
22306SOL    HW268851   8.649   4.811   2.466 -0.5735 -0.8160  1.9566
22307SOL     OW68852   1.039   4.064   1.639 -0.2297 -0.0756 -0.3669
22307SOL    HW168853   1.117   4.107   1.605 -0.0766  0.1305  0.2185
22307SOL    HW268854   1.072   3.989   1.688 -0.4827 -0.7479 -1.1993
22308SOL     OW68855   5.705   2.318   8.693  0.0355  0.3961  0.0366
22308SOL    HW168856   5.798   2.300   8.697 -0.1100 -0.2956  0.3886
22308SOL    HW268857   5.668   2.248   8.640 -0.5952 -0.6606  1.7908
22309SOL     OW68858   3.686   8.331   7.463 -0.0860 -0.4525 -0.1459
22309SOL    HW168859   3.692   8.293   7.376 -1.9758 -0.4628 -0.3211
22309SOL    HW268860   3.726   8.418   7.455  0.4200 -0.7451 -0.8270
22310SOL     OW68861   1.425   3.550   8.582 -0.8073 -0.0802  0.3616
22310SOL    HW168862   1.482   3.477   8.558  0.5829  0.6291  1.4000
22310SOL    HW268863   1.377   3.519   8.658 -0.1447  0.0994  0.8636
22311SOL     OW68864   2.110   6.545   5.356 -0.3961 -0.3865 -0.2370
22311SOL    HW168865   2.113   6.451   5.334 -1.5407 -0.7186  0.9145
22311SOL    HW268866   2.028   6.556   5.404  0.0803  1.0690  0.2981
22312SOL     OW68867   7.099   5.290   8.169  0.4368  0.2154 -0.1316
22312SOL    HW168868   7.011   5.290   8.132  0.5157 -1.3399 -0.3852
22312SOL    HW268869   7.142   5.365   8.128 -1.0871  1.7018  0.8802
22313SOL     OW68870   3.403   4.564   7.390  0.0031  0.4190  0.4989
22313SOL    HW168871   3.329   4.573   7.449 -0.4671 -0.8796  0.1559
22313SOL    HW268872   3.364   4.544   7.305  0.6924  1.6622 -0.1331
22314SOL     OW68873   0.555   4.371   4.759 -0.0960  0.1964  0.1454
22314SOL    HW168874   0.604   4.379   4.678  2.3041  0.1489  1.4927
22314SOL    HW268875   0.516   4.283   4.756  0.5983 -0.0922 -0.6108
22315SOL     OW68876   3.681   2.337   1.731  0.2640  0.1155 -0.2478
22315SOL    HW168877   3.692   2.369   1.642 -1.0651 -0.8947 -0.8066
22315SOL    HW268878   3.752   2.275   1.743  1.4717  1.4866  0.0355
22316SOL     OW68879   1.253   7.472   1.197  0.1396  0.1940  0.3898
22316SOL    HW168880   1.349   7.474   1.193  0.1274  1.7156  0.4235
22316SOL    HW268881   1.235   7.436   1.284  0.7019  0.7140  0.7366
22317SOL     OW68882   2.161   6.751   7.490 -0.1031 -0.0211 -0.9348
22317SOL    HW168883   2.183   6.718   7.577  3.1936 -0.9284 -1.9766
22317SOL    HW268884   2.107   6.828   7.507 -1.4952 -1.4631  1.7908
22318SOL     OW68885   6.008   2.367   5.103  0.2045 -0.1042  0.1578
22318SOL    HW168886   5.959   2.295   5.064  0.2824  0.0489 -0.2286
22318SOL    HW268887   5.948   2.407   5.165  0.1072 -0.4036  0.2568
22319SOL     OW68888   5.189   3.117   4.459  0.1900  0.2332  0.3073
22319SOL    HW168889   5.261   3.059   4.434  1.6645  1.4994  1.3999
22319SOL    HW268890   5.116   3.091   4.403  1.3413 -1.4445 -0.4800
22320SOL     OW68891   6.528   0.726   3.832  0.0946 -0.0014 -0.0768
22320SOL    HW168892   6.458   0.754   3.891  0.5499  1.0415 -0.0129
22320SOL    HW268893   6.497   0.751   3.745  0.2337  0.1647 -0.0803
22321SOL     OW68894   0.298   3.906   6.464  0.1168 -0.3800  0.5420
22321SOL    HW168895   0.337   3.822   6.440  2.2931  0.1991  1.7472
22321SOL    HW268896   0.269   3.945   6.382 -1.4766 -2.5179  0.0206
22322SOL     OW68897   0.253   1.826   2.251 -0.3305  0.0455  0.1018
22322SOL    HW168898   0.236   1.916   2.225  1.5500 -0.0045 -1.5305
22322SOL    HW268899   0.347   1.823   2.267 -0.6717 -1.1501  2.2797
22323SOL     OW68900   7.165   3.196   3.992  0.0219 -0.0907 -0.0649
22323SOL    HW168901   7.191   3.145   3.915 -1.0535 -0.2876 -0.3260
22323SOL    HW268902   7.115   3.269   3.955  1.0008  0.8127  0.3479
22324SOL     OW68903   1.642   6.720   2.924 -0.2589 -0.0658  0.4717
22324SOL    HW168904   1.619   6.628   2.912  0.3525 -0.0502 -1.0971
22324SOL    HW268905   1.726   6.729   2.879 -0.0725  1.1545  1.0308
22325SOL     OW68906   0.640   2.613   2.584 -0.0783 -0.0900  0.0314
22325SOL    HW168907   0.654   2.677   2.653 -0.9724  1.1393 -0.8780
22325SOL    HW268908   0.581   2.657   2.522 -1.1881 -2.0099 -0.3402
22326SOL     OW68909   6.954   4.321   1.633 -0.0448  0.2353  0.4993
22326SOL    HW168910   7.043   4.297   1.606  0.2935  1.6501  0.2649
22326SOL    HW268911   6.899   4.250   1.600  0.7907  0.1730 -0.8534
22327SOL     OW68912   1.901   3.271   3.348  0.6161 -0.2035 -0.3744
22327SOL    HW168913   1.950   3.314   3.418  0.8527 -0.4934 -0.3610
22327SOL    HW268914   1.936   3.308   3.268  1.5918 -1.1466 -0.4154
22328SOL     OW68915   8.428   7.137   1.248 -0.3094 -0.1629 -0.3754
22328SOL    HW168916   8.457   7.050   1.273  0.6448  0.4094  0.6142
22328SOL    HW268917   8.464   7.195   1.316 -0.2285  1.0999 -1.4438
22329SOL     OW68918   0.131   6.733   2.870  0.2633  0.3002  0.8233
22329SOL    HW168919   0.140   6.789   2.793 -0.3698  0.7638  1.0847
22329SOL    HW268920   0.049   6.685   2.856  1.0318 -0.9371  0.3671
22330SOL     OW68921   7.217   0.763   2.806 -0.3067  0.0100  0.3347
22330SOL    HW168922   7.254   0.676   2.819  0.6410  0.2400 -0.6973
22330SOL    HW268923   7.262   0.797   2.729 -0.8375  1.3234  0.5788
22331SOL     OW68924   5.051   2.217   3.626  0.1035  0.2702 -0.1361
22331SOL    HW168925   4.973   2.268   3.649 -0.0867  0.1726 -0.5503
22331SOL    HW268926   5.039   2.196   3.533  0.4621 -0.0313 -0.1157
22332SOL     OW68927   5.059   8.505   0.613 -0.2073  0.0175 -0.0343
22332SOL    HW168928   5.015   8.422   0.595 -0.1935  0.2274 -1.1492
22332SOL    HW268929   5.033   8.561   0.540  2.6251 -0.1256 -1.2944
22333SOL     OW68930   7.571   7.570   5.988 -0.1068 -0.3319 -0.3540
22333SOL    HW168931   7.516   7.497   5.961 -1.8541  0.1704  1.5840
22333SOL    HW268932   7.509   7.642   6.002  1.5711  1.7089 -2.5349
22334SOL     OW68933   2.428   4.753   5.053  0.2886 -0.3774 -0.4935
22334SOL    HW168934   2.523   4.739   5.042  0.8146 -0.1117  2.6881
22334SOL    HW268935   2.396   4.771   4.965  3.3560  0.4549 -1.5689
22335SOL     OW68936   7.947   0.460   1.597  0.2104  0.0831 -0.2311
22335SOL    HW168937   7.871   0.432   1.547  0.8175  0.7934 -1.6140
22335SOL    HW268938   8.021   0.449   1.536  1.0182  0.6770  0.6133
22336SOL     OW68939   4.381   1.393   1.625  0.5738 -0.8626 -0.4413
22336SOL    HW168940   4.341   1.452   1.562  1.8334 -0.2146 -0.6661
22336SOL    HW268941   4.391   1.446   1.704 -0.3390 -1.4618  0.1067
22337SOL     OW68942   5.283   5.623   5.726 -0.1725  0.0172  0.1248
22337SOL    HW168943   5.363   5.660   5.763 -0.9276  0.9608  0.8579
22337SOL    HW268944   5.212   5.673   5.766 -1.1639 -1.0826 -0.1873
22338SOL     OW68945   7.494   3.832   0.003 -0.3207  0.1258  0.3000
22338SOL    HW168946   7.425   3.772   0.031 -0.8422 -0.1275 -1.4319
22338SOL    HW268947   7.573   3.799   0.045 -0.9971 -0.4253  1.1732
22339SOL     OW68948   5.978   7.564   6.255 -0.3536 -0.3573  0.2913
22339SOL    HW168949   5.957   7.601   6.169 -1.2016  0.3910  0.8029
22339SOL    HW268950   5.898   7.518   6.282 -0.1528 -0.4494  0.7437
22340SOL     OW68951   5.036   5.523   1.995  0.2687 -0.9025  0.0547
22340SOL    HW168952   4.990   5.596   2.035  2.4357  0.2977  0.5050
22340SOL    HW268953   4.967   5.460   1.972 -1.6630  1.2441 -0.3340
22341SOL     OW68954   0.447   0.981   4.878 -0.2516  0.2706 -0.8305
22341SOL    HW168955   0.422   0.947   4.964  0.0228  0.4227 -0.6891
22341SOL    HW268956   0.491   0.908   4.835 -0.8699  0.0252 -1.0519
22342SOL     OW68957   3.179   3.643   7.507 -0.2003  0.3975 -0.2156
22342SOL    HW168958   3.134   3.665   7.426 -1.2950  1.0013  0.5275
22342SOL    HW268959   3.268   3.619   7.480 -0.4274  0.9766 -1.5350
22343SOL     OW68960   2.752   0.797   5.254 -0.3216  0.2693  0.2485
22343SOL    HW168961   2.796   0.819   5.336 -0.9224 -1.8622  1.2278
22343SOL    HW268962   2.671   0.752   5.282 -1.4292  1.0770 -1.5151
22344SOL     OW68963   0.475   5.084   7.966  0.5779  0.9212  0.0838
22344SOL    HW168964   0.537   5.048   8.029  0.6605  0.9649  0.0301
22344SOL    HW268965   0.462   5.015   7.902  2.6571  1.7792 -1.4001
22345SOL     OW68966   0.443   0.202   1.394 -0.8560  0.2171 -0.6356
22345SOL    HW168967   0.403   0.121   1.363 -1.9913  0.2393  0.6623
22345SOL    HW268968   0.378   0.240   1.452  0.1377  1.4645 -0.2970
22346SOL     OW68969   3.017   1.754   0.976  0.3293  0.5563  0.0723
22346SOL    HW168970   2.994   1.841   0.944  1.0019  0.8943  0.4674
22346SOL    HW268971   2.947   1.731   1.038 -0.6865  0.1262 -1.2005
22347SOL     OW68972   2.976   3.316   1.512  0.1809  0.4725 -0.4930
22347SOL    HW168973   2.915   3.378   1.554 -0.7534 -0.6203 -0.1772
22347SOL    HW268974   3.054   3.319   1.567 -1.1263 -1.1427  1.6242
22348SOL     OW68975   1.421   5.153   3.568  0.2944  0.0870 -0.2047
22348SOL    HW168976   1.404   5.247   3.574 -1.2361 -0.1809 -0.1189
22348SOL    HW268977   1.356   5.113   3.626  0.4555 -1.0717 -0.8065
22349SOL     OW68978   2.752   0.165   8.281 -0.1522 -0.1857  0.1835
22349SOL    HW168979   2.699   0.227   8.231  0.1395  0.0873  0.2118
22349SOL    HW268980   2.831   0.214   8.304  0.2340 -0.6678 -0.0896
22350SOL     OW68981   2.446   1.714   0.159 -0.2567 -0.7546 -0.4114
22350SOL    HW168982   2.428   1.808   0.161  0.4549 -0.5987 -0.9095
22350SOL    HW268983   2.477   1.694   0.247 -0.1105 -0.4534 -0.3911
22351SOL     OW68984   6.074   2.867   1.388  0.6823 -0.2458  0.3116
22351SOL    HW168985   6.139   2.938   1.391  0.0481  0.3362  0.4169
22351SOL    HW268986   6.040   2.863   1.478 -0.6367  0.6028 -0.1151
22352SOL     OW68987   8.277   3.434   8.127 -0.0040 -0.4770 -0.8195
22352SOL    HW168988   8.202   3.491   8.142  0.3384 -0.3607  0.6242
22352SOL    HW268989   8.245   3.367   8.067 -1.6314 -1.1125  0.6503
22353SOL     OW68990   7.716   0.314   5.110 -0.3281  0.2817 -0.2097
22353SOL    HW168991   7.731   0.376   5.180  0.7277 -0.1928  0.0044
22353SOL    HW268992   7.625   0.329   5.083 -0.5195  0.9528  0.7653
22354SOL     OW68993   1.765   4.544   1.049 -0.1000  0.0445  0.7738
22354SOL    HW168994   1.782   4.457   1.083 -0.5640 -0.5725 -0.5034
22354SOL    HW268995   1.844   4.566   0.998 -0.5552 -0.2436 -0.0781
22355SOL     OW68996   3.030   2.117   4.764  0.8382 -0.4490 -0.2324
22355SOL    HW168997   3.033   2.103   4.670  0.5631 -0.1976 -0.2829
22355SOL    HW268998   2.938   2.101   4.788  0.8063 -0.0787 -0.0859
22356SOL     OW68999   0.850   3.953   7.584  0.0147  0.1697 -0.0082
22356SOL    HW169000   0.776   3.901   7.553 -0.8928 -0.1982  2.5633
22356SOL    HW269001   0.919   3.888   7.602  1.0466  0.5036 -2.3316
22357SOL     OW69002   4.887   7.927   3.643 -0.2774 -0.1749  0.0262
22357SOL    HW169003   4.808   7.907   3.593 -0.7521  0.7161  0.3845
22357SOL    HW269004   4.874   7.885   3.728 -0.4803  0.1558  0.1632
22358SOL     OW69005   2.748   8.143   0.553 -1.0195  0.1317  0.3540
22358SOL    HW169006   2.747   8.111   0.462 -1.6021 -0.1052  0.4414
22358SOL    HW269007   2.656   8.144   0.579 -0.9311  1.0095  0.6641
22359SOL     OW69008   8.325   3.610   7.028  0.1849  0.4059 -0.4168
22359SOL    HW169009   8.255   3.549   7.051  0.3715 -0.3611 -1.8179
22359SOL    HW269010   8.290   3.696   7.053 -0.8514 -0.0627 -0.1794
22360SOL     OW69011   6.747   6.702   3.259 -0.1272 -0.5801  0.1255
22360SOL    HW169012   6.731   6.677   3.350  1.5329 -1.1232  0.2973
22360SOL    HW269013   6.790   6.626   3.220 -2.6884 -1.2132 -1.7601
22361SOL     OW69014   0.106   1.747   5.469  0.1436 -0.0928 -0.3918
22361SOL    HW169015   0.091   1.702   5.552 -1.5281  0.0619 -0.5888
22361SOL    HW269016   0.183   1.704   5.432  0.1800 -0.9728  0.6767
22362SOL     OW69017   0.244   6.142   0.445  0.1926 -0.2265 -0.0481
22362SOL    HW169018   0.227   6.140   0.539 -2.2768  1.3503 -0.3745
22362SOL    HW269019   0.339   6.155   0.438  0.5664 -1.3136  2.1628
22363SOL     OW69020   0.141   4.798   3.440  0.3323  0.0787 -0.5037
22363SOL    HW169021   0.218   4.765   3.485  0.2136 -0.4643 -0.6895
22363SOL    HW269022   0.175   4.864   3.379  0.7084 -0.5259 -0.9526
22364SOL     OW69023   0.973   5.760   7.098 -0.2801 -0.7603 -0.1082
22364SOL    HW169024   0.938   5.833   7.149  0.0790 -1.1973  0.7894
22364SOL    HW269025   1.055   5.793   7.061 -1.3083  0.0837 -1.7601
22365SOL     OW69026   2.221   2.175   0.006  0.5409 -0.2756 -0.5117
22365SOL    HW169027   2.258   2.252   0.049  0.9636 -0.9010  0.2463
22365SOL    HW269028   2.297   2.122  -0.019  0.2804 -0.2061 -1.5229
22366SOL     OW69029   0.858   4.316   8.719  0.6241  0.5845  0.6823
22366SOL    HW169030   0.866   4.399   8.672  0.1890  0.6726  0.7605
22366SOL    HW269031   0.936   4.311   8.773  0.4680  1.1224  0.9611
22367SOL     OW69032   6.522   0.966   6.910 -0.2760 -0.9296 -0.2937
22367SOL    HW169033   6.430   0.994   6.916  0.6709  2.7564 -0.8030
22367SOL    HW269034   6.528   0.921   6.826 -1.5202 -0.8638 -0.4374
22368SOL     OW69035   1.847   7.576   3.381  0.4583  0.5960 -0.3333
22368SOL    HW169036   1.771   7.595   3.326  0.6986  0.3948 -0.7308
22368SOL    HW269037   1.815   7.592   3.470 -0.1169  0.3070 -0.4793
22369SOL     OW69038   3.743   2.115   6.686  0.2518  0.8690 -0.5316
22369SOL    HW169039   3.730   2.126   6.592 -0.9411  0.3266 -0.4550
22369SOL    HW269040   3.677   2.171   6.726 -0.3203 -0.1145 -0.0553
22370SOL     OW69041   5.972   4.847   4.678 -0.1777 -0.1885 -0.4736
22370SOL    HW169042   5.995   4.938   4.660 -1.0395  0.1375  0.0154
22370SOL    HW269043   5.957   4.843   4.772  2.2615 -1.4180 -0.0385
22371SOL     OW69044   1.580   8.067   6.478 -0.2345  0.6745  0.4346
22371SOL    HW169045   1.553   7.982   6.442  0.3160  0.9017 -0.5496
22371SOL    HW269046   1.529   8.131   6.427  0.6428  1.0058 -0.0376
22372SOL     OW69047   8.300   0.758   1.013  0.1338  0.3899  0.3208
22372SOL    HW169048   8.257   0.699   1.076  0.5707 -1.6738 -1.1991
22372SOL    HW269049   8.326   0.834   1.065 -1.7048 -0.1165  2.1077
22373SOL     OW69050   3.026   7.121   0.169  0.5505  0.0898 -0.0059
22373SOL    HW169051   2.936   7.151   0.176  0.9360  0.9054  1.7554
22373SOL    HW269052   3.018   7.026   0.158 -0.5021  0.0320  1.0802
22374SOL     OW69053   7.533   7.160   8.226 -0.1341 -0.1694 -0.4116
22374SOL    HW169054   7.553   7.068   8.241 -2.4800 -0.8320 -0.9353
22374SOL    HW269055   7.602   7.190   8.166 -0.6611 -2.2825 -2.2241
22375SOL     OW69056   5.181   1.081   5.874 -0.0702  0.2711 -0.4719
22375SOL    HW169057   5.255   1.079   5.935 -0.5087  1.2845  0.1110
22375SOL    HW269058   5.213   1.129   5.798  0.7599 -1.7418 -1.4656
22376SOL     OW69059   0.116   3.935   7.733  0.2136  0.0358 -0.5445
22376SOL    HW169060   0.146   4.021   7.761  1.9278 -0.4542 -0.7868
22376SOL    HW269061   0.020   3.942   7.732  0.2457  1.4178  1.0708
22377SOL     OW69062   3.954   4.767   5.812  0.0657 -0.4737  0.4942
22377SOL    HW169063   3.928   4.849   5.854  0.0860  0.2490 -0.8641
22377SOL    HW269064   4.040   4.747   5.849  0.3068  0.4160  0.4213
22378SOL     OW69065   4.259   5.728   6.290 -0.4734 -0.0027 -0.1839
22378SOL    HW169066   4.222   5.687   6.368  0.9099 -2.7634 -0.8200
22378SOL    HW269067   4.339   5.772   6.321 -0.2837 -0.5248  0.0798
22379SOL     OW69068   0.542   0.509   7.036  0.1852 -0.2801  0.1941
22379SOL    HW169069   0.525   0.586   7.091  1.1875  1.0498 -1.2695
22379SOL    HW269070   0.523   0.539   6.947  0.5779 -1.7519 -0.4125
22380SOL     OW69071   8.113   0.394   5.626 -0.3933 -0.2281 -0.2661
22380SOL    HW169072   8.078   0.483   5.636 -0.9330 -0.2236 -1.8755
22380SOL    HW269073   8.042   0.337   5.654 -0.5115 -0.1563 -0.4113
22381SOL     OW69074   4.860   3.448   4.860  0.3432  0.5040  0.0945
22381SOL    HW169075   4.931   3.385   4.846  0.2326  0.4335 -0.1610
22381SOL    HW269076   4.863   3.466   4.954 -0.0042 -0.3385  0.2792
22382SOL     OW69077   0.597   5.851   0.459 -0.6229  0.2950  0.7860
22382SOL    HW169078   0.681   5.887   0.433 -1.2817  2.0182  0.9114
22382SOL    HW269079   0.606   5.756   0.448  0.8302  0.5679 -0.5997
22383SOL     OW69080   7.232   7.514   1.231  0.1399  0.2885  0.0056
22383SOL    HW169081   7.263   7.424   1.227  1.6605  0.8235 -1.0219
22383SOL    HW269082   7.239   7.537   1.324  0.3990 -0.4289  0.1694
22384SOL     OW69083   8.704   1.524   6.623 -0.4195  0.4132 -0.0016
22384SOL    HW169084   8.791   1.563   6.622 -0.1188 -0.2170  0.6192
22384SOL    HW269085   8.645   1.598   6.637 -0.0297  0.8965 -0.7898
22385SOL     OW69086   0.198   3.125   5.712  0.1335 -0.1808  0.4935
22385SOL    HW169087   0.164   3.043   5.678  3.7890 -1.5724 -0.2589
22385SOL    HW269088   0.202   3.183   5.636 -0.1609 -0.1170  0.5232
22386SOL     OW69089   0.045   5.346   2.620 -0.5472 -0.0982  0.5424
22386SOL    HW169090  -0.034   5.362   2.671 -1.6200  0.8848 -1.3078
22386SOL    HW269091   0.016   5.287   2.549  1.0504 -2.0509  1.4072
22387SOL     OW69092   0.611   8.622   4.348 -0.5538  0.3453  0.0116
22387SOL    HW169093   0.551   8.611   4.422 -1.1400 -0.7702 -0.5899
22387SOL    HW269094   0.555   8.653   4.276 -0.3061 -0.1156 -0.3875
22388SOL     OW69095   6.200   2.444   3.259  0.2376 -0.0102 -0.2965
22388SOL    HW169096   6.229   2.396   3.336 -0.1171 -0.4658 -0.4411
22388SOL    HW269097   6.154   2.379   3.206  1.7628 -0.0731 -1.6122
22389SOL     OW69098   5.199   7.614   6.724 -0.2384 -0.3622  0.6617
22389SOL    HW169099   5.257   7.562   6.780 -0.5180 -0.7110  0.6255
22389SOL    HW269100   5.134   7.552   6.692  1.3346 -0.7902 -2.0723
22390SOL     OW69101   6.112   7.209   1.589  0.0316  0.6085  0.4047
22390SOL    HW169102   6.197   7.251   1.574  0.6427  0.0483  2.0903
22390SOL    HW269103   6.130   7.141   1.654 -1.5102 -0.2822 -0.0464
22391SOL     OW69104   2.756   4.878   3.209  0.6173  0.5426  0.3585
22391SOL    HW169105   2.796   4.858   3.294 -1.7321  2.7457  2.1396
22391SOL    HW269106   2.697   4.805   3.193  0.5526  0.4451  0.9924
22392SOL     OW69107   7.559   1.579   1.481  0.0041  0.4291  0.6663
22392SOL    HW169108   7.567   1.483   1.479 -0.4752  0.3793 -1.4543
22392SOL    HW269109   7.567   1.602   1.574  0.5209 -1.6207  1.1862
22393SOL     OW69110   3.125   0.046   6.928 -0.1985  0.6239 -0.1374
22393SOL    HW169111   3.088   0.116   6.874 -0.4667  0.9289  0.4339
22393SOL    HW269112   3.200   0.086   6.971  0.8232  0.0188 -1.2677
22394SOL     OW69113   6.243   6.481   7.358  0.0295  0.4406  0.3754
22394SOL    HW169114   6.254   6.553   7.420 -0.7338  1.6724 -0.8809
22394SOL    HW269115   6.197   6.413   7.408  0.9819  0.6913  1.6477
22395SOL     OW69116   7.095   4.912   5.039  0.1301 -0.3645 -0.0783
22395SOL    HW169117   7.112   4.875   4.953 -1.5147  0.3540 -0.7535
22395SOL    HW269118   7.037   4.986   5.023 -0.0197 -0.0609  1.6203
22396NA      NA69119   3.365   0.571   5.087 -0.2376  0.3909 -0.2728
22397NA      NA69120   6.996   0.042   0.923 -0.1100  0.5896  0.0533
22398NA      NA69121   8.632   4.519   3.903  0.1945 -0.3643 -0.0317
22399NA      NA69122   1.524   8.175   7.990 -0.2043  0.1147 -0.0055
22400NA      NA69123   7.446   1.398   6.607 -0.4449  0.8262 -0.1454
22401NA      NA69124   3.096   8.409   3.854  0.1132 -0.2732 -0.4786
22402NA      NA69125   2.482   4.407   0.490 -0.3701  0.3027  0.0393
22403NA      NA69126   8.429   1.338   2.612  0.0161  0.1507  0.3978
22404NA      NA69127   1.946   0.706   2.306  0.4173 -0.4569  0.5563
22405NA      NA69128   0.834   1.063   1.528 -0.0098  0.0312 -0.5308
22406NA      NA69129   5.591   6.916   6.423 -0.4872 -0.4316 -0.2453
22407NA      NA69130   5.787   6.171   5.919 -0.1581  0.1111 -0.9412
22408NA      NA69131   4.623   2.410   8.133  0.0123 -0.5613 -0.0649
22409NA      NA69132   1.937   7.474   7.996 -0.0258 -0.4122 -0.1688
22410NA      NA69133   6.704   7.409   8.264  0.4073  0.3300 -0.2759
22411NA      NA69134   7.182   1.573   8.395 -0.0496  0.5178 -0.2229
22412NA      NA69135   3.646   2.490   5.762 -0.3478 -0.5622  0.5047
22413NA      NA69136   2.744   7.989   4.164 -0.0131 -0.4609 -0.3227
22414NA      NA69137   8.787   2.626   1.937 -0.0738  0.3006  0.0814
22415NA      NA69138   2.450   7.147   0.820 -0.0633  0.0989 -0.1271
22416NA      NA69139   1.569   3.364   4.860 -0.5132 -0.5174 -0.0070
22417NA      NA69140   2.553   1.160   2.211 -0.4299  0.2838 -0.5090
22418NA      NA69141   6.284   2.146   0.584 -0.2648  0.6320 -0.3023
22419NA      NA69142   4.031   0.731   0.060  0.2247 -0.3035 -0.4298
22420NA      NA69143   3.429   4.099   6.247  0.3296  0.2788  0.3946
22421NA      NA69144   5.004   8.414   3.412  0.0913  0.1405  0.3368
22422NA      NA69145   0.590   1.439   8.128 -0.3136 -0.1422  0.8384
22423NA      NA69146   5.948   7.984   7.301  0.2908  0.1681  0.1925
22424NA      NA69147   8.586   8.214   0.965 -0.0050 -0.0356  0.0839
22425NA      NA69148   5.787   4.403   7.468  0.6095 -0.0700 -0.0605
22426NA      NA69149   7.974   3.193   6.465 -0.3832 -0.0344 -0.0766
22427NA      NA69150   7.078   3.797   3.714  0.1023  0.3184  0.2945
22428NA      NA69151   7.870   4.401   8.379 -0.1781 -0.0960 -0.0802
22429NA      NA69152   1.829   1.595   0.555  0.2026 -0.0164 -0.0256
22430NA      NA69153   1.170   0.268   8.176 -0.4026  0.1153  0.2153
22431NA      NA69154   2.560   4.793   2.518  0.0772  0.4456  0.0829
22432NA      NA69155   5.010   5.082   5.001  0.0831 -0.3940  0.1472
22433NA      NA69156   3.499   6.307   1.401 -0.0249 -0.0998  0.6548
22434NA      NA69157   0.073   0.436   6.691 -0.5867  0.4590 -0.4591
22435NA      NA69158   6.461   4.499   7.341 -0.2385 -0.0023 -0.0277
22436NA      NA69159   8.186   5.081   2.441 -0.0369 -0.2451 -0.0786
22437NA      NA69160   2.760   2.380   3.031  0.0338  0.2835  0.3250
22438NA      NA69161   4.714   0.675   3.195 -0.1083 -0.2791 -0.1901
22439NA      NA69162   6.515   7.840   1.441 -0.7129  0.2347 -0.1476
22440NA      NA69163   4.385   3.404   1.569  0.3936 -0.3926  0.4240
22441NA      NA69164   2.145   8.546   7.724 -0.3524 -0.1286  0.4603
22442NA      NA69165   8.522   1.808   4.083  0.0145 -0.3261  0.2325
22443NA      NA69166   5.994   4.456   4.874 -0.0034 -0.0887  0.4367
22444NA      NA69167   6.108   6.710   3.914 -0.0653  0.7105  0.6936
22445NA      NA69168   1.214   0.609   5.914  0.2451  0.0521 -0.3272
22446NA      NA69169   7.199   7.985   1.689  0.0883  0.0499  0.2101
22447NA      NA69170   8.191   0.726   3.570  0.0576 -0.3048  0.1069
22448NA      NA69171   1.896   0.635   7.469  0.2689  0.2980  0.0119
22449NA      NA69172   6.742   6.144   0.343  0.5055 -0.1559 -0.0754
22450NA      NA69173   4.418   3.789   7.673 -0.0920 -0.1061  0.2165
22451NA      NA69174   6.041   4.942   1.203 -0.2860 -0.0386  0.3877
22452NA      NA69175   1.840   4.901   2.534  0.3469 -0.0892  0.3375
22453NA      NA69176   7.867   3.314   8.552 -0.6853  0.3867 -0.3391
22454NA      NA69177   1.897   2.224   7.673  0.0611  0.3265  0.5172
22455NA      NA69178   6.857   3.135   4.904  0.2477  0.3834 -0.1518
22456NA      NA69179   5.465   2.339   3.664 -0.1938  0.0559  0.2557
22457NA      NA69180   1.269   0.607   3.311  0.0626  0.0628 -0.0586
22458NA      NA69181   0.347   1.237   2.386 -0.0084 -0.3971  0.1976
22459NA      NA69182   6.686   5.376   3.847  0.0447 -0.2073 -0.4625
22460CL      CL69183   7.043   7.390   5.092  0.3315 -0.0883 -0.1761
22461CL      CL69184   1.514   8.120   5.807  0.1975 -0.2408 -0.0166
22462CL      CL69185   1.424   7.378   8.488 -0.0507  0.3616  0.1732
22463CL      CL69186   6.280   5.908   5.088  0.5921  0.0960  0.2378
22464CL      CL69187   2.257   1.800   2.349  0.2039  0.2312  0.0306
22465CL      CL69188   1.030   0.671   1.331  0.1047 -0.0268  0.0407
22466CL      CL69189   5.708   5.261   4.507 -0.2953  0.2501 -0.0343
22467CL      CL69190   8.563   1.405   2.160  0.1249 -0.7056  0.1961
22468CL      CL69191   3.123   4.434   5.005  0.0335  0.2697  0.0333
22469CL      CL69192   2.251   3.033   7.871 -0.0904 -0.3352 -0.2118
22470CL      CL69193   8.086   8.032   2.056  0.2500 -0.6280  0.2652
22471CL      CL69194   1.840   3.436   0.839 -0.1633  0.0069 -0.0489
22472CL      CL69195   3.318   6.645   4.506 -0.1961 -0.3229 -0.0333
22473CL      CL69196   7.983   5.116   7.556 -0.0756 -0.4585  0.6648
22474CL      CL69197   3.189   4.242   1.191 -0.4867 -0.1852  0.1720
22475CL      CL69198   3.893   7.078   5.274 -0.0037 -0.1191 -0.0155
22476CL      CL69199   8.853   4.220   5.735 -0.0965 -0.0634 -0.1883
22477CL      CL69200   4.370   6.158   5.216  0.4463  0.2743 -0.1359
22478CL      CL69201   0.474   8.761   4.109 -0.4912 -0.8686 -0.0418
22479CL      CL69202   7.911   7.402   3.688 -0.5698  0.1278  0.1333
22480CL      CL69203   3.874   1.571   2.880 -0.3953 -0.2142  0.0952
22481CL      CL69204   5.403   2.790   1.372  0.1790 -0.0618 -0.4339
22482CL      CL69205   4.974   6.626   2.325 -0.4372 -0.4118  0.2130
22483CL      CL69206   0.130   8.586   6.721  0.3309 -0.2263 -0.1460
22484CL      CL69207   1.000   8.649   5.430 -0.3122  0.1599 -0.1744
22485CL      CL69208   7.091   6.241   1.313 -0.2067  0.1295  0.0121
22486CL      CL69209   6.930   0.243   5.003  0.0712  0.2640  0.5157
22487CL      CL69210   3.939   6.275   7.496  0.0775  0.0199 -0.1969
22488CL      CL69211   1.220   6.305   4.451 -0.2277 -0.5196  0.3909
22489CL      CL69212   3.519   7.551   4.121  0.0130  0.1290  0.1625
22490CL      CL69213   8.550   7.452   7.606  0.5714  0.5256 -0.0770
22491CL      CL69214   0.766   1.772   5.065  0.2140  0.0895  0.0899
22492CL      CL69215   7.332   4.594   3.859 -0.4689  0.1183  0.4264
22493CL      CL69216   1.067   8.501   3.455 -0.2479 -0.1709  0.3044
22494CL      CL69217   4.497   2.575   7.654  0.1958 -0.1063 -0.1145
22495CL      CL69218   2.115   5.757   2.879  0.0050 -0.0086  0.0721
22496CL      CL69219   1.124   8.055   2.427  0.0846 -0.1186  0.0027
22497CL      CL69220   0.351   5.449   4.273  0.0420 -0.3346 -0.2587
22498CL      CL69221   0.802   1.617   3.204 -0.3197  0.3271 -0.1494
22499CL      CL69222   0.415   1.332   7.515 -0.4041  0.5001 -0.1551
22500CL      CL69223   0.792   5.347   3.072 -0.2019  0.4314 -0.5294
22501CL      CL69224   0.203   4.292   5.020 -0.3026  0.1746 -0.2196
22502CL      CL69225   3.844   0.435   4.379  0.3786 -0.0152  0.2600
22503CL      CL69226   5.937   7.902   4.625  0.0330  0.2126 -0.1120
22504CL      CL69227   0.809   7.643   5.713 -0.1775 -0.0713  0.1477
22505CL      CL69228   5.350   3.838   3.605  0.3708 -0.0891 -0.1858
22506CL      CL69229   7.373   6.831   6.871 -0.1169 -0.3993  0.2718
22507CL      CL69230   7.809   1.385   4.100 -0.2051  0.2998 -0.3921
22508CL      CL69231   8.361   1.630   4.071 -0.1387 -0.4837 -0.0793
22509CL      CL69232   7.922   3.157   8.728  0.2981 -0.1401  0.0770
22510CL      CL69233   2.146   2.748   5.704 -0.5193  0.4763 -0.2013
22511CL      CL69234   7.087   0.091   1.461 -0.0501 -0.0837 -0.0025
22512CL      CL69235   2.627   6.416   6.340  0.2658 -0.1110  0.3657
22513CL      CL69236   8.697   5.972   6.957  0.2725 -0.1338 -0.4259
22514CL      CL69237   5.693   0.917   7.939 -0.1902  0.1329 -0.2323
22515CL      CL69238   8.763   8.055   7.442  0.1723 -0.5256 -0.1755
22516CL      CL69239   8.188   6.439   2.563  0.0754  0.4097  0.5484
22517CL      CL69240   8.392   8.643   7.889  0.2171 -0.1436 -0.0019
22518CL      CL69241   8.247   1.514   2.650  0.4623  0.0593 -0.4618
22519CL      CL69242   8.517   4.950   0.365  0.5850 -0.1164 -0.1899
22520CL      CL69243   6.951   5.400   6.326  0.1618 -0.6628  0.5407
22521CL      CL69244   6.128   8.527   1.022 -0.2929  0.0283  0.2361
22522CL      CL69245   3.702   7.940   4.992  0.3090  0.4494  0.1048
22523CL      CL69246   5.399   6.838   6.312  0.0497 -0.3908  0.2377
22524CL      CL69247   0.614   6.343   7.598 -0.0654 -0.3120  0.1989
22525CL      CL69248   7.684   4.295   8.282 -0.5473  0.1893  0.0990
22526CL      CL69249   1.196   8.314   1.339  0.1244 -0.0471 -0.1028
22527CL      CL69250   1.206   8.657   1.903  0.3683  0.1256  0.3351
22528CL      CL69251   5.629   8.356   6.906  0.0827 -0.3971 -0.2050
22529CL      CL69252   6.485   5.852   7.229  0.2581  0.0375  0.3184
22530CL      CL69253   1.412   4.787   4.974 -0.0678  0.6001  0.1662
22531CL      CL69254   2.591   7.499   4.515  0.0209 -0.3533 -0.1763
22532CL      CL69255   0.847   4.953   3.784 -0.2693 -0.2619  0.1828
22533CL      CL69256   5.048   5.406   7.263 -0.0559 -0.0174 -0.0691
22534CL      CL69257   3.613   8.687   4.421 -0.3407  0.0153 -0.5052
22535CL      CL69258   3.083   0.323   5.547 -0.1707 -0.2977  0.0675
22536CL      CL69259   5.727   7.964   2.526 -0.1050 -0.3134  0.0069
22537CL      CL69260   6.046   3.662   4.504  0.0542 -0.2949 -0.2552
22538CL      CL69261   8.462   6.214   4.350  0.2558  0.1183 -0.1414
22539CL      CL69262   2.535   1.476   6.401  0.1075  0.0185  0.2291
22540CL      CL69263   0.983   2.959   6.860  0.0847 -0.1426 -0.2184
22541CL      CL69264   0.955   6.022   3.522 -0.1375  0.3364  0.0885
22542CL      CL69265   8.339   2.473   5.191  0.2133 -0.0103  0.0039
22543CL      CL69266   0.628   4.633   4.077 -0.2790  0.1375  0.2535
22544CL      CL69267   2.544   7.248   3.830  0.3774 -0.1574 -0.1288
22545CL      CL69268   1.762   5.661   6.286 -0.3695 -0.1719 -0.3245
22546CL      CL69269   3.348   4.114   6.005 -0.5592  0.1417 -0.2393
22547CL      CL69270   7.628   3.835   1.157  0.0786  0.1843  0.1576
22548CL      CL69271   1.802   7.341   1.108 -0.4294 -0.1353  0.4396
22549CL      CL69272   0.289   1.539   6.699  0.1279 -0.0037 -0.1421
22550CL      CL69273   6.276   2.354   8.229 -0.0552 -0.4118  0.1839
22551CL      CL69274   0.632   6.656   6.800  0.0742  0.1277  0.3429
22552CL      CL69275   4.578   7.031   4.053 -0.2107  0.0921 -0.1430
22553CL      CL69276   3.544   4.314   2.867  0.3794  0.1746  0.0700
22554CL      CL69277   1.573   4.008   5.755 -0.2763 -0.4507 -0.0192
22555CL      CL69278   2.252   6.466   2.473 -0.0522 -0.1852  0.0650
22556CL      CL69279   7.445   7.314   5.924 -0.0241 -0.1908  0.0523
22557CL      CL69280   6.275   4.498   4.541 -0.0788 -0.0948  0.1108
22558CL      CL69281   1.137   5.890   8.004 -0.1478 -0.0216 -0.1349
22559CL      CL69282   3.086   5.015   6.175 -0.0689  0.2945 -0.1412
22560CL      CL69283   0.360   7.665   6.895  0.1079 -0.2028 -0.1647
22561CL      CL69284   2.243   1.976   0.924 -0.4082  0.0426  0.1409
22562CL      CL69285   3.472   0.570   6.036 -0.0594 -0.2548 -0.5670
22563CL      CL69286   5.497   5.584   7.123  0.3202 -0.2437 -0.3829
22564CL      CL69287   1.605   7.828   1.903 -0.2423  0.1186  0.0110
22565CL      CL69288   5.711   4.783   5.475  0.0472 -0.2271  0.1877
22566CL      CL69289   0.927   5.145   4.575 -0.2501 -0.1766 -0.0601
22567CL      CL69290   6.752   3.731   6.309 -0.1005  0.1371 -0.1448
22568CL      CL69291   3.362   6.040   8.574 -0.2377  0.4247 -0.3800
22569CL      CL69292   8.486   6.386   7.949  0.4450 -0.0531 -0.2627
22570CL      CL69293   7.015   3.444   6.879 -0.0446  0.0130 -0.0225
22571CL      CL69294   8.201   4.451   5.935 -0.2083  0.1843  0.3469
22572CL      CL69295   5.746   1.373   5.585 -0.0636  0.3125  0.4616
22573CL      CL69296   0.104   3.364   7.212  0.1848  0.2859  0.2969
22574CL      CL69297   2.607   4.364   3.158  0.0534  0.1253 -0.0054
22575CL      CL69298   7.464   5.607   7.108  0.0795 -0.4073 -0.2643
22576CL      CL69299   0.702   0.981   8.708 -0.0248  0.4676 -0.1058
22577CL      CL69300   7.409   6.821   4.702  0.2701  0.1058 -0.3487
22578CL      CL69301   0.942   5.104   6.471  0.1589 -0.1207 -0.2463
22579CL      CL69302   0.004   6.799   5.595 -0.1232 -0.5526  0.0562
22580CL      CL69303   6.177   5.954   6.123  0.1464  0.3665 -0.1188
22581CL      CL69304   3.268   7.106   6.587 -0.4250 -0.3544  0.2338
22582CL      CL69305   2.635   4.191   7.483 -0.1910  0.0898 -0.2682
22583CL      CL69306   5.518   2.498   7.506 -0.2201 -0.2930 -0.1233
22584CL      CL69307   8.459   0.751   0.256 -0.4682  0.4054 -0.1458
22585CL      CL69308   5.364   5.329   2.814 -0.1196  0.0137  0.3610
22586CL      CL69309   4.865   0.666   2.594  0.2251  0.1347  0.2040
22587CL      CL69310   7.809   3.055   1.803  0.0850 -0.0618  0.3825
   8.87221   8.87221   8.87221
