;
;   File g3.5dpOcore_cooh_petim.itp  was generated
;   By user: sairam (1000)
;   On host: sairam
;   At date: Mon. February  1 16:04:58 2025
;
;   This is a standalone topology file
;
;   Created by:
;   ParmEd:       amb2gro_top_gro.py, VERSION 3.4.1
;   Executable:   amb2gro_top_gro.py
;   Library dir:  /usr/local/gromacs/share/gromacs/top
;   Command line:
;     ./amb2gro_top_gro.py -p g3.5dpOcore_cooh_petim.prmtop -c g3.5dpOcore_cooh_petim.inpcrd -t g3.5dpOcore_cooh_petim.itp -g g3.5dpOcore_cooh_petim.gro -b g3.5dpOcore_cooh_petim.pdb
;

;[ defaults ]
;; nbfunc        comb-rule       gen-pairs       fudgeLJ fudgeQQ
;1               2               yes             0.5          0.83333333  
;
;[ atomtypes ]
;; name    at.num    mass    charge ptype  sigma      epsilon
;os             8  16.000000  0.00000000  A     0.30000123        0.71128
;c3             6  12.010000  0.00000000  A     0.33996695      0.4577296
;h1             1   1.008000  0.00000000  A      0.2471353      0.0656888
;hc             1   1.008000  0.00000000  A     0.26495328      0.0656888
;hx             1   1.008000  0.00000000  A     0.19599772      0.0656888
;n4             7  14.010000  0.00000000  A     0.32499985        0.71128
;hn             1   1.008000  0.00000000  A     0.10690785      0.0656888
;c              6  12.010000  0.00000000  A     0.33996695       0.359824
;o              8  16.000000  0.00000000  A     0.29599219        0.87864
;oh             8  16.000000  0.00000000  A     0.30664734      0.8803136
;ho             1   1.008000  0.00000000  A              0              0


[ moleculetype ]
; Name            nrexcl
g3.5dpOcore_cooh_petim          3

[ atoms ]
;   nr       type  resnr residue  atom   cgnr    charge       mass  typeB    chargeB      massB
; residue    1 aaa rtp aaa q 2.0
    1         os      1    aaa     O1      1 -0.58111400  16.000000   ; qtot -0.581114
    2         c3      1    aaa     C1      2 0.17711200  12.010000   ; qtot -0.404002
    3         h1      1    aaa     H1      3 0.04565000   1.008000   ; qtot -0.358352
    4         h1      1    aaa     H2      4 0.04565000   1.008000   ; qtot -0.312702
    5         c3      1    aaa     C2      5 0.17711200  12.010000   ; qtot -0.135590
    6         h1      1    aaa     H3      6 0.04565000   1.008000   ; qtot -0.089940
    7         h1      1    aaa     H4      7 0.04565000   1.008000   ; qtot -0.044290
    8         c3      1    aaa     C3      8 0.15102100  12.010000   ; qtot 0.106731
    9         hc      1    aaa     H5      9 0.02538500   1.008000   ; qtot 0.132116
   10         hc      1    aaa     H6     10 0.02538500   1.008000   ; qtot 0.157501
   11         c3      1    aaa     C4     11 0.15102100  12.010000   ; qtot 0.308522
   12         hc      1    aaa     H7     12 0.02538500   1.008000   ; qtot 0.333907
   13         hc      1    aaa     H8     13 0.02538500   1.008000   ; qtot 0.359292
   14         c3      1    aaa     C5     14 -0.29474300  12.010000   ; qtot 0.064549
   15         hx      1    aaa     H9     15 0.12534200   1.008000   ; qtot 0.189891
   16         hx      1    aaa    H10     16 0.12534200   1.008000   ; qtot 0.315233
   17         c3      1    aaa     C6     17 -0.29474300  12.010000   ; qtot 0.020490
   18         hx      1    aaa    H11     18 0.12534200   1.008000   ; qtot 0.145832
   19         hx      1    aaa    H12     19 0.12534200   1.008000   ; qtot 0.271174
   20         n4      1    aaa     N1     20 -0.11447800  14.010000   ; qtot 0.156696
   21         n4      1    aaa     N2     21 -0.11447800  14.010000   ; qtot 0.042218
   22         c3      1    aaa     C7     22 -0.03432800  12.010000   ; qtot 0.007890
   23         hx      1    aaa    H13     23 0.10515400   1.008000   ; qtot 0.113044
   24         hx      1    aaa    H14     24 0.10515400   1.008000   ; qtot 0.218198
   25         c3      1    aaa     C8     25 -0.03432800  12.010000   ; qtot 0.183870
   26         hx      1    aaa    H15     26 0.10515400   1.008000   ; qtot 0.289024
   27         hx      1    aaa    H16     27 0.10515400   1.008000   ; qtot 0.394178
   28         c3      1    aaa     C9     28 -0.03432800  12.010000   ; qtot 0.359850
   29         hx      1    aaa    H17     29 0.10515400   1.008000   ; qtot 0.465004
   30         hx      1    aaa    H18     30 0.10515400   1.008000   ; qtot 0.570158
   31         c3      1    aaa    C10     31 -0.03432800  12.010000   ; qtot 0.535830
   32         hx      1    aaa    H19     32 0.10515400   1.008000   ; qtot 0.640984
   33         hx      1    aaa    H20     33 0.10515400   1.008000   ; qtot 0.746138
   34         c3      1    aaa    C11     34 -0.06183200  12.010000   ; qtot 0.684306
   35         hc      1    aaa    H21     35 0.08865200   1.008000   ; qtot 0.772958
   36         hc      1    aaa    H22     36 0.08865200   1.008000   ; qtot 0.861610
   37         c3      1    aaa    C12     37 -0.06183200  12.010000   ; qtot 0.799778
   38         hc      1    aaa    H23     38 0.08865200   1.008000   ; qtot 0.888430
   39         hc      1    aaa    H24     39 0.08865200   1.008000   ; qtot 0.977082
   40         c3      1    aaa    C13     40 -0.06183200  12.010000   ; qtot 0.915250
   41         hc      1    aaa    H25     41 0.08865200   1.008000   ; qtot 1.003902
   42         hc      1    aaa    H26     42 0.08865200   1.008000   ; qtot 1.092554
   43         c3      1    aaa    C14     43 -0.06183200  12.010000   ; qtot 1.030722
   44         hc      1    aaa    H27     44 0.08865200   1.008000   ; qtot 1.119374
   45         hc      1    aaa    H28     45 0.08865200   1.008000   ; qtot 1.208026
   46         c3      1    aaa    C15     46 -0.22217300  12.010000   ; qtot 0.985853
   47         hc      1    aaa    H29     47 0.16441900   1.008000   ; qtot 1.150272
   48         hc      1    aaa    H30     48 0.16441900   1.008000   ; qtot 1.314691
   49         c3      1    aaa    C16     49 -0.22217300  12.010000   ; qtot 1.092518
   50         hc      1    aaa    H31     50 0.16441900   1.008000   ; qtot 1.256937
   51         hc      1    aaa    H32     51 0.16441900   1.008000   ; qtot 1.421356
   52         c3      1    aaa    C17     52 -0.22217300  12.010000   ; qtot 1.199183
   53         hc      1    aaa    H33     53 0.16441900   1.008000   ; qtot 1.363602
   54         hc      1    aaa    H34     54 0.16441900   1.008000   ; qtot 1.528021
   55         c3      1    aaa    C18     55 -0.22217300  12.010000   ; qtot 1.305848
   56         hc      1    aaa    H35     56 0.16441900   1.008000   ; qtot 1.470267
   57         hc      1    aaa    H36     57 0.16441900   1.008000   ; qtot 1.634686
   58         hn      1    aaa    H38     58 0.18266300   1.008000   ; qtot 1.817349
   59         hn      1    aaa    H37     59 0.18266300   1.008000   ; qtot 2.000012
; residue    2 bbb rtp bbb q 1.0
   60         n4      2    bbb     N1     60 0.03726400  14.010000   ; qtot 2.037276
   61         c3      2    bbb     C1     61 -0.07020100  12.010000   ; qtot 1.967075
   62         hx      2    bbb     H1     62 0.12219000   1.008000   ; qtot 2.089265
   63         hx      2    bbb     H2     63 0.12219000   1.008000   ; qtot 2.211455
   64         c3      2    bbb     C2     64 -0.07020100  12.010000   ; qtot 2.141254
   65         hx      2    bbb     H3     65 0.12219000   1.008000   ; qtot 2.263444
   66         hx      2    bbb     H4     66 0.12219000   1.008000   ; qtot 2.385634
   67         c3      2    bbb     C3     67 -0.39007700  12.010000   ; qtot 1.995557
   68         hx      2    bbb     H5     68 0.14940300   1.008000   ; qtot 2.144960
   69         hx      2    bbb     H6     69 0.14940300   1.008000   ; qtot 2.294363
   70         c3      2    bbb     C4     70 0.18057300  12.010000   ; qtot 2.474936
   71         hc      2    bbb     H7     71 0.01788900   1.008000   ; qtot 2.492825
   72         hc      2    bbb     H8     72 0.01788900   1.008000   ; qtot 2.510714
   73         c3      2    bbb     C5     73 -0.11337700  12.010000   ; qtot 2.397337
   74         hc      2    bbb     H9     74 0.09515400   1.008000   ; qtot 2.492491
   75         hc      2    bbb    H10     75 0.09515400   1.008000   ; qtot 2.587645
   76         c3      2    bbb     C6     76 -0.11337700  12.010000   ; qtot 2.474268
   77         hc      2    bbb    H11     77 0.09515400   1.008000   ; qtot 2.569422
   78         hc      2    bbb    H12     78 0.09515400   1.008000   ; qtot 2.664576
   79         c3      2    bbb     C7     79 0.21842400  12.010000   ; qtot 2.883000
   80         h1      2    bbb    H13     80 0.04500300   1.008000   ; qtot 2.928003
   81         h1      2    bbb    H14     81 0.04500300   1.008000   ; qtot 2.973006
   82         c3      2    bbb     C8     82 -0.06455200  12.010000   ; qtot 2.908454
   83         h1      2    bbb    H15     83 0.13554100   1.008000   ; qtot 3.043995
   84         h1      2    bbb    H16     84 0.13554100   1.008000   ; qtot 3.179536
   85         c3      2    bbb     C9     85 -0.06455200  12.010000   ; qtot 3.114984
   86         h1      2    bbb    H17     86 0.13554100   1.008000   ; qtot 3.250525
   87         h1      2    bbb    H18     87 0.13554100   1.008000   ; qtot 3.386066
   88         os      2    bbb     O1     88 -0.62587700  16.000000   ; qtot 2.760189
   89         hn      2    bbb    H19     89 0.23982500   1.008000   ; qtot 3.000014
; residue    3 bbb rtp bbb q 1.0
   90         n4      3    bbb     N1     90 0.03726400  14.010000   ; qtot 3.037278
   91         c3      3    bbb     C1     91 -0.07020100  12.010000   ; qtot 2.967077
   92         hx      3    bbb     H1     92 0.12219000   1.008000   ; qtot 3.089267
   93         hx      3    bbb     H2     93 0.12219000   1.008000   ; qtot 3.211457
   94         c3      3    bbb     C2     94 -0.07020100  12.010000   ; qtot 3.141256
   95         hx      3    bbb     H3     95 0.12219000   1.008000   ; qtot 3.263446
   96         hx      3    bbb     H4     96 0.12219000   1.008000   ; qtot 3.385636
   97         c3      3    bbb     C3     97 -0.39007700  12.010000   ; qtot 2.995559
   98         hx      3    bbb     H5     98 0.14940300   1.008000   ; qtot 3.144962
   99         hx      3    bbb     H6     99 0.14940300   1.008000   ; qtot 3.294365
  100         c3      3    bbb     C4    100 0.18057300  12.010000   ; qtot 3.474938
  101         hc      3    bbb     H7    101 0.01788900   1.008000   ; qtot 3.492827
  102         hc      3    bbb     H8    102 0.01788900   1.008000   ; qtot 3.510716
  103         c3      3    bbb     C5    103 -0.11337700  12.010000   ; qtot 3.397339
  104         hc      3    bbb     H9    104 0.09515400   1.008000   ; qtot 3.492493
  105         hc      3    bbb    H10    105 0.09515400   1.008000   ; qtot 3.587647
  106         c3      3    bbb     C6    106 -0.11337700  12.010000   ; qtot 3.474270
  107         hc      3    bbb    H11    107 0.09515400   1.008000   ; qtot 3.569424
  108         hc      3    bbb    H12    108 0.09515400   1.008000   ; qtot 3.664578
  109         c3      3    bbb     C7    109 0.21842400  12.010000   ; qtot 3.883002
  110         h1      3    bbb    H13    110 0.04500300   1.008000   ; qtot 3.928005
  111         h1      3    bbb    H14    111 0.04500300   1.008000   ; qtot 3.973008
  112         c3      3    bbb     C8    112 -0.06455200  12.010000   ; qtot 3.908456
  113         h1      3    bbb    H15    113 0.13554100   1.008000   ; qtot 4.043997
  114         h1      3    bbb    H16    114 0.13554100   1.008000   ; qtot 4.179538
  115         c3      3    bbb     C9    115 -0.06455200  12.010000   ; qtot 4.114986
  116         h1      3    bbb    H17    116 0.13554100   1.008000   ; qtot 4.250527
  117         h1      3    bbb    H18    117 0.13554100   1.008000   ; qtot 4.386068
  118         os      3    bbb     O1    118 -0.62587700  16.000000   ; qtot 3.760191
  119         hn      3    bbb    H19    119 0.23982500   1.008000   ; qtot 4.000016
; residue    4 bbb rtp bbb q 1.0
  120         n4      4    bbb     N1    120 0.03726400  14.010000   ; qtot 4.037280
  121         c3      4    bbb     C1    121 -0.07020100  12.010000   ; qtot 3.967079
  122         hx      4    bbb     H1    122 0.12219000   1.008000   ; qtot 4.089269
  123         hx      4    bbb     H2    123 0.12219000   1.008000   ; qtot 4.211459
  124         c3      4    bbb     C2    124 -0.07020100  12.010000   ; qtot 4.141258
  125         hx      4    bbb     H3    125 0.12219000   1.008000   ; qtot 4.263448
  126         hx      4    bbb     H4    126 0.12219000   1.008000   ; qtot 4.385638
  127         c3      4    bbb     C3    127 -0.39007700  12.010000   ; qtot 3.995561
  128         hx      4    bbb     H5    128 0.14940300   1.008000   ; qtot 4.144964
  129         hx      4    bbb     H6    129 0.14940300   1.008000   ; qtot 4.294367
  130         c3      4    bbb     C4    130 0.18057300  12.010000   ; qtot 4.474940
  131         hc      4    bbb     H7    131 0.01788900   1.008000   ; qtot 4.492829
  132         hc      4    bbb     H8    132 0.01788900   1.008000   ; qtot 4.510718
  133         c3      4    bbb     C5    133 -0.11337700  12.010000   ; qtot 4.397341
  134         hc      4    bbb     H9    134 0.09515400   1.008000   ; qtot 4.492495
  135         hc      4    bbb    H10    135 0.09515400   1.008000   ; qtot 4.587649
  136         c3      4    bbb     C6    136 -0.11337700  12.010000   ; qtot 4.474272
  137         hc      4    bbb    H11    137 0.09515400   1.008000   ; qtot 4.569426
  138         hc      4    bbb    H12    138 0.09515400   1.008000   ; qtot 4.664580
  139         c3      4    bbb     C7    139 0.21842400  12.010000   ; qtot 4.883004
  140         h1      4    bbb    H13    140 0.04500300   1.008000   ; qtot 4.928007
  141         h1      4    bbb    H14    141 0.04500300   1.008000   ; qtot 4.973010
  142         c3      4    bbb     C8    142 -0.06455200  12.010000   ; qtot 4.908458
  143         h1      4    bbb    H15    143 0.13554100   1.008000   ; qtot 5.043999
  144         h1      4    bbb    H16    144 0.13554100   1.008000   ; qtot 5.179540
  145         c3      4    bbb     C9    145 -0.06455200  12.010000   ; qtot 5.114988
  146         h1      4    bbb    H17    146 0.13554100   1.008000   ; qtot 5.250529
  147         h1      4    bbb    H18    147 0.13554100   1.008000   ; qtot 5.386070
  148         os      4    bbb     O1    148 -0.62587700  16.000000   ; qtot 4.760193
  149         hn      4    bbb    H19    149 0.23982500   1.008000   ; qtot 5.000018
; residue    5 bbb rtp bbb q 1.0
  150         n4      5    bbb     N1    150 0.03726400  14.010000   ; qtot 5.037282
  151         c3      5    bbb     C1    151 -0.07020100  12.010000   ; qtot 4.967081
  152         hx      5    bbb     H1    152 0.12219000   1.008000   ; qtot 5.089271
  153         hx      5    bbb     H2    153 0.12219000   1.008000   ; qtot 5.211461
  154         c3      5    bbb     C2    154 -0.07020100  12.010000   ; qtot 5.141260
  155         hx      5    bbb     H3    155 0.12219000   1.008000   ; qtot 5.263450
  156         hx      5    bbb     H4    156 0.12219000   1.008000   ; qtot 5.385640
  157         c3      5    bbb     C3    157 -0.39007700  12.010000   ; qtot 4.995563
  158         hx      5    bbb     H5    158 0.14940300   1.008000   ; qtot 5.144966
  159         hx      5    bbb     H6    159 0.14940300   1.008000   ; qtot 5.294369
  160         c3      5    bbb     C4    160 0.18057300  12.010000   ; qtot 5.474942
  161         hc      5    bbb     H7    161 0.01788900   1.008000   ; qtot 5.492831
  162         hc      5    bbb     H8    162 0.01788900   1.008000   ; qtot 5.510720
  163         c3      5    bbb     C5    163 -0.11337700  12.010000   ; qtot 5.397343
  164         hc      5    bbb     H9    164 0.09515400   1.008000   ; qtot 5.492497
  165         hc      5    bbb    H10    165 0.09515400   1.008000   ; qtot 5.587651
  166         c3      5    bbb     C6    166 -0.11337700  12.010000   ; qtot 5.474274
  167         hc      5    bbb    H11    167 0.09515400   1.008000   ; qtot 5.569428
  168         hc      5    bbb    H12    168 0.09515400   1.008000   ; qtot 5.664582
  169         c3      5    bbb     C7    169 0.21842400  12.010000   ; qtot 5.883006
  170         h1      5    bbb    H13    170 0.04500300   1.008000   ; qtot 5.928009
  171         h1      5    bbb    H14    171 0.04500300   1.008000   ; qtot 5.973012
  172         c3      5    bbb     C8    172 -0.06455200  12.010000   ; qtot 5.908460
  173         h1      5    bbb    H15    173 0.13554100   1.008000   ; qtot 6.044001
  174         h1      5    bbb    H16    174 0.13554100   1.008000   ; qtot 6.179542
  175         c3      5    bbb     C9    175 -0.06455200  12.010000   ; qtot 6.114990
  176         h1      5    bbb    H17    176 0.13554100   1.008000   ; qtot 6.250531
  177         h1      5    bbb    H18    177 0.13554100   1.008000   ; qtot 6.386072
  178         os      5    bbb     O1    178 -0.62587700  16.000000   ; qtot 5.760195
  179         hn      5    bbb    H19    179 0.23982500   1.008000   ; qtot 6.000020
; residue    6 bbb rtp bbb q 1.0
  180         n4      6    bbb     N1    180 0.03726400  14.010000   ; qtot 6.037284
  181         c3      6    bbb     C1    181 -0.07020100  12.010000   ; qtot 5.967083
  182         hx      6    bbb     H1    182 0.12219000   1.008000   ; qtot 6.089273
  183         hx      6    bbb     H2    183 0.12219000   1.008000   ; qtot 6.211463
  184         c3      6    bbb     C2    184 -0.07020100  12.010000   ; qtot 6.141262
  185         hx      6    bbb     H3    185 0.12219000   1.008000   ; qtot 6.263452
  186         hx      6    bbb     H4    186 0.12219000   1.008000   ; qtot 6.385642
  187         c3      6    bbb     C3    187 -0.39007700  12.010000   ; qtot 5.995565
  188         hx      6    bbb     H5    188 0.14940300   1.008000   ; qtot 6.144968
  189         hx      6    bbb     H6    189 0.14940300   1.008000   ; qtot 6.294371
  190         c3      6    bbb     C4    190 0.18057300  12.010000   ; qtot 6.474944
  191         hc      6    bbb     H7    191 0.01788900   1.008000   ; qtot 6.492833
  192         hc      6    bbb     H8    192 0.01788900   1.008000   ; qtot 6.510722
  193         c3      6    bbb     C5    193 -0.11337700  12.010000   ; qtot 6.397345
  194         hc      6    bbb     H9    194 0.09515400   1.008000   ; qtot 6.492499
  195         hc      6    bbb    H10    195 0.09515400   1.008000   ; qtot 6.587653
  196         c3      6    bbb     C6    196 -0.11337700  12.010000   ; qtot 6.474276
  197         hc      6    bbb    H11    197 0.09515400   1.008000   ; qtot 6.569430
  198         hc      6    bbb    H12    198 0.09515400   1.008000   ; qtot 6.664584
  199         c3      6    bbb     C7    199 0.21842400  12.010000   ; qtot 6.883008
  200         h1      6    bbb    H13    200 0.04500300   1.008000   ; qtot 6.928011
  201         h1      6    bbb    H14    201 0.04500300   1.008000   ; qtot 6.973014
  202         c3      6    bbb     C8    202 -0.06455200  12.010000   ; qtot 6.908462
  203         h1      6    bbb    H15    203 0.13554100   1.008000   ; qtot 7.044003
  204         h1      6    bbb    H16    204 0.13554100   1.008000   ; qtot 7.179544
  205         c3      6    bbb     C9    205 -0.06455200  12.010000   ; qtot 7.114992
  206         h1      6    bbb    H17    206 0.13554100   1.008000   ; qtot 7.250533
  207         h1      6    bbb    H18    207 0.13554100   1.008000   ; qtot 7.386074
  208         os      6    bbb     O1    208 -0.62587700  16.000000   ; qtot 6.760197
  209         hn      6    bbb    H19    209 0.23982500   1.008000   ; qtot 7.000022
; residue    7 bbb rtp bbb q 1.0
  210         n4      7    bbb     N1    210 0.03726400  14.010000   ; qtot 7.037286
  211         c3      7    bbb     C1    211 -0.07020100  12.010000   ; qtot 6.967085
  212         hx      7    bbb     H1    212 0.12219000   1.008000   ; qtot 7.089275
  213         hx      7    bbb     H2    213 0.12219000   1.008000   ; qtot 7.211465
  214         c3      7    bbb     C2    214 -0.07020100  12.010000   ; qtot 7.141264
  215         hx      7    bbb     H3    215 0.12219000   1.008000   ; qtot 7.263454
  216         hx      7    bbb     H4    216 0.12219000   1.008000   ; qtot 7.385644
  217         c3      7    bbb     C3    217 -0.39007700  12.010000   ; qtot 6.995567
  218         hx      7    bbb     H5    218 0.14940300   1.008000   ; qtot 7.144970
  219         hx      7    bbb     H6    219 0.14940300   1.008000   ; qtot 7.294373
  220         c3      7    bbb     C4    220 0.18057300  12.010000   ; qtot 7.474946
  221         hc      7    bbb     H7    221 0.01788900   1.008000   ; qtot 7.492835
  222         hc      7    bbb     H8    222 0.01788900   1.008000   ; qtot 7.510724
  223         c3      7    bbb     C5    223 -0.11337700  12.010000   ; qtot 7.397347
  224         hc      7    bbb     H9    224 0.09515400   1.008000   ; qtot 7.492501
  225         hc      7    bbb    H10    225 0.09515400   1.008000   ; qtot 7.587655
  226         c3      7    bbb     C6    226 -0.11337700  12.010000   ; qtot 7.474278
  227         hc      7    bbb    H11    227 0.09515400   1.008000   ; qtot 7.569432
  228         hc      7    bbb    H12    228 0.09515400   1.008000   ; qtot 7.664586
  229         c3      7    bbb     C7    229 0.21842400  12.010000   ; qtot 7.883010
  230         h1      7    bbb    H13    230 0.04500300   1.008000   ; qtot 7.928013
  231         h1      7    bbb    H14    231 0.04500300   1.008000   ; qtot 7.973016
  232         c3      7    bbb     C8    232 -0.06455200  12.010000   ; qtot 7.908464
  233         h1      7    bbb    H15    233 0.13554100   1.008000   ; qtot 8.044005
  234         h1      7    bbb    H16    234 0.13554100   1.008000   ; qtot 8.179546
  235         c3      7    bbb     C9    235 -0.06455200  12.010000   ; qtot 8.114994
  236         h1      7    bbb    H17    236 0.13554100   1.008000   ; qtot 8.250535
  237         h1      7    bbb    H18    237 0.13554100   1.008000   ; qtot 8.386076
  238         os      7    bbb     O1    238 -0.62587700  16.000000   ; qtot 7.760199
  239         hn      7    bbb    H19    239 0.23982500   1.008000   ; qtot 8.000024
; residue    8 bbb rtp bbb q 1.0
  240         n4      8    bbb     N1    240 0.03726400  14.010000   ; qtot 8.037288
  241         c3      8    bbb     C1    241 -0.07020100  12.010000   ; qtot 7.967087
  242         hx      8    bbb     H1    242 0.12219000   1.008000   ; qtot 8.089277
  243         hx      8    bbb     H2    243 0.12219000   1.008000   ; qtot 8.211467
  244         c3      8    bbb     C2    244 -0.07020100  12.010000   ; qtot 8.141266
  245         hx      8    bbb     H3    245 0.12219000   1.008000   ; qtot 8.263456
  246         hx      8    bbb     H4    246 0.12219000   1.008000   ; qtot 8.385646
  247         c3      8    bbb     C3    247 -0.39007700  12.010000   ; qtot 7.995569
  248         hx      8    bbb     H5    248 0.14940300   1.008000   ; qtot 8.144972
  249         hx      8    bbb     H6    249 0.14940300   1.008000   ; qtot 8.294375
  250         c3      8    bbb     C4    250 0.18057300  12.010000   ; qtot 8.474948
  251         hc      8    bbb     H7    251 0.01788900   1.008000   ; qtot 8.492837
  252         hc      8    bbb     H8    252 0.01788900   1.008000   ; qtot 8.510726
  253         c3      8    bbb     C5    253 -0.11337700  12.010000   ; qtot 8.397349
  254         hc      8    bbb     H9    254 0.09515400   1.008000   ; qtot 8.492503
  255         hc      8    bbb    H10    255 0.09515400   1.008000   ; qtot 8.587657
  256         c3      8    bbb     C6    256 -0.11337700  12.010000   ; qtot 8.474280
  257         hc      8    bbb    H11    257 0.09515400   1.008000   ; qtot 8.569434
  258         hc      8    bbb    H12    258 0.09515400   1.008000   ; qtot 8.664588
  259         c3      8    bbb     C7    259 0.21842400  12.010000   ; qtot 8.883012
  260         h1      8    bbb    H13    260 0.04500300   1.008000   ; qtot 8.928015
  261         h1      8    bbb    H14    261 0.04500300   1.008000   ; qtot 8.973018
  262         c3      8    bbb     C8    262 -0.06455200  12.010000   ; qtot 8.908466
  263         h1      8    bbb    H15    263 0.13554100   1.008000   ; qtot 9.044007
  264         h1      8    bbb    H16    264 0.13554100   1.008000   ; qtot 9.179548
  265         c3      8    bbb     C9    265 -0.06455200  12.010000   ; qtot 9.114996
  266         h1      8    bbb    H17    266 0.13554100   1.008000   ; qtot 9.250537
  267         h1      8    bbb    H18    267 0.13554100   1.008000   ; qtot 9.386078
  268         os      8    bbb     O1    268 -0.62587700  16.000000   ; qtot 8.760201
  269         hn      8    bbb    H19    269 0.23982500   1.008000   ; qtot 9.000026
; residue    9 bbb rtp bbb q 1.0
  270         n4      9    bbb     N1    270 0.03726400  14.010000   ; qtot 9.037290
  271         c3      9    bbb     C1    271 -0.07020100  12.010000   ; qtot 8.967089
  272         hx      9    bbb     H1    272 0.12219000   1.008000   ; qtot 9.089279
  273         hx      9    bbb     H2    273 0.12219000   1.008000   ; qtot 9.211469
  274         c3      9    bbb     C2    274 -0.07020100  12.010000   ; qtot 9.141268
  275         hx      9    bbb     H3    275 0.12219000   1.008000   ; qtot 9.263458
  276         hx      9    bbb     H4    276 0.12219000   1.008000   ; qtot 9.385648
  277         c3      9    bbb     C3    277 -0.39007700  12.010000   ; qtot 8.995571
  278         hx      9    bbb     H5    278 0.14940300   1.008000   ; qtot 9.144974
  279         hx      9    bbb     H6    279 0.14940300   1.008000   ; qtot 9.294377
  280         c3      9    bbb     C4    280 0.18057300  12.010000   ; qtot 9.474950
  281         hc      9    bbb     H7    281 0.01788900   1.008000   ; qtot 9.492839
  282         hc      9    bbb     H8    282 0.01788900   1.008000   ; qtot 9.510728
  283         c3      9    bbb     C5    283 -0.11337700  12.010000   ; qtot 9.397351
  284         hc      9    bbb     H9    284 0.09515400   1.008000   ; qtot 9.492505
  285         hc      9    bbb    H10    285 0.09515400   1.008000   ; qtot 9.587659
  286         c3      9    bbb     C6    286 -0.11337700  12.010000   ; qtot 9.474282
  287         hc      9    bbb    H11    287 0.09515400   1.008000   ; qtot 9.569436
  288         hc      9    bbb    H12    288 0.09515400   1.008000   ; qtot 9.664590
  289         c3      9    bbb     C7    289 0.21842400  12.010000   ; qtot 9.883014
  290         h1      9    bbb    H13    290 0.04500300   1.008000   ; qtot 9.928017
  291         h1      9    bbb    H14    291 0.04500300   1.008000   ; qtot 9.973020
  292         c3      9    bbb     C8    292 -0.06455200  12.010000   ; qtot 9.908468
  293         h1      9    bbb    H15    293 0.13554100   1.008000   ; qtot 10.044009
  294         h1      9    bbb    H16    294 0.13554100   1.008000   ; qtot 10.179550
  295         c3      9    bbb     C9    295 -0.06455200  12.010000   ; qtot 10.114998
  296         h1      9    bbb    H17    296 0.13554100   1.008000   ; qtot 10.250539
  297         h1      9    bbb    H18    297 0.13554100   1.008000   ; qtot 10.386080
  298         os      9    bbb     O1    298 -0.62587700  16.000000   ; qtot 9.760203
  299         hn      9    bbb    H19    299 0.23982500   1.008000   ; qtot 10.000028
; residue   10 bbb rtp bbb q 1.0
  300         n4     10    bbb     N1    300 0.03726400  14.010000   ; qtot 10.037292
  301         c3     10    bbb     C1    301 -0.07020100  12.010000   ; qtot 9.967091
  302         hx     10    bbb     H1    302 0.12219000   1.008000   ; qtot 10.089281
  303         hx     10    bbb     H2    303 0.12219000   1.008000   ; qtot 10.211471
  304         c3     10    bbb     C2    304 -0.07020100  12.010000   ; qtot 10.141270
  305         hx     10    bbb     H3    305 0.12219000   1.008000   ; qtot 10.263460
  306         hx     10    bbb     H4    306 0.12219000   1.008000   ; qtot 10.385650
  307         c3     10    bbb     C3    307 -0.39007700  12.010000   ; qtot 9.995573
  308         hx     10    bbb     H5    308 0.14940300   1.008000   ; qtot 10.144976
  309         hx     10    bbb     H6    309 0.14940300   1.008000   ; qtot 10.294379
  310         c3     10    bbb     C4    310 0.18057300  12.010000   ; qtot 10.474952
  311         hc     10    bbb     H7    311 0.01788900   1.008000   ; qtot 10.492841
  312         hc     10    bbb     H8    312 0.01788900   1.008000   ; qtot 10.510730
  313         c3     10    bbb     C5    313 -0.11337700  12.010000   ; qtot 10.397353
  314         hc     10    bbb     H9    314 0.09515400   1.008000   ; qtot 10.492507
  315         hc     10    bbb    H10    315 0.09515400   1.008000   ; qtot 10.587661
  316         c3     10    bbb     C6    316 -0.11337700  12.010000   ; qtot 10.474284
  317         hc     10    bbb    H11    317 0.09515400   1.008000   ; qtot 10.569438
  318         hc     10    bbb    H12    318 0.09515400   1.008000   ; qtot 10.664592
  319         c3     10    bbb     C7    319 0.21842400  12.010000   ; qtot 10.883016
  320         h1     10    bbb    H13    320 0.04500300   1.008000   ; qtot 10.928019
  321         h1     10    bbb    H14    321 0.04500300   1.008000   ; qtot 10.973022
  322         c3     10    bbb     C8    322 -0.06455200  12.010000   ; qtot 10.908470
  323         h1     10    bbb    H15    323 0.13554100   1.008000   ; qtot 11.044011
  324         h1     10    bbb    H16    324 0.13554100   1.008000   ; qtot 11.179552
  325         c3     10    bbb     C9    325 -0.06455200  12.010000   ; qtot 11.115000
  326         h1     10    bbb    H17    326 0.13554100   1.008000   ; qtot 11.250541
  327         h1     10    bbb    H18    327 0.13554100   1.008000   ; qtot 11.386082
  328         os     10    bbb     O1    328 -0.62587700  16.000000   ; qtot 10.760205
  329         hn     10    bbb    H19    329 0.23982500   1.008000   ; qtot 11.000030
; residue   11 bbb rtp bbb q 1.0
  330         n4     11    bbb     N1    330 0.03726400  14.010000   ; qtot 11.037294
  331         c3     11    bbb     C1    331 -0.07020100  12.010000   ; qtot 10.967093
  332         hx     11    bbb     H1    332 0.12219000   1.008000   ; qtot 11.089283
  333         hx     11    bbb     H2    333 0.12219000   1.008000   ; qtot 11.211473
  334         c3     11    bbb     C2    334 -0.07020100  12.010000   ; qtot 11.141272
  335         hx     11    bbb     H3    335 0.12219000   1.008000   ; qtot 11.263462
  336         hx     11    bbb     H4    336 0.12219000   1.008000   ; qtot 11.385652
  337         c3     11    bbb     C3    337 -0.39007700  12.010000   ; qtot 10.995575
  338         hx     11    bbb     H5    338 0.14940300   1.008000   ; qtot 11.144978
  339         hx     11    bbb     H6    339 0.14940300   1.008000   ; qtot 11.294381
  340         c3     11    bbb     C4    340 0.18057300  12.010000   ; qtot 11.474954
  341         hc     11    bbb     H7    341 0.01788900   1.008000   ; qtot 11.492843
  342         hc     11    bbb     H8    342 0.01788900   1.008000   ; qtot 11.510732
  343         c3     11    bbb     C5    343 -0.11337700  12.010000   ; qtot 11.397355
  344         hc     11    bbb     H9    344 0.09515400   1.008000   ; qtot 11.492509
  345         hc     11    bbb    H10    345 0.09515400   1.008000   ; qtot 11.587663
  346         c3     11    bbb     C6    346 -0.11337700  12.010000   ; qtot 11.474286
  347         hc     11    bbb    H11    347 0.09515400   1.008000   ; qtot 11.569440
  348         hc     11    bbb    H12    348 0.09515400   1.008000   ; qtot 11.664594
  349         c3     11    bbb     C7    349 0.21842400  12.010000   ; qtot 11.883018
  350         h1     11    bbb    H13    350 0.04500300   1.008000   ; qtot 11.928021
  351         h1     11    bbb    H14    351 0.04500300   1.008000   ; qtot 11.973024
  352         c3     11    bbb     C8    352 -0.06455200  12.010000   ; qtot 11.908472
  353         h1     11    bbb    H15    353 0.13554100   1.008000   ; qtot 12.044013
  354         h1     11    bbb    H16    354 0.13554100   1.008000   ; qtot 12.179554
  355         c3     11    bbb     C9    355 -0.06455200  12.010000   ; qtot 12.115002
  356         h1     11    bbb    H17    356 0.13554100   1.008000   ; qtot 12.250543
  357         h1     11    bbb    H18    357 0.13554100   1.008000   ; qtot 12.386084
  358         os     11    bbb     O1    358 -0.62587700  16.000000   ; qtot 11.760207
  359         hn     11    bbb    H19    359 0.23982500   1.008000   ; qtot 12.000032
; residue   12 bbb rtp bbb q 1.0
  360         n4     12    bbb     N1    360 0.03726400  14.010000   ; qtot 12.037296
  361         c3     12    bbb     C1    361 -0.07020100  12.010000   ; qtot 11.967095
  362         hx     12    bbb     H1    362 0.12219000   1.008000   ; qtot 12.089285
  363         hx     12    bbb     H2    363 0.12219000   1.008000   ; qtot 12.211475
  364         c3     12    bbb     C2    364 -0.07020100  12.010000   ; qtot 12.141274
  365         hx     12    bbb     H3    365 0.12219000   1.008000   ; qtot 12.263464
  366         hx     12    bbb     H4    366 0.12219000   1.008000   ; qtot 12.385654
  367         c3     12    bbb     C3    367 -0.39007700  12.010000   ; qtot 11.995577
  368         hx     12    bbb     H5    368 0.14940300   1.008000   ; qtot 12.144980
  369         hx     12    bbb     H6    369 0.14940300   1.008000   ; qtot 12.294383
  370         c3     12    bbb     C4    370 0.18057300  12.010000   ; qtot 12.474956
  371         hc     12    bbb     H7    371 0.01788900   1.008000   ; qtot 12.492845
  372         hc     12    bbb     H8    372 0.01788900   1.008000   ; qtot 12.510734
  373         c3     12    bbb     C5    373 -0.11337700  12.010000   ; qtot 12.397357
  374         hc     12    bbb     H9    374 0.09515400   1.008000   ; qtot 12.492511
  375         hc     12    bbb    H10    375 0.09515400   1.008000   ; qtot 12.587665
  376         c3     12    bbb     C6    376 -0.11337700  12.010000   ; qtot 12.474288
  377         hc     12    bbb    H11    377 0.09515400   1.008000   ; qtot 12.569442
  378         hc     12    bbb    H12    378 0.09515400   1.008000   ; qtot 12.664596
  379         c3     12    bbb     C7    379 0.21842400  12.010000   ; qtot 12.883020
  380         h1     12    bbb    H13    380 0.04500300   1.008000   ; qtot 12.928023
  381         h1     12    bbb    H14    381 0.04500300   1.008000   ; qtot 12.973026
  382         c3     12    bbb     C8    382 -0.06455200  12.010000   ; qtot 12.908474
  383         h1     12    bbb    H15    383 0.13554100   1.008000   ; qtot 13.044015
  384         h1     12    bbb    H16    384 0.13554100   1.008000   ; qtot 13.179556
  385         c3     12    bbb     C9    385 -0.06455200  12.010000   ; qtot 13.115004
  386         h1     12    bbb    H17    386 0.13554100   1.008000   ; qtot 13.250545
  387         h1     12    bbb    H18    387 0.13554100   1.008000   ; qtot 13.386086
  388         os     12    bbb     O1    388 -0.62587700  16.000000   ; qtot 12.760209
  389         hn     12    bbb    H19    389 0.23982500   1.008000   ; qtot 13.000034
; residue   13 bbb rtp bbb q 1.0
  390         n4     13    bbb     N1    390 0.03726400  14.010000   ; qtot 13.037298
  391         c3     13    bbb     C1    391 -0.07020100  12.010000   ; qtot 12.967097
  392         hx     13    bbb     H1    392 0.12219000   1.008000   ; qtot 13.089287
  393         hx     13    bbb     H2    393 0.12219000   1.008000   ; qtot 13.211477
  394         c3     13    bbb     C2    394 -0.07020100  12.010000   ; qtot 13.141276
  395         hx     13    bbb     H3    395 0.12219000   1.008000   ; qtot 13.263466
  396         hx     13    bbb     H4    396 0.12219000   1.008000   ; qtot 13.385656
  397         c3     13    bbb     C3    397 -0.39007700  12.010000   ; qtot 12.995579
  398         hx     13    bbb     H5    398 0.14940300   1.008000   ; qtot 13.144982
  399         hx     13    bbb     H6    399 0.14940300   1.008000   ; qtot 13.294385
  400         c3     13    bbb     C4    400 0.18057300  12.010000   ; qtot 13.474958
  401         hc     13    bbb     H7    401 0.01788900   1.008000   ; qtot 13.492847
  402         hc     13    bbb     H8    402 0.01788900   1.008000   ; qtot 13.510736
  403         c3     13    bbb     C5    403 -0.11337700  12.010000   ; qtot 13.397359
  404         hc     13    bbb     H9    404 0.09515400   1.008000   ; qtot 13.492513
  405         hc     13    bbb    H10    405 0.09515400   1.008000   ; qtot 13.587667
  406         c3     13    bbb     C6    406 -0.11337700  12.010000   ; qtot 13.474290
  407         hc     13    bbb    H11    407 0.09515400   1.008000   ; qtot 13.569444
  408         hc     13    bbb    H12    408 0.09515400   1.008000   ; qtot 13.664598
  409         c3     13    bbb     C7    409 0.21842400  12.010000   ; qtot 13.883022
  410         h1     13    bbb    H13    410 0.04500300   1.008000   ; qtot 13.928025
  411         h1     13    bbb    H14    411 0.04500300   1.008000   ; qtot 13.973028
  412         c3     13    bbb     C8    412 -0.06455200  12.010000   ; qtot 13.908476
  413         h1     13    bbb    H15    413 0.13554100   1.008000   ; qtot 14.044017
  414         h1     13    bbb    H16    414 0.13554100   1.008000   ; qtot 14.179558
  415         c3     13    bbb     C9    415 -0.06455200  12.010000   ; qtot 14.115006
  416         h1     13    bbb    H17    416 0.13554100   1.008000   ; qtot 14.250547
  417         h1     13    bbb    H18    417 0.13554100   1.008000   ; qtot 14.386088
  418         os     13    bbb     O1    418 -0.62587700  16.000000   ; qtot 13.760211
  419         hn     13    bbb    H19    419 0.23982500   1.008000   ; qtot 14.000036
; residue   14 ccc rtp ccc q 1.0
  420         c3     14    ccc     C1    420 0.14608100  12.010000   ; qtot 14.146117
  421         h1     14    ccc     H1    421 0.06738100   1.008000   ; qtot 14.213498
  422         h1     14    ccc     H2    422 0.06738100   1.008000   ; qtot 14.280879
  423         c3     14    ccc     C2    423 -0.14571900  12.010000   ; qtot 14.135160
  424         hc     14    ccc     H3    424 0.08688100   1.008000   ; qtot 14.222041
  425         hc     14    ccc     H4    425 0.08688100   1.008000   ; qtot 14.308922
  426         c3     14    ccc     C3    426 0.12348100  12.010000   ; qtot 14.432403
  427         hx     14    ccc     H5    427 0.10638100   1.008000   ; qtot 14.538784
  428         hx     14    ccc     H6    428 0.10638100   1.008000   ; qtot 14.645165
  429         n4     14    ccc     N1    429 -0.69071900  14.010000   ; qtot 13.954446
  430         c3     14    ccc     C4    430 0.12498100  12.010000   ; qtot 14.079427
  431         hx     14    ccc     H7    431 0.12238100   1.008000   ; qtot 14.201808
  432         hx     14    ccc     H8    432 0.12238100   1.008000   ; qtot 14.324189
  433         c3     14    ccc     C5    433 -0.20771900  12.010000   ; qtot 14.116470
  434         hc     14    ccc     H9    434 0.11463100   1.008000   ; qtot 14.231101
  435         hc     14    ccc    H10    435 0.11463100   1.008000   ; qtot 14.345732
  436          c     14    ccc     C6    436 0.64078100  12.010000   ; qtot 14.986513
  437          o     14    ccc     O1    437 -0.49231900  16.000000   ; qtot 14.494194
  438         oh     14    ccc     O2    438 -0.51841900  16.000000   ; qtot 13.975775
  439         ho     14    ccc    H11    439 0.45318100   1.008000   ; qtot 14.428956
  440         c3     14    ccc     C7    440 0.12498100  12.010000   ; qtot 14.553937
  441         hx     14    ccc    H12    441 0.12238100   1.008000   ; qtot 14.676318
  442         hx     14    ccc    H13    442 0.12238100   1.008000   ; qtot 14.798699
  443         c3     14    ccc     C8    443 -0.20771900  12.010000   ; qtot 14.590980
  444         hc     14    ccc    H14    444 0.11463100   1.008000   ; qtot 14.705611
  445         hc     14    ccc    H15    445 0.11463100   1.008000   ; qtot 14.820242
  446          c     14    ccc     C9    446 0.64078100  12.010000   ; qtot 15.461023
  447          o     14    ccc     O3    447 -0.49231900  16.000000   ; qtot 14.968704
  448         oh     14    ccc     O4    448 -0.51841900  16.000000   ; qtot 14.450285
  449         ho     14    ccc    H16    449 0.45318100   1.008000   ; qtot 14.903466
  450         os     14    ccc     O5    450 -0.39491900  16.000000   ; qtot 14.508547
  451         hn     14    ccc    H17    451 0.49148100   1.008000   ; qtot 15.000028
; residue   15 ccc rtp ccc q 1.0
  452         c3     15    ccc     C1    452 0.14608100  12.010000   ; qtot 15.146109
  453         h1     15    ccc     H1    453 0.06738100   1.008000   ; qtot 15.213490
  454         h1     15    ccc     H2    454 0.06738100   1.008000   ; qtot 15.280871
  455         c3     15    ccc     C2    455 -0.14571900  12.010000   ; qtot 15.135152
  456         hc     15    ccc     H3    456 0.08688100   1.008000   ; qtot 15.222033
  457         hc     15    ccc     H4    457 0.08688100   1.008000   ; qtot 15.308914
  458         c3     15    ccc     C3    458 0.12348100  12.010000   ; qtot 15.432395
  459         hx     15    ccc     H5    459 0.10638100   1.008000   ; qtot 15.538776
  460         hx     15    ccc     H6    460 0.10638100   1.008000   ; qtot 15.645157
  461         n4     15    ccc     N1    461 -0.69071900  14.010000   ; qtot 14.954438
  462         c3     15    ccc     C4    462 0.12498100  12.010000   ; qtot 15.079419
  463         hx     15    ccc     H7    463 0.12238100   1.008000   ; qtot 15.201800
  464         hx     15    ccc     H8    464 0.12238100   1.008000   ; qtot 15.324181
  465         c3     15    ccc     C5    465 -0.20771900  12.010000   ; qtot 15.116462
  466         hc     15    ccc     H9    466 0.11463100   1.008000   ; qtot 15.231093
  467         hc     15    ccc    H10    467 0.11463100   1.008000   ; qtot 15.345724
  468          c     15    ccc     C6    468 0.64078100  12.010000   ; qtot 15.986505
  469          o     15    ccc     O1    469 -0.49231900  16.000000   ; qtot 15.494186
  470         oh     15    ccc     O2    470 -0.51841900  16.000000   ; qtot 14.975767
  471         ho     15    ccc    H11    471 0.45318100   1.008000   ; qtot 15.428948
  472         c3     15    ccc     C7    472 0.12498100  12.010000   ; qtot 15.553929
  473         hx     15    ccc    H12    473 0.12238100   1.008000   ; qtot 15.676310
  474         hx     15    ccc    H13    474 0.12238100   1.008000   ; qtot 15.798691
  475         c3     15    ccc     C8    475 -0.20771900  12.010000   ; qtot 15.590972
  476         hc     15    ccc    H14    476 0.11463100   1.008000   ; qtot 15.705603
  477         hc     15    ccc    H15    477 0.11463100   1.008000   ; qtot 15.820234
  478          c     15    ccc     C9    478 0.64078100  12.010000   ; qtot 16.461015
  479          o     15    ccc     O3    479 -0.49231900  16.000000   ; qtot 15.968696
  480         oh     15    ccc     O4    480 -0.51841900  16.000000   ; qtot 15.450277
  481         ho     15    ccc    H16    481 0.45318100   1.008000   ; qtot 15.903458
  482         os     15    ccc     O5    482 -0.39491900  16.000000   ; qtot 15.508539
  483         hn     15    ccc    H17    483 0.49148100   1.008000   ; qtot 16.000020
; residue   16 ccc rtp ccc q 1.0
  484         c3     16    ccc     C1    484 0.14608100  12.010000   ; qtot 16.146101
  485         h1     16    ccc     H1    485 0.06738100   1.008000   ; qtot 16.213482
  486         h1     16    ccc     H2    486 0.06738100   1.008000   ; qtot 16.280863
  487         c3     16    ccc     C2    487 -0.14571900  12.010000   ; qtot 16.135144
  488         hc     16    ccc     H3    488 0.08688100   1.008000   ; qtot 16.222025
  489         hc     16    ccc     H4    489 0.08688100   1.008000   ; qtot 16.308906
  490         c3     16    ccc     C3    490 0.12348100  12.010000   ; qtot 16.432387
  491         hx     16    ccc     H5    491 0.10638100   1.008000   ; qtot 16.538768
  492         hx     16    ccc     H6    492 0.10638100   1.008000   ; qtot 16.645149
  493         n4     16    ccc     N1    493 -0.69071900  14.010000   ; qtot 15.954430
  494         c3     16    ccc     C4    494 0.12498100  12.010000   ; qtot 16.079411
  495         hx     16    ccc     H7    495 0.12238100   1.008000   ; qtot 16.201792
  496         hx     16    ccc     H8    496 0.12238100   1.008000   ; qtot 16.324173
  497         c3     16    ccc     C5    497 -0.20771900  12.010000   ; qtot 16.116454
  498         hc     16    ccc     H9    498 0.11463100   1.008000   ; qtot 16.231085
  499         hc     16    ccc    H10    499 0.11463100   1.008000   ; qtot 16.345716
  500          c     16    ccc     C6    500 0.64078100  12.010000   ; qtot 16.986497
  501          o     16    ccc     O1    501 -0.49231900  16.000000   ; qtot 16.494178
  502         oh     16    ccc     O2    502 -0.51841900  16.000000   ; qtot 15.975759
  503         ho     16    ccc    H11    503 0.45318100   1.008000   ; qtot 16.428940
  504         c3     16    ccc     C7    504 0.12498100  12.010000   ; qtot 16.553921
  505         hx     16    ccc    H12    505 0.12238100   1.008000   ; qtot 16.676302
  506         hx     16    ccc    H13    506 0.12238100   1.008000   ; qtot 16.798683
  507         c3     16    ccc     C8    507 -0.20771900  12.010000   ; qtot 16.590964
  508         hc     16    ccc    H14    508 0.11463100   1.008000   ; qtot 16.705595
  509         hc     16    ccc    H15    509 0.11463100   1.008000   ; qtot 16.820226
  510          c     16    ccc     C9    510 0.64078100  12.010000   ; qtot 17.461007
  511          o     16    ccc     O3    511 -0.49231900  16.000000   ; qtot 16.968688
  512         oh     16    ccc     O4    512 -0.51841900  16.000000   ; qtot 16.450269
  513         ho     16    ccc    H16    513 0.45318100   1.008000   ; qtot 16.903450
  514         os     16    ccc     O5    514 -0.39491900  16.000000   ; qtot 16.508531
  515         hn     16    ccc    H17    515 0.49148100   1.008000   ; qtot 17.000012
; residue   17 ccc rtp ccc q 1.0
  516         c3     17    ccc     C1    516 0.14608100  12.010000   ; qtot 17.146093
  517         h1     17    ccc     H1    517 0.06738100   1.008000   ; qtot 17.213474
  518         h1     17    ccc     H2    518 0.06738100   1.008000   ; qtot 17.280855
  519         c3     17    ccc     C2    519 -0.14571900  12.010000   ; qtot 17.135136
  520         hc     17    ccc     H3    520 0.08688100   1.008000   ; qtot 17.222017
  521         hc     17    ccc     H4    521 0.08688100   1.008000   ; qtot 17.308898
  522         c3     17    ccc     C3    522 0.12348100  12.010000   ; qtot 17.432379
  523         hx     17    ccc     H5    523 0.10638100   1.008000   ; qtot 17.538760
  524         hx     17    ccc     H6    524 0.10638100   1.008000   ; qtot 17.645141
  525         n4     17    ccc     N1    525 -0.69071900  14.010000   ; qtot 16.954422
  526         c3     17    ccc     C4    526 0.12498100  12.010000   ; qtot 17.079403
  527         hx     17    ccc     H7    527 0.12238100   1.008000   ; qtot 17.201784
  528         hx     17    ccc     H8    528 0.12238100   1.008000   ; qtot 17.324165
  529         c3     17    ccc     C5    529 -0.20771900  12.010000   ; qtot 17.116446
  530         hc     17    ccc     H9    530 0.11463100   1.008000   ; qtot 17.231077
  531         hc     17    ccc    H10    531 0.11463100   1.008000   ; qtot 17.345708
  532          c     17    ccc     C6    532 0.64078100  12.010000   ; qtot 17.986489
  533          o     17    ccc     O1    533 -0.49231900  16.000000   ; qtot 17.494170
  534         oh     17    ccc     O2    534 -0.51841900  16.000000   ; qtot 16.975751
  535         ho     17    ccc    H11    535 0.45318100   1.008000   ; qtot 17.428932
  536         c3     17    ccc     C7    536 0.12498100  12.010000   ; qtot 17.553913
  537         hx     17    ccc    H12    537 0.12238100   1.008000   ; qtot 17.676294
  538         hx     17    ccc    H13    538 0.12238100   1.008000   ; qtot 17.798675
  539         c3     17    ccc     C8    539 -0.20771900  12.010000   ; qtot 17.590956
  540         hc     17    ccc    H14    540 0.11463100   1.008000   ; qtot 17.705587
  541         hc     17    ccc    H15    541 0.11463100   1.008000   ; qtot 17.820218
  542          c     17    ccc     C9    542 0.64078100  12.010000   ; qtot 18.460999
  543          o     17    ccc     O3    543 -0.49231900  16.000000   ; qtot 17.968680
  544         oh     17    ccc     O4    544 -0.51841900  16.000000   ; qtot 17.450261
  545         ho     17    ccc    H16    545 0.45318100   1.008000   ; qtot 17.903442
  546         os     17    ccc     O5    546 -0.39491900  16.000000   ; qtot 17.508523
  547         hn     17    ccc    H17    547 0.49148100   1.008000   ; qtot 18.000004
; residue   18 ccc rtp ccc q 1.0
  548         c3     18    ccc     C1    548 0.14608100  12.010000   ; qtot 18.146085
  549         h1     18    ccc     H1    549 0.06738100   1.008000   ; qtot 18.213466
  550         h1     18    ccc     H2    550 0.06738100   1.008000   ; qtot 18.280847
  551         c3     18    ccc     C2    551 -0.14571900  12.010000   ; qtot 18.135128
  552         hc     18    ccc     H3    552 0.08688100   1.008000   ; qtot 18.222009
  553         hc     18    ccc     H4    553 0.08688100   1.008000   ; qtot 18.308890
  554         c3     18    ccc     C3    554 0.12348100  12.010000   ; qtot 18.432371
  555         hx     18    ccc     H5    555 0.10638100   1.008000   ; qtot 18.538752
  556         hx     18    ccc     H6    556 0.10638100   1.008000   ; qtot 18.645133
  557         n4     18    ccc     N1    557 -0.69071900  14.010000   ; qtot 17.954414
  558         c3     18    ccc     C4    558 0.12498100  12.010000   ; qtot 18.079395
  559         hx     18    ccc     H7    559 0.12238100   1.008000   ; qtot 18.201776
  560         hx     18    ccc     H8    560 0.12238100   1.008000   ; qtot 18.324157
  561         c3     18    ccc     C5    561 -0.20771900  12.010000   ; qtot 18.116438
  562         hc     18    ccc     H9    562 0.11463100   1.008000   ; qtot 18.231069
  563         hc     18    ccc    H10    563 0.11463100   1.008000   ; qtot 18.345700
  564          c     18    ccc     C6    564 0.64078100  12.010000   ; qtot 18.986481
  565          o     18    ccc     O1    565 -0.49231900  16.000000   ; qtot 18.494162
  566         oh     18    ccc     O2    566 -0.51841900  16.000000   ; qtot 17.975743
  567         ho     18    ccc    H11    567 0.45318100   1.008000   ; qtot 18.428924
  568         c3     18    ccc     C7    568 0.12498100  12.010000   ; qtot 18.553905
  569         hx     18    ccc    H12    569 0.12238100   1.008000   ; qtot 18.676286
  570         hx     18    ccc    H13    570 0.12238100   1.008000   ; qtot 18.798667
  571         c3     18    ccc     C8    571 -0.20771900  12.010000   ; qtot 18.590948
  572         hc     18    ccc    H14    572 0.11463100   1.008000   ; qtot 18.705579
  573         hc     18    ccc    H15    573 0.11463100   1.008000   ; qtot 18.820210
  574          c     18    ccc     C9    574 0.64078100  12.010000   ; qtot 19.460991
  575          o     18    ccc     O3    575 -0.49231900  16.000000   ; qtot 18.968672
  576         oh     18    ccc     O4    576 -0.51841900  16.000000   ; qtot 18.450253
  577         ho     18    ccc    H16    577 0.45318100   1.008000   ; qtot 18.903434
  578         os     18    ccc     O5    578 -0.39491900  16.000000   ; qtot 18.508515
  579         hn     18    ccc    H17    579 0.49148100   1.008000   ; qtot 18.999996
; residue   19 ccc rtp ccc q 1.0
  580         c3     19    ccc     C1    580 0.14608100  12.010000   ; qtot 19.146077
  581         h1     19    ccc     H1    581 0.06738100   1.008000   ; qtot 19.213458
  582         h1     19    ccc     H2    582 0.06738100   1.008000   ; qtot 19.280839
  583         c3     19    ccc     C2    583 -0.14571900  12.010000   ; qtot 19.135120
  584         hc     19    ccc     H3    584 0.08688100   1.008000   ; qtot 19.222001
  585         hc     19    ccc     H4    585 0.08688100   1.008000   ; qtot 19.308882
  586         c3     19    ccc     C3    586 0.12348100  12.010000   ; qtot 19.432363
  587         hx     19    ccc     H5    587 0.10638100   1.008000   ; qtot 19.538744
  588         hx     19    ccc     H6    588 0.10638100   1.008000   ; qtot 19.645125
  589         n4     19    ccc     N1    589 -0.69071900  14.010000   ; qtot 18.954406
  590         c3     19    ccc     C4    590 0.12498100  12.010000   ; qtot 19.079387
  591         hx     19    ccc     H7    591 0.12238100   1.008000   ; qtot 19.201768
  592         hx     19    ccc     H8    592 0.12238100   1.008000   ; qtot 19.324149
  593         c3     19    ccc     C5    593 -0.20771900  12.010000   ; qtot 19.116430
  594         hc     19    ccc     H9    594 0.11463100   1.008000   ; qtot 19.231061
  595         hc     19    ccc    H10    595 0.11463100   1.008000   ; qtot 19.345692
  596          c     19    ccc     C6    596 0.64078100  12.010000   ; qtot 19.986473
  597          o     19    ccc     O1    597 -0.49231900  16.000000   ; qtot 19.494154
  598         oh     19    ccc     O2    598 -0.51841900  16.000000   ; qtot 18.975735
  599         ho     19    ccc    H11    599 0.45318100   1.008000   ; qtot 19.428916
  600         c3     19    ccc     C7    600 0.12498100  12.010000   ; qtot 19.553897
  601         hx     19    ccc    H12    601 0.12238100   1.008000   ; qtot 19.676278
  602         hx     19    ccc    H13    602 0.12238100   1.008000   ; qtot 19.798659
  603         c3     19    ccc     C8    603 -0.20771900  12.010000   ; qtot 19.590940
  604         hc     19    ccc    H14    604 0.11463100   1.008000   ; qtot 19.705571
  605         hc     19    ccc    H15    605 0.11463100   1.008000   ; qtot 19.820202
  606          c     19    ccc     C9    606 0.64078100  12.010000   ; qtot 20.460983
  607          o     19    ccc     O3    607 -0.49231900  16.000000   ; qtot 19.968664
  608         oh     19    ccc     O4    608 -0.51841900  16.000000   ; qtot 19.450245
  609         ho     19    ccc    H16    609 0.45318100   1.008000   ; qtot 19.903426
  610         os     19    ccc     O5    610 -0.39491900  16.000000   ; qtot 19.508507
  611         hn     19    ccc    H17    611 0.49148100   1.008000   ; qtot 19.999988
; residue   20 ccc rtp ccc q 1.0
  612         c3     20    ccc     C1    612 0.14608100  12.010000   ; qtot 20.146069
  613         h1     20    ccc     H1    613 0.06738100   1.008000   ; qtot 20.213450
  614         h1     20    ccc     H2    614 0.06738100   1.008000   ; qtot 20.280831
  615         c3     20    ccc     C2    615 -0.14571900  12.010000   ; qtot 20.135112
  616         hc     20    ccc     H3    616 0.08688100   1.008000   ; qtot 20.221993
  617         hc     20    ccc     H4    617 0.08688100   1.008000   ; qtot 20.308874
  618         c3     20    ccc     C3    618 0.12348100  12.010000   ; qtot 20.432355
  619         hx     20    ccc     H5    619 0.10638100   1.008000   ; qtot 20.538736
  620         hx     20    ccc     H6    620 0.10638100   1.008000   ; qtot 20.645117
  621         n4     20    ccc     N1    621 -0.69071900  14.010000   ; qtot 19.954398
  622         c3     20    ccc     C4    622 0.12498100  12.010000   ; qtot 20.079379
  623         hx     20    ccc     H7    623 0.12238100   1.008000   ; qtot 20.201760
  624         hx     20    ccc     H8    624 0.12238100   1.008000   ; qtot 20.324141
  625         c3     20    ccc     C5    625 -0.20771900  12.010000   ; qtot 20.116422
  626         hc     20    ccc     H9    626 0.11463100   1.008000   ; qtot 20.231053
  627         hc     20    ccc    H10    627 0.11463100   1.008000   ; qtot 20.345684
  628          c     20    ccc     C6    628 0.64078100  12.010000   ; qtot 20.986465
  629          o     20    ccc     O1    629 -0.49231900  16.000000   ; qtot 20.494146
  630         oh     20    ccc     O2    630 -0.51841900  16.000000   ; qtot 19.975727
  631         ho     20    ccc    H11    631 0.45318100   1.008000   ; qtot 20.428908
  632         c3     20    ccc     C7    632 0.12498100  12.010000   ; qtot 20.553889
  633         hx     20    ccc    H12    633 0.12238100   1.008000   ; qtot 20.676270
  634         hx     20    ccc    H13    634 0.12238100   1.008000   ; qtot 20.798651
  635         c3     20    ccc     C8    635 -0.20771900  12.010000   ; qtot 20.590932
  636         hc     20    ccc    H14    636 0.11463100   1.008000   ; qtot 20.705563
  637         hc     20    ccc    H15    637 0.11463100   1.008000   ; qtot 20.820194
  638          c     20    ccc     C9    638 0.64078100  12.010000   ; qtot 21.460975
  639          o     20    ccc     O3    639 -0.49231900  16.000000   ; qtot 20.968656
  640         oh     20    ccc     O4    640 -0.51841900  16.000000   ; qtot 20.450237
  641         ho     20    ccc    H16    641 0.45318100   1.008000   ; qtot 20.903418
  642         os     20    ccc     O5    642 -0.39491900  16.000000   ; qtot 20.508499
  643         hn     20    ccc    H17    643 0.49148100   1.008000   ; qtot 20.999980
; residue   21 ccc rtp ccc q 1.0
  644         c3     21    ccc     C1    644 0.14608100  12.010000   ; qtot 21.146061
  645         h1     21    ccc     H1    645 0.06738100   1.008000   ; qtot 21.213442
  646         h1     21    ccc     H2    646 0.06738100   1.008000   ; qtot 21.280823
  647         c3     21    ccc     C2    647 -0.14571900  12.010000   ; qtot 21.135104
  648         hc     21    ccc     H3    648 0.08688100   1.008000   ; qtot 21.221985
  649         hc     21    ccc     H4    649 0.08688100   1.008000   ; qtot 21.308866
  650         c3     21    ccc     C3    650 0.12348100  12.010000   ; qtot 21.432347
  651         hx     21    ccc     H5    651 0.10638100   1.008000   ; qtot 21.538728
  652         hx     21    ccc     H6    652 0.10638100   1.008000   ; qtot 21.645109
  653         n4     21    ccc     N1    653 -0.69071900  14.010000   ; qtot 20.954390
  654         c3     21    ccc     C4    654 0.12498100  12.010000   ; qtot 21.079371
  655         hx     21    ccc     H7    655 0.12238100   1.008000   ; qtot 21.201752
  656         hx     21    ccc     H8    656 0.12238100   1.008000   ; qtot 21.324133
  657         c3     21    ccc     C5    657 -0.20771900  12.010000   ; qtot 21.116414
  658         hc     21    ccc     H9    658 0.11463100   1.008000   ; qtot 21.231045
  659         hc     21    ccc    H10    659 0.11463100   1.008000   ; qtot 21.345676
  660          c     21    ccc     C6    660 0.64078100  12.010000   ; qtot 21.986457
  661          o     21    ccc     O1    661 -0.49231900  16.000000   ; qtot 21.494138
  662         oh     21    ccc     O2    662 -0.51841900  16.000000   ; qtot 20.975719
  663         ho     21    ccc    H11    663 0.45318100   1.008000   ; qtot 21.428900
  664         c3     21    ccc     C7    664 0.12498100  12.010000   ; qtot 21.553881
  665         hx     21    ccc    H12    665 0.12238100   1.008000   ; qtot 21.676262
  666         hx     21    ccc    H13    666 0.12238100   1.008000   ; qtot 21.798643
  667         c3     21    ccc     C8    667 -0.20771900  12.010000   ; qtot 21.590924
  668         hc     21    ccc    H14    668 0.11463100   1.008000   ; qtot 21.705555
  669         hc     21    ccc    H15    669 0.11463100   1.008000   ; qtot 21.820186
  670          c     21    ccc     C9    670 0.64078100  12.010000   ; qtot 22.460967
  671          o     21    ccc     O3    671 -0.49231900  16.000000   ; qtot 21.968648
  672         oh     21    ccc     O4    672 -0.51841900  16.000000   ; qtot 21.450229
  673         ho     21    ccc    H16    673 0.45318100   1.008000   ; qtot 21.903410
  674         os     21    ccc     O5    674 -0.39491900  16.000000   ; qtot 21.508491
  675         hn     21    ccc    H17    675 0.49148100   1.008000   ; qtot 21.999972
; residue   22 ccc rtp ccc q 1.0
  676         c3     22    ccc     C1    676 0.14608100  12.010000   ; qtot 22.146053
  677         h1     22    ccc     H1    677 0.06738100   1.008000   ; qtot 22.213434
  678         h1     22    ccc     H2    678 0.06738100   1.008000   ; qtot 22.280815
  679         c3     22    ccc     C2    679 -0.14571900  12.010000   ; qtot 22.135096
  680         hc     22    ccc     H3    680 0.08688100   1.008000   ; qtot 22.221977
  681         hc     22    ccc     H4    681 0.08688100   1.008000   ; qtot 22.308858
  682         c3     22    ccc     C3    682 0.12348100  12.010000   ; qtot 22.432339
  683         hx     22    ccc     H5    683 0.10638100   1.008000   ; qtot 22.538720
  684         hx     22    ccc     H6    684 0.10638100   1.008000   ; qtot 22.645101
  685         n4     22    ccc     N1    685 -0.69071900  14.010000   ; qtot 21.954382
  686         c3     22    ccc     C4    686 0.12498100  12.010000   ; qtot 22.079363
  687         hx     22    ccc     H7    687 0.12238100   1.008000   ; qtot 22.201744
  688         hx     22    ccc     H8    688 0.12238100   1.008000   ; qtot 22.324125
  689         c3     22    ccc     C5    689 -0.20771900  12.010000   ; qtot 22.116406
  690         hc     22    ccc     H9    690 0.11463100   1.008000   ; qtot 22.231037
  691         hc     22    ccc    H10    691 0.11463100   1.008000   ; qtot 22.345668
  692          c     22    ccc     C6    692 0.64078100  12.010000   ; qtot 22.986449
  693          o     22    ccc     O1    693 -0.49231900  16.000000   ; qtot 22.494130
  694         oh     22    ccc     O2    694 -0.51841900  16.000000   ; qtot 21.975711
  695         ho     22    ccc    H11    695 0.45318100   1.008000   ; qtot 22.428892
  696         c3     22    ccc     C7    696 0.12498100  12.010000   ; qtot 22.553873
  697         hx     22    ccc    H12    697 0.12238100   1.008000   ; qtot 22.676254
  698         hx     22    ccc    H13    698 0.12238100   1.008000   ; qtot 22.798635
  699         c3     22    ccc     C8    699 -0.20771900  12.010000   ; qtot 22.590916
  700         hc     22    ccc    H14    700 0.11463100   1.008000   ; qtot 22.705547
  701         hc     22    ccc    H15    701 0.11463100   1.008000   ; qtot 22.820178
  702          c     22    ccc     C9    702 0.64078100  12.010000   ; qtot 23.460959
  703          o     22    ccc     O3    703 -0.49231900  16.000000   ; qtot 22.968640
  704         oh     22    ccc     O4    704 -0.51841900  16.000000   ; qtot 22.450221
  705         ho     22    ccc    H16    705 0.45318100   1.008000   ; qtot 22.903402
  706         os     22    ccc     O5    706 -0.39491900  16.000000   ; qtot 22.508483
  707         hn     22    ccc    H17    707 0.49148100   1.008000   ; qtot 22.999964
; residue   23 ccc rtp ccc q 1.0
  708         c3     23    ccc     C1    708 0.14608100  12.010000   ; qtot 23.146045
  709         h1     23    ccc     H1    709 0.06738100   1.008000   ; qtot 23.213426
  710         h1     23    ccc     H2    710 0.06738100   1.008000   ; qtot 23.280807
  711         c3     23    ccc     C2    711 -0.14571900  12.010000   ; qtot 23.135088
  712         hc     23    ccc     H3    712 0.08688100   1.008000   ; qtot 23.221969
  713         hc     23    ccc     H4    713 0.08688100   1.008000   ; qtot 23.308850
  714         c3     23    ccc     C3    714 0.12348100  12.010000   ; qtot 23.432331
  715         hx     23    ccc     H5    715 0.10638100   1.008000   ; qtot 23.538712
  716         hx     23    ccc     H6    716 0.10638100   1.008000   ; qtot 23.645093
  717         n4     23    ccc     N1    717 -0.69071900  14.010000   ; qtot 22.954374
  718         c3     23    ccc     C4    718 0.12498100  12.010000   ; qtot 23.079355
  719         hx     23    ccc     H7    719 0.12238100   1.008000   ; qtot 23.201736
  720         hx     23    ccc     H8    720 0.12238100   1.008000   ; qtot 23.324117
  721         c3     23    ccc     C5    721 -0.20771900  12.010000   ; qtot 23.116398
  722         hc     23    ccc     H9    722 0.11463100   1.008000   ; qtot 23.231029
  723         hc     23    ccc    H10    723 0.11463100   1.008000   ; qtot 23.345660
  724          c     23    ccc     C6    724 0.64078100  12.010000   ; qtot 23.986441
  725          o     23    ccc     O1    725 -0.49231900  16.000000   ; qtot 23.494122
  726         oh     23    ccc     O2    726 -0.51841900  16.000000   ; qtot 22.975703
  727         ho     23    ccc    H11    727 0.45318100   1.008000   ; qtot 23.428884
  728         c3     23    ccc     C7    728 0.12498100  12.010000   ; qtot 23.553865
  729         hx     23    ccc    H12    729 0.12238100   1.008000   ; qtot 23.676246
  730         hx     23    ccc    H13    730 0.12238100   1.008000   ; qtot 23.798627
  731         c3     23    ccc     C8    731 -0.20771900  12.010000   ; qtot 23.590908
  732         hc     23    ccc    H14    732 0.11463100   1.008000   ; qtot 23.705539
  733         hc     23    ccc    H15    733 0.11463100   1.008000   ; qtot 23.820170
  734          c     23    ccc     C9    734 0.64078100  12.010000   ; qtot 24.460951
  735          o     23    ccc     O3    735 -0.49231900  16.000000   ; qtot 23.968632
  736         oh     23    ccc     O4    736 -0.51841900  16.000000   ; qtot 23.450213
  737         ho     23    ccc    H16    737 0.45318100   1.008000   ; qtot 23.903394
  738         os     23    ccc     O5    738 -0.39491900  16.000000   ; qtot 23.508475
  739         hn     23    ccc    H17    739 0.49148100   1.008000   ; qtot 23.999956
; residue   24 ccc rtp ccc q 1.0
  740         c3     24    ccc     C1    740 0.14608100  12.010000   ; qtot 24.146037
  741         h1     24    ccc     H1    741 0.06738100   1.008000   ; qtot 24.213418
  742         h1     24    ccc     H2    742 0.06738100   1.008000   ; qtot 24.280799
  743         c3     24    ccc     C2    743 -0.14571900  12.010000   ; qtot 24.135080
  744         hc     24    ccc     H3    744 0.08688100   1.008000   ; qtot 24.221961
  745         hc     24    ccc     H4    745 0.08688100   1.008000   ; qtot 24.308842
  746         c3     24    ccc     C3    746 0.12348100  12.010000   ; qtot 24.432323
  747         hx     24    ccc     H5    747 0.10638100   1.008000   ; qtot 24.538704
  748         hx     24    ccc     H6    748 0.10638100   1.008000   ; qtot 24.645085
  749         n4     24    ccc     N1    749 -0.69071900  14.010000   ; qtot 23.954366
  750         c3     24    ccc     C4    750 0.12498100  12.010000   ; qtot 24.079347
  751         hx     24    ccc     H7    751 0.12238100   1.008000   ; qtot 24.201728
  752         hx     24    ccc     H8    752 0.12238100   1.008000   ; qtot 24.324109
  753         c3     24    ccc     C5    753 -0.20771900  12.010000   ; qtot 24.116390
  754         hc     24    ccc     H9    754 0.11463100   1.008000   ; qtot 24.231021
  755         hc     24    ccc    H10    755 0.11463100   1.008000   ; qtot 24.345652
  756          c     24    ccc     C6    756 0.64078100  12.010000   ; qtot 24.986433
  757          o     24    ccc     O1    757 -0.49231900  16.000000   ; qtot 24.494114
  758         oh     24    ccc     O2    758 -0.51841900  16.000000   ; qtot 23.975695
  759         ho     24    ccc    H11    759 0.45318100   1.008000   ; qtot 24.428876
  760         c3     24    ccc     C7    760 0.12498100  12.010000   ; qtot 24.553857
  761         hx     24    ccc    H12    761 0.12238100   1.008000   ; qtot 24.676238
  762         hx     24    ccc    H13    762 0.12238100   1.008000   ; qtot 24.798619
  763         c3     24    ccc     C8    763 -0.20771900  12.010000   ; qtot 24.590900
  764         hc     24    ccc    H14    764 0.11463100   1.008000   ; qtot 24.705531
  765         hc     24    ccc    H15    765 0.11463100   1.008000   ; qtot 24.820162
  766          c     24    ccc     C9    766 0.64078100  12.010000   ; qtot 25.460943
  767          o     24    ccc     O3    767 -0.49231900  16.000000   ; qtot 24.968624
  768         oh     24    ccc     O4    768 -0.51841900  16.000000   ; qtot 24.450205
  769         ho     24    ccc    H16    769 0.45318100   1.008000   ; qtot 24.903386
  770         os     24    ccc     O5    770 -0.39491900  16.000000   ; qtot 24.508467
  771         hn     24    ccc    H17    771 0.49148100   1.008000   ; qtot 24.999948
; residue   25 ccc rtp ccc q 1.0
  772         c3     25    ccc     C1    772 0.14608100  12.010000   ; qtot 25.146029
  773         h1     25    ccc     H1    773 0.06738100   1.008000   ; qtot 25.213410
  774         h1     25    ccc     H2    774 0.06738100   1.008000   ; qtot 25.280791
  775         c3     25    ccc     C2    775 -0.14571900  12.010000   ; qtot 25.135072
  776         hc     25    ccc     H3    776 0.08688100   1.008000   ; qtot 25.221953
  777         hc     25    ccc     H4    777 0.08688100   1.008000   ; qtot 25.308834
  778         c3     25    ccc     C3    778 0.12348100  12.010000   ; qtot 25.432315
  779         hx     25    ccc     H5    779 0.10638100   1.008000   ; qtot 25.538696
  780         hx     25    ccc     H6    780 0.10638100   1.008000   ; qtot 25.645077
  781         n4     25    ccc     N1    781 -0.69071900  14.010000   ; qtot 24.954358
  782         c3     25    ccc     C4    782 0.12498100  12.010000   ; qtot 25.079339
  783         hx     25    ccc     H7    783 0.12238100   1.008000   ; qtot 25.201720
  784         hx     25    ccc     H8    784 0.12238100   1.008000   ; qtot 25.324101
  785         c3     25    ccc     C5    785 -0.20771900  12.010000   ; qtot 25.116382
  786         hc     25    ccc     H9    786 0.11463100   1.008000   ; qtot 25.231013
  787         hc     25    ccc    H10    787 0.11463100   1.008000   ; qtot 25.345644
  788          c     25    ccc     C6    788 0.64078100  12.010000   ; qtot 25.986425
  789          o     25    ccc     O1    789 -0.49231900  16.000000   ; qtot 25.494106
  790         oh     25    ccc     O2    790 -0.51841900  16.000000   ; qtot 24.975687
  791         ho     25    ccc    H11    791 0.45318100   1.008000   ; qtot 25.428868
  792         c3     25    ccc     C7    792 0.12498100  12.010000   ; qtot 25.553849
  793         hx     25    ccc    H12    793 0.12238100   1.008000   ; qtot 25.676230
  794         hx     25    ccc    H13    794 0.12238100   1.008000   ; qtot 25.798611
  795         c3     25    ccc     C8    795 -0.20771900  12.010000   ; qtot 25.590892
  796         hc     25    ccc    H14    796 0.11463100   1.008000   ; qtot 25.705523
  797         hc     25    ccc    H15    797 0.11463100   1.008000   ; qtot 25.820154
  798          c     25    ccc     C9    798 0.64078100  12.010000   ; qtot 26.460935
  799          o     25    ccc     O3    799 -0.49231900  16.000000   ; qtot 25.968616
  800         oh     25    ccc     O4    800 -0.51841900  16.000000   ; qtot 25.450197
  801         ho     25    ccc    H16    801 0.45318100   1.008000   ; qtot 25.903378
  802         os     25    ccc     O5    802 -0.39491900  16.000000   ; qtot 25.508459
  803         hn     25    ccc    H17    803 0.49148100   1.008000   ; qtot 25.999940
; residue   26 ccc rtp ccc q 1.0
  804         c3     26    ccc     C1    804 0.14608100  12.010000   ; qtot 26.146021
  805         h1     26    ccc     H1    805 0.06738100   1.008000   ; qtot 26.213402
  806         h1     26    ccc     H2    806 0.06738100   1.008000   ; qtot 26.280783
  807         c3     26    ccc     C2    807 -0.14571900  12.010000   ; qtot 26.135064
  808         hc     26    ccc     H3    808 0.08688100   1.008000   ; qtot 26.221945
  809         hc     26    ccc     H4    809 0.08688100   1.008000   ; qtot 26.308826
  810         c3     26    ccc     C3    810 0.12348100  12.010000   ; qtot 26.432307
  811         hx     26    ccc     H5    811 0.10638100   1.008000   ; qtot 26.538688
  812         hx     26    ccc     H6    812 0.10638100   1.008000   ; qtot 26.645069
  813         n4     26    ccc     N1    813 -0.69071900  14.010000   ; qtot 25.954350
  814         c3     26    ccc     C4    814 0.12498100  12.010000   ; qtot 26.079331
  815         hx     26    ccc     H7    815 0.12238100   1.008000   ; qtot 26.201712
  816         hx     26    ccc     H8    816 0.12238100   1.008000   ; qtot 26.324093
  817         c3     26    ccc     C5    817 -0.20771900  12.010000   ; qtot 26.116374
  818         hc     26    ccc     H9    818 0.11463100   1.008000   ; qtot 26.231005
  819         hc     26    ccc    H10    819 0.11463100   1.008000   ; qtot 26.345636
  820          c     26    ccc     C6    820 0.64078100  12.010000   ; qtot 26.986417
  821          o     26    ccc     O1    821 -0.49231900  16.000000   ; qtot 26.494098
  822         oh     26    ccc     O2    822 -0.51841900  16.000000   ; qtot 25.975679
  823         ho     26    ccc    H11    823 0.45318100   1.008000   ; qtot 26.428860
  824         c3     26    ccc     C7    824 0.12498100  12.010000   ; qtot 26.553841
  825         hx     26    ccc    H12    825 0.12238100   1.008000   ; qtot 26.676222
  826         hx     26    ccc    H13    826 0.12238100   1.008000   ; qtot 26.798603
  827         c3     26    ccc     C8    827 -0.20771900  12.010000   ; qtot 26.590884
  828         hc     26    ccc    H14    828 0.11463100   1.008000   ; qtot 26.705515
  829         hc     26    ccc    H15    829 0.11463100   1.008000   ; qtot 26.820146
  830          c     26    ccc     C9    830 0.64078100  12.010000   ; qtot 27.460927
  831          o     26    ccc     O3    831 -0.49231900  16.000000   ; qtot 26.968608
  832         oh     26    ccc     O4    832 -0.51841900  16.000000   ; qtot 26.450189
  833         ho     26    ccc    H16    833 0.45318100   1.008000   ; qtot 26.903370
  834         os     26    ccc     O5    834 -0.39491900  16.000000   ; qtot 26.508451
  835         hn     26    ccc    H17    835 0.49148100   1.008000   ; qtot 26.999932
; residue   27 ccc rtp ccc q 1.0
  836         c3     27    ccc     C1    836 0.14608100  12.010000   ; qtot 27.146013
  837         h1     27    ccc     H1    837 0.06738100   1.008000   ; qtot 27.213394
  838         h1     27    ccc     H2    838 0.06738100   1.008000   ; qtot 27.280775
  839         c3     27    ccc     C2    839 -0.14571900  12.010000   ; qtot 27.135056
  840         hc     27    ccc     H3    840 0.08688100   1.008000   ; qtot 27.221937
  841         hc     27    ccc     H4    841 0.08688100   1.008000   ; qtot 27.308818
  842         c3     27    ccc     C3    842 0.12348100  12.010000   ; qtot 27.432299
  843         hx     27    ccc     H5    843 0.10638100   1.008000   ; qtot 27.538680
  844         hx     27    ccc     H6    844 0.10638100   1.008000   ; qtot 27.645061
  845         n4     27    ccc     N1    845 -0.69071900  14.010000   ; qtot 26.954342
  846         c3     27    ccc     C4    846 0.12498100  12.010000   ; qtot 27.079323
  847         hx     27    ccc     H7    847 0.12238100   1.008000   ; qtot 27.201704
  848         hx     27    ccc     H8    848 0.12238100   1.008000   ; qtot 27.324085
  849         c3     27    ccc     C5    849 -0.20771900  12.010000   ; qtot 27.116366
  850         hc     27    ccc     H9    850 0.11463100   1.008000   ; qtot 27.230997
  851         hc     27    ccc    H10    851 0.11463100   1.008000   ; qtot 27.345628
  852          c     27    ccc     C6    852 0.64078100  12.010000   ; qtot 27.986409
  853          o     27    ccc     O1    853 -0.49231900  16.000000   ; qtot 27.494090
  854         oh     27    ccc     O2    854 -0.51841900  16.000000   ; qtot 26.975671
  855         ho     27    ccc    H11    855 0.45318100   1.008000   ; qtot 27.428852
  856         c3     27    ccc     C7    856 0.12498100  12.010000   ; qtot 27.553833
  857         hx     27    ccc    H12    857 0.12238100   1.008000   ; qtot 27.676214
  858         hx     27    ccc    H13    858 0.12238100   1.008000   ; qtot 27.798595
  859         c3     27    ccc     C8    859 -0.20771900  12.010000   ; qtot 27.590876
  860         hc     27    ccc    H14    860 0.11463100   1.008000   ; qtot 27.705507
  861         hc     27    ccc    H15    861 0.11463100   1.008000   ; qtot 27.820138
  862          c     27    ccc     C9    862 0.64078100  12.010000   ; qtot 28.460919
  863          o     27    ccc     O3    863 -0.49231900  16.000000   ; qtot 27.968600
  864         oh     27    ccc     O4    864 -0.51841900  16.000000   ; qtot 27.450181
  865         ho     27    ccc    H16    865 0.45318100   1.008000   ; qtot 27.903362
  866         os     27    ccc     O5    866 -0.39491900  16.000000   ; qtot 27.508443
  867         hn     27    ccc    H17    867 0.49148100   1.008000   ; qtot 27.999924
; residue   28 ccc rtp ccc q 1.0
  868         c3     28    ccc     C1    868 0.14608100  12.010000   ; qtot 28.146005
  869         h1     28    ccc     H1    869 0.06738100   1.008000   ; qtot 28.213386
  870         h1     28    ccc     H2    870 0.06738100   1.008000   ; qtot 28.280767
  871         c3     28    ccc     C2    871 -0.14571900  12.010000   ; qtot 28.135048
  872         hc     28    ccc     H3    872 0.08688100   1.008000   ; qtot 28.221929
  873         hc     28    ccc     H4    873 0.08688100   1.008000   ; qtot 28.308810
  874         c3     28    ccc     C3    874 0.12348100  12.010000   ; qtot 28.432291
  875         hx     28    ccc     H5    875 0.10638100   1.008000   ; qtot 28.538672
  876         hx     28    ccc     H6    876 0.10638100   1.008000   ; qtot 28.645053
  877         n4     28    ccc     N1    877 -0.69071900  14.010000   ; qtot 27.954334
  878         c3     28    ccc     C4    878 0.12498100  12.010000   ; qtot 28.079315
  879         hx     28    ccc     H7    879 0.12238100   1.008000   ; qtot 28.201696
  880         hx     28    ccc     H8    880 0.12238100   1.008000   ; qtot 28.324077
  881         c3     28    ccc     C5    881 -0.20771900  12.010000   ; qtot 28.116358
  882         hc     28    ccc     H9    882 0.11463100   1.008000   ; qtot 28.230989
  883         hc     28    ccc    H10    883 0.11463100   1.008000   ; qtot 28.345620
  884          c     28    ccc     C6    884 0.64078100  12.010000   ; qtot 28.986401
  885          o     28    ccc     O1    885 -0.49231900  16.000000   ; qtot 28.494082
  886         oh     28    ccc     O2    886 -0.51841900  16.000000   ; qtot 27.975663
  887         ho     28    ccc    H11    887 0.45318100   1.008000   ; qtot 28.428844
  888         c3     28    ccc     C7    888 0.12498100  12.010000   ; qtot 28.553825
  889         hx     28    ccc    H12    889 0.12238100   1.008000   ; qtot 28.676206
  890         hx     28    ccc    H13    890 0.12238100   1.008000   ; qtot 28.798587
  891         c3     28    ccc     C8    891 -0.20771900  12.010000   ; qtot 28.590868
  892         hc     28    ccc    H14    892 0.11463100   1.008000   ; qtot 28.705499
  893         hc     28    ccc    H15    893 0.11463100   1.008000   ; qtot 28.820130
  894          c     28    ccc     C9    894 0.64078100  12.010000   ; qtot 29.460911
  895          o     28    ccc     O3    895 -0.49231900  16.000000   ; qtot 28.968592
  896         oh     28    ccc     O4    896 -0.51841900  16.000000   ; qtot 28.450173
  897         ho     28    ccc    H16    897 0.45318100   1.008000   ; qtot 28.903354
  898         os     28    ccc     O5    898 -0.39491900  16.000000   ; qtot 28.508435
  899         hn     28    ccc    H17    899 0.49148100   1.008000   ; qtot 28.999916
; residue   29 ccc rtp ccc q 1.0
  900         c3     29    ccc     C1    900 0.14608100  12.010000   ; qtot 29.145997
  901         h1     29    ccc     H1    901 0.06738100   1.008000   ; qtot 29.213378
  902         h1     29    ccc     H2    902 0.06738100   1.008000   ; qtot 29.280759
  903         c3     29    ccc     C2    903 -0.14571900  12.010000   ; qtot 29.135040
  904         hc     29    ccc     H3    904 0.08688100   1.008000   ; qtot 29.221921
  905         hc     29    ccc     H4    905 0.08688100   1.008000   ; qtot 29.308802
  906         c3     29    ccc     C3    906 0.12348100  12.010000   ; qtot 29.432283
  907         hx     29    ccc     H5    907 0.10638100   1.008000   ; qtot 29.538664
  908         hx     29    ccc     H6    908 0.10638100   1.008000   ; qtot 29.645045
  909         n4     29    ccc     N1    909 -0.69071900  14.010000   ; qtot 28.954326
  910         c3     29    ccc     C4    910 0.12498100  12.010000   ; qtot 29.079307
  911         hx     29    ccc     H7    911 0.12238100   1.008000   ; qtot 29.201688
  912         hx     29    ccc     H8    912 0.12238100   1.008000   ; qtot 29.324069
  913         c3     29    ccc     C5    913 -0.20771900  12.010000   ; qtot 29.116350
  914         hc     29    ccc     H9    914 0.11463100   1.008000   ; qtot 29.230981
  915         hc     29    ccc    H10    915 0.11463100   1.008000   ; qtot 29.345612
  916          c     29    ccc     C6    916 0.64078100  12.010000   ; qtot 29.986393
  917          o     29    ccc     O1    917 -0.49231900  16.000000   ; qtot 29.494074
  918         oh     29    ccc     O2    918 -0.51841900  16.000000   ; qtot 28.975655
  919         ho     29    ccc    H11    919 0.45318100   1.008000   ; qtot 29.428836
  920         c3     29    ccc     C7    920 0.12498100  12.010000   ; qtot 29.553817
  921         hx     29    ccc    H12    921 0.12238100   1.008000   ; qtot 29.676198
  922         hx     29    ccc    H13    922 0.12238100   1.008000   ; qtot 29.798579
  923         c3     29    ccc     C8    923 -0.20771900  12.010000   ; qtot 29.590860
  924         hc     29    ccc    H14    924 0.11463100   1.008000   ; qtot 29.705491
  925         hc     29    ccc    H15    925 0.11463100   1.008000   ; qtot 29.820122
  926          c     29    ccc     C9    926 0.64078100  12.010000   ; qtot 30.460903
  927          o     29    ccc     O3    927 -0.49231900  16.000000   ; qtot 29.968584
  928         oh     29    ccc     O4    928 -0.51841900  16.000000   ; qtot 29.450165
  929         ho     29    ccc    H16    929 0.45318100   1.008000   ; qtot 29.903346
  930         os     29    ccc     O5    930 -0.39491900  16.000000   ; qtot 29.508427
  931         hn     29    ccc    H17    931 0.49148100   1.008000   ; qtot 29.999908

[ bonds ]
;    ai     aj funct         c0         c1         c2         c3
      1      2     1   0.14316 258236.480000
      1      5     1   0.14316 258236.480000
      2      8     1   0.15375 251793.120000
      5     11     1   0.15375 251793.120000
      8     14     1   0.15375 251793.120000
     11     17     1   0.15375 251793.120000
     14     20     1   0.15110 237065.440000
     17     21     1   0.15110 237065.440000
     20     28     1   0.15110 237065.440000
     20     31     1   0.15110 237065.440000
     21     22     1   0.15110 237065.440000
     21     25     1   0.15110 237065.440000
     22     34     1   0.15375 251793.120000
     25     37     1   0.15375 251793.120000
     28     40     1   0.15375 251793.120000
     31     43     1   0.15375 251793.120000
     34     55     1   0.15375 251793.120000
     37     52     1   0.15375 251793.120000
     40     49     1   0.15375 251793.120000
     43     46     1   0.15375 251793.120000
     46     88     1   0.14316 258236.480000
     49    118     1   0.14316 258236.480000
     52    148     1   0.14316 258236.480000
     55    178     1   0.14316 258236.480000
     60     61     1   0.15110 237065.440000
     60     64     1   0.15110 237065.440000
     60     67     1   0.15110 237065.440000
     61     73     1   0.15375 251793.120000
     64     76     1   0.15375 251793.120000
     67     70     1   0.15375 251793.120000
     70     79     1   0.15375 251793.120000
     73     85     1   0.15375 251793.120000
     76     82     1   0.15375 251793.120000
     79     88     1   0.14316 258236.480000
     82    208     1   0.14316 258236.480000
     85    238     1   0.14316 258236.480000
     90     91     1   0.15110 237065.440000
     90     94     1   0.15110 237065.440000
     90     97     1   0.15110 237065.440000
     91    103     1   0.15375 251793.120000
     94    106     1   0.15375 251793.120000
     97    100     1   0.15375 251793.120000
    100    109     1   0.15375 251793.120000
    103    115     1   0.15375 251793.120000
    106    112     1   0.15375 251793.120000
    109    118     1   0.14316 258236.480000
    112    268     1   0.14316 258236.480000
    115    298     1   0.14316 258236.480000
    120    121     1   0.15110 237065.440000
    120    124     1   0.15110 237065.440000
    120    127     1   0.15110 237065.440000
    121    133     1   0.15375 251793.120000
    124    136     1   0.15375 251793.120000
    127    130     1   0.15375 251793.120000
    130    139     1   0.15375 251793.120000
    133    145     1   0.15375 251793.120000
    136    142     1   0.15375 251793.120000
    139    148     1   0.14316 258236.480000
    142    328     1   0.14316 258236.480000
    145    358     1   0.14316 258236.480000
    150    151     1   0.15110 237065.440000
    150    154     1   0.15110 237065.440000
    150    157     1   0.15110 237065.440000
    151    163     1   0.15375 251793.120000
    154    166     1   0.15375 251793.120000
    157    160     1   0.15375 251793.120000
    160    169     1   0.15375 251793.120000
    163    175     1   0.15375 251793.120000
    166    172     1   0.15375 251793.120000
    169    178     1   0.14316 258236.480000
    172    388     1   0.14316 258236.480000
    175    418     1   0.14316 258236.480000
    180    181     1   0.15110 237065.440000
    180    184     1   0.15110 237065.440000
    180    187     1   0.15110 237065.440000
    181    193     1   0.15375 251793.120000
    184    196     1   0.15375 251793.120000
    187    190     1   0.15375 251793.120000
    190    199     1   0.15375 251793.120000
    193    205     1   0.15375 251793.120000
    196    202     1   0.15375 251793.120000
    199    208     1   0.14316 258236.480000
    202    450     1   0.14316 258236.480000
    205    482     1   0.14316 258236.480000
    210    211     1   0.15110 237065.440000
    210    214     1   0.15110 237065.440000
    210    217     1   0.15110 237065.440000
    211    223     1   0.15375 251793.120000
    214    226     1   0.15375 251793.120000
    217    220     1   0.15375 251793.120000
    220    229     1   0.15375 251793.120000
    223    235     1   0.15375 251793.120000
    226    232     1   0.15375 251793.120000
    229    238     1   0.14316 258236.480000
    232    514     1   0.14316 258236.480000
    235    546     1   0.14316 258236.480000
    240    241     1   0.15110 237065.440000
    240    244     1   0.15110 237065.440000
    240    247     1   0.15110 237065.440000
    241    253     1   0.15375 251793.120000
    244    256     1   0.15375 251793.120000
    247    250     1   0.15375 251793.120000
    250    259     1   0.15375 251793.120000
    253    265     1   0.15375 251793.120000
    256    262     1   0.15375 251793.120000
    259    268     1   0.14316 258236.480000
    262    578     1   0.14316 258236.480000
    265    610     1   0.14316 258236.480000
    270    271     1   0.15110 237065.440000
    270    274     1   0.15110 237065.440000
    270    277     1   0.15110 237065.440000
    271    283     1   0.15375 251793.120000
    274    286     1   0.15375 251793.120000
    277    280     1   0.15375 251793.120000
    280    289     1   0.15375 251793.120000
    283    295     1   0.15375 251793.120000
    286    292     1   0.15375 251793.120000
    289    298     1   0.14316 258236.480000
    292    642     1   0.14316 258236.480000
    295    674     1   0.14316 258236.480000
    300    301     1   0.15110 237065.440000
    300    304     1   0.15110 237065.440000
    300    307     1   0.15110 237065.440000
    301    313     1   0.15375 251793.120000
    304    316     1   0.15375 251793.120000
    307    310     1   0.15375 251793.120000
    310    319     1   0.15375 251793.120000
    313    325     1   0.15375 251793.120000
    316    322     1   0.15375 251793.120000
    319    328     1   0.14316 258236.480000
    322    706     1   0.14316 258236.480000
    325    738     1   0.14316 258236.480000
    330    331     1   0.15110 237065.440000
    330    334     1   0.15110 237065.440000
    330    337     1   0.15110 237065.440000
    331    343     1   0.15375 251793.120000
    334    346     1   0.15375 251793.120000
    337    340     1   0.15375 251793.120000
    340    349     1   0.15375 251793.120000
    343    355     1   0.15375 251793.120000
    346    352     1   0.15375 251793.120000
    349    358     1   0.14316 258236.480000
    352    770     1   0.14316 258236.480000
    355    802     1   0.14316 258236.480000
    360    361     1   0.15110 237065.440000
    360    364     1   0.15110 237065.440000
    360    367     1   0.15110 237065.440000
    361    373     1   0.15375 251793.120000
    364    376     1   0.15375 251793.120000
    367    370     1   0.15375 251793.120000
    370    379     1   0.15375 251793.120000
    373    385     1   0.15375 251793.120000
    376    382     1   0.15375 251793.120000
    379    388     1   0.14316 258236.480000
    382    834     1   0.14316 258236.480000
    385    866     1   0.14316 258236.480000
    390    391     1   0.15110 237065.440000
    390    394     1   0.15110 237065.440000
    390    397     1   0.15110 237065.440000
    391    403     1   0.15375 251793.120000
    394    406     1   0.15375 251793.120000
    397    400     1   0.15375 251793.120000
    400    409     1   0.15375 251793.120000
    403    415     1   0.15375 251793.120000
    406    412     1   0.15375 251793.120000
    409    418     1   0.14316 258236.480000
    412    898     1   0.14316 258236.480000
    415    930     1   0.14316 258236.480000
    420    423     1   0.15375 251793.120000
    420    450     1   0.14316 258236.480000
    423    426     1   0.15375 251793.120000
    426    429     1   0.15110 237065.440000
    429    430     1   0.15110 237065.440000
    429    440     1   0.15110 237065.440000
    430    433     1   0.15375 251793.120000
    433    436     1   0.15241 261918.400000
    436    437     1   0.12183 533627.360000
    436    438     1   0.13513 334803.680000
    440    443     1   0.15375 251793.120000
    443    446     1   0.15241 261918.400000
    446    447     1   0.12183 533627.360000
    446    448     1   0.13513 334803.680000
    452    455     1   0.15375 251793.120000
    452    482     1   0.14316 258236.480000
    455    458     1   0.15375 251793.120000
    458    461     1   0.15110 237065.440000
    461    462     1   0.15110 237065.440000
    461    472     1   0.15110 237065.440000
    462    465     1   0.15375 251793.120000
    465    468     1   0.15241 261918.400000
    468    469     1   0.12183 533627.360000
    468    470     1   0.13513 334803.680000
    472    475     1   0.15375 251793.120000
    475    478     1   0.15241 261918.400000
    478    479     1   0.12183 533627.360000
    478    480     1   0.13513 334803.680000
    484    487     1   0.15375 251793.120000
    484    514     1   0.14316 258236.480000
    487    490     1   0.15375 251793.120000
    490    493     1   0.15110 237065.440000
    493    494     1   0.15110 237065.440000
    493    504     1   0.15110 237065.440000
    494    497     1   0.15375 251793.120000
    497    500     1   0.15241 261918.400000
    500    501     1   0.12183 533627.360000
    500    502     1   0.13513 334803.680000
    504    507     1   0.15375 251793.120000
    507    510     1   0.15241 261918.400000
    510    511     1   0.12183 533627.360000
    510    512     1   0.13513 334803.680000
    516    519     1   0.15375 251793.120000
    516    546     1   0.14316 258236.480000
    519    522     1   0.15375 251793.120000
    522    525     1   0.15110 237065.440000
    525    526     1   0.15110 237065.440000
    525    536     1   0.15110 237065.440000
    526    529     1   0.15375 251793.120000
    529    532     1   0.15241 261918.400000
    532    533     1   0.12183 533627.360000
    532    534     1   0.13513 334803.680000
    536    539     1   0.15375 251793.120000
    539    542     1   0.15241 261918.400000
    542    543     1   0.12183 533627.360000
    542    544     1   0.13513 334803.680000
    548    551     1   0.15375 251793.120000
    548    578     1   0.14316 258236.480000
    551    554     1   0.15375 251793.120000
    554    557     1   0.15110 237065.440000
    557    558     1   0.15110 237065.440000
    557    568     1   0.15110 237065.440000
    558    561     1   0.15375 251793.120000
    561    564     1   0.15241 261918.400000
    564    565     1   0.12183 533627.360000
    564    566     1   0.13513 334803.680000
    568    571     1   0.15375 251793.120000
    571    574     1   0.15241 261918.400000
    574    575     1   0.12183 533627.360000
    574    576     1   0.13513 334803.680000
    580    583     1   0.15375 251793.120000
    580    610     1   0.14316 258236.480000
    583    586     1   0.15375 251793.120000
    586    589     1   0.15110 237065.440000
    589    590     1   0.15110 237065.440000
    589    600     1   0.15110 237065.440000
    590    593     1   0.15375 251793.120000
    593    596     1   0.15241 261918.400000
    596    597     1   0.12183 533627.360000
    596    598     1   0.13513 334803.680000
    600    603     1   0.15375 251793.120000
    603    606     1   0.15241 261918.400000
    606    607     1   0.12183 533627.360000
    606    608     1   0.13513 334803.680000
    612    615     1   0.15375 251793.120000
    612    642     1   0.14316 258236.480000
    615    618     1   0.15375 251793.120000
    618    621     1   0.15110 237065.440000
    621    622     1   0.15110 237065.440000
    621    632     1   0.15110 237065.440000
    622    625     1   0.15375 251793.120000
    625    628     1   0.15241 261918.400000
    628    629     1   0.12183 533627.360000
    628    630     1   0.13513 334803.680000
    632    635     1   0.15375 251793.120000
    635    638     1   0.15241 261918.400000
    638    639     1   0.12183 533627.360000
    638    640     1   0.13513 334803.680000
    644    647     1   0.15375 251793.120000
    644    674     1   0.14316 258236.480000
    647    650     1   0.15375 251793.120000
    650    653     1   0.15110 237065.440000
    653    654     1   0.15110 237065.440000
    653    664     1   0.15110 237065.440000
    654    657     1   0.15375 251793.120000
    657    660     1   0.15241 261918.400000
    660    661     1   0.12183 533627.360000
    660    662     1   0.13513 334803.680000
    664    667     1   0.15375 251793.120000
    667    670     1   0.15241 261918.400000
    670    671     1   0.12183 533627.360000
    670    672     1   0.13513 334803.680000
    676    679     1   0.15375 251793.120000
    676    706     1   0.14316 258236.480000
    679    682     1   0.15375 251793.120000
    682    685     1   0.15110 237065.440000
    685    686     1   0.15110 237065.440000
    685    696     1   0.15110 237065.440000
    686    689     1   0.15375 251793.120000
    689    692     1   0.15241 261918.400000
    692    693     1   0.12183 533627.360000
    692    694     1   0.13513 334803.680000
    696    699     1   0.15375 251793.120000
    699    702     1   0.15241 261918.400000
    702    703     1   0.12183 533627.360000
    702    704     1   0.13513 334803.680000
    708    711     1   0.15375 251793.120000
    708    738     1   0.14316 258236.480000
    711    714     1   0.15375 251793.120000
    714    717     1   0.15110 237065.440000
    717    718     1   0.15110 237065.440000
    717    728     1   0.15110 237065.440000
    718    721     1   0.15375 251793.120000
    721    724     1   0.15241 261918.400000
    724    725     1   0.12183 533627.360000
    724    726     1   0.13513 334803.680000
    728    731     1   0.15375 251793.120000
    731    734     1   0.15241 261918.400000
    734    735     1   0.12183 533627.360000
    734    736     1   0.13513 334803.680000
    740    743     1   0.15375 251793.120000
    740    770     1   0.14316 258236.480000
    743    746     1   0.15375 251793.120000
    746    749     1   0.15110 237065.440000
    749    750     1   0.15110 237065.440000
    749    760     1   0.15110 237065.440000
    750    753     1   0.15375 251793.120000
    753    756     1   0.15241 261918.400000
    756    757     1   0.12183 533627.360000
    756    758     1   0.13513 334803.680000
    760    763     1   0.15375 251793.120000
    763    766     1   0.15241 261918.400000
    766    767     1   0.12183 533627.360000
    766    768     1   0.13513 334803.680000
    772    775     1   0.15375 251793.120000
    772    802     1   0.14316 258236.480000
    775    778     1   0.15375 251793.120000
    778    781     1   0.15110 237065.440000
    781    782     1   0.15110 237065.440000
    781    792     1   0.15110 237065.440000
    782    785     1   0.15375 251793.120000
    785    788     1   0.15241 261918.400000
    788    789     1   0.12183 533627.360000
    788    790     1   0.13513 334803.680000
    792    795     1   0.15375 251793.120000
    795    798     1   0.15241 261918.400000
    798    799     1   0.12183 533627.360000
    798    800     1   0.13513 334803.680000
    804    807     1   0.15375 251793.120000
    804    834     1   0.14316 258236.480000
    807    810     1   0.15375 251793.120000
    810    813     1   0.15110 237065.440000
    813    814     1   0.15110 237065.440000
    813    824     1   0.15110 237065.440000
    814    817     1   0.15375 251793.120000
    817    820     1   0.15241 261918.400000
    820    821     1   0.12183 533627.360000
    820    822     1   0.13513 334803.680000
    824    827     1   0.15375 251793.120000
    827    830     1   0.15241 261918.400000
    830    831     1   0.12183 533627.360000
    830    832     1   0.13513 334803.680000
    836    839     1   0.15375 251793.120000
    836    866     1   0.14316 258236.480000
    839    842     1   0.15375 251793.120000
    842    845     1   0.15110 237065.440000
    845    846     1   0.15110 237065.440000
    845    856     1   0.15110 237065.440000
    846    849     1   0.15375 251793.120000
    849    852     1   0.15241 261918.400000
    852    853     1   0.12183 533627.360000
    852    854     1   0.13513 334803.680000
    856    859     1   0.15375 251793.120000
    859    862     1   0.15241 261918.400000
    862    863     1   0.12183 533627.360000
    862    864     1   0.13513 334803.680000
    868    871     1   0.15375 251793.120000
    868    898     1   0.14316 258236.480000
    871    874     1   0.15375 251793.120000
    874    877     1   0.15110 237065.440000
    877    878     1   0.15110 237065.440000
    877    888     1   0.15110 237065.440000
    878    881     1   0.15375 251793.120000
    881    884     1   0.15241 261918.400000
    884    885     1   0.12183 533627.360000
    884    886     1   0.13513 334803.680000
    888    891     1   0.15375 251793.120000
    891    894     1   0.15241 261918.400000
    894    895     1   0.12183 533627.360000
    894    896     1   0.13513 334803.680000
    900    903     1   0.15375 251793.120000
    900    930     1   0.14316 258236.480000
    903    906     1   0.15375 251793.120000
    906    909     1   0.15110 237065.440000
    909    910     1   0.15110 237065.440000
    909    920     1   0.15110 237065.440000
    910    913     1   0.15375 251793.120000
    913    916     1   0.15241 261918.400000
    916    917     1   0.12183 533627.360000
    916    918     1   0.13513 334803.680000
    920    923     1   0.15375 251793.120000
    923    926     1   0.15241 261918.400000
    926    927     1   0.12183 533627.360000
    926    928     1   0.13513 334803.680000
      2      3     1   0.10969 276646.080000
      2      4     1   0.10969 276646.080000
      5      6     1   0.10969 276646.080000
      5      7     1   0.10969 276646.080000
      8      9     1   0.10969 276646.080000
      8     10     1   0.10969 276646.080000
     11     12     1   0.10969 276646.080000
     11     13     1   0.10969 276646.080000
     14     15     1   0.10910 283424.160000
     14     16     1   0.10910 283424.160000
     17     18     1   0.10910 283424.160000
     17     19     1   0.10910 283424.160000
     20     58     1   0.10304 312293.760000
     21     59     1   0.10304 312293.760000
     22     23     1   0.10910 283424.160000
     22     24     1   0.10910 283424.160000
     25     26     1   0.10910 283424.160000
     25     27     1   0.10910 283424.160000
     28     29     1   0.10910 283424.160000
     28     30     1   0.10910 283424.160000
     31     32     1   0.10910 283424.160000
     31     33     1   0.10910 283424.160000
     34     35     1   0.10969 276646.080000
     34     36     1   0.10969 276646.080000
     37     38     1   0.10969 276646.080000
     37     39     1   0.10969 276646.080000
     40     41     1   0.10969 276646.080000
     40     42     1   0.10969 276646.080000
     43     44     1   0.10969 276646.080000
     43     45     1   0.10969 276646.080000
     46     47     1   0.10969 276646.080000
     46     48     1   0.10969 276646.080000
     49     50     1   0.10969 276646.080000
     49     51     1   0.10969 276646.080000
     52     53     1   0.10969 276646.080000
     52     54     1   0.10969 276646.080000
     55     56     1   0.10969 276646.080000
     55     57     1   0.10969 276646.080000
     60     89     1   0.10304 312293.760000
     61     62     1   0.10910 283424.160000
     61     63     1   0.10910 283424.160000
     64     65     1   0.10910 283424.160000
     64     66     1   0.10910 283424.160000
     67     68     1   0.10910 283424.160000
     67     69     1   0.10910 283424.160000
     70     71     1   0.10969 276646.080000
     70     72     1   0.10969 276646.080000
     73     74     1   0.10969 276646.080000
     73     75     1   0.10969 276646.080000
     76     77     1   0.10969 276646.080000
     76     78     1   0.10969 276646.080000
     79     80     1   0.10969 276646.080000
     79     81     1   0.10969 276646.080000
     82     83     1   0.10969 276646.080000
     82     84     1   0.10969 276646.080000
     85     86     1   0.10969 276646.080000
     85     87     1   0.10969 276646.080000
     90    119     1   0.10304 312293.760000
     91     92     1   0.10910 283424.160000
     91     93     1   0.10910 283424.160000
     94     95     1   0.10910 283424.160000
     94     96     1   0.10910 283424.160000
     97     98     1   0.10910 283424.160000
     97     99     1   0.10910 283424.160000
    100    101     1   0.10969 276646.080000
    100    102     1   0.10969 276646.080000
    103    104     1   0.10969 276646.080000
    103    105     1   0.10969 276646.080000
    106    107     1   0.10969 276646.080000
    106    108     1   0.10969 276646.080000
    109    110     1   0.10969 276646.080000
    109    111     1   0.10969 276646.080000
    112    113     1   0.10969 276646.080000
    112    114     1   0.10969 276646.080000
    115    116     1   0.10969 276646.080000
    115    117     1   0.10969 276646.080000
    120    149     1   0.10304 312293.760000
    121    122     1   0.10910 283424.160000
    121    123     1   0.10910 283424.160000
    124    125     1   0.10910 283424.160000
    124    126     1   0.10910 283424.160000
    127    128     1   0.10910 283424.160000
    127    129     1   0.10910 283424.160000
    130    131     1   0.10969 276646.080000
    130    132     1   0.10969 276646.080000
    133    134     1   0.10969 276646.080000
    133    135     1   0.10969 276646.080000
    136    137     1   0.10969 276646.080000
    136    138     1   0.10969 276646.080000
    139    140     1   0.10969 276646.080000
    139    141     1   0.10969 276646.080000
    142    143     1   0.10969 276646.080000
    142    144     1   0.10969 276646.080000
    145    146     1   0.10969 276646.080000
    145    147     1   0.10969 276646.080000
    150    179     1   0.10304 312293.760000
    151    152     1   0.10910 283424.160000
    151    153     1   0.10910 283424.160000
    154    155     1   0.10910 283424.160000
    154    156     1   0.10910 283424.160000
    157    158     1   0.10910 283424.160000
    157    159     1   0.10910 283424.160000
    160    161     1   0.10969 276646.080000
    160    162     1   0.10969 276646.080000
    163    164     1   0.10969 276646.080000
    163    165     1   0.10969 276646.080000
    166    167     1   0.10969 276646.080000
    166    168     1   0.10969 276646.080000
    169    170     1   0.10969 276646.080000
    169    171     1   0.10969 276646.080000
    172    173     1   0.10969 276646.080000
    172    174     1   0.10969 276646.080000
    175    176     1   0.10969 276646.080000
    175    177     1   0.10969 276646.080000
    180    209     1   0.10304 312293.760000
    181    182     1   0.10910 283424.160000
    181    183     1   0.10910 283424.160000
    184    185     1   0.10910 283424.160000
    184    186     1   0.10910 283424.160000
    187    188     1   0.10910 283424.160000
    187    189     1   0.10910 283424.160000
    190    191     1   0.10969 276646.080000
    190    192     1   0.10969 276646.080000
    193    194     1   0.10969 276646.080000
    193    195     1   0.10969 276646.080000
    196    197     1   0.10969 276646.080000
    196    198     1   0.10969 276646.080000
    199    200     1   0.10969 276646.080000
    199    201     1   0.10969 276646.080000
    202    203     1   0.10969 276646.080000
    202    204     1   0.10969 276646.080000
    205    206     1   0.10969 276646.080000
    205    207     1   0.10969 276646.080000
    210    239     1   0.10304 312293.760000
    211    212     1   0.10910 283424.160000
    211    213     1   0.10910 283424.160000
    214    215     1   0.10910 283424.160000
    214    216     1   0.10910 283424.160000
    217    218     1   0.10910 283424.160000
    217    219     1   0.10910 283424.160000
    220    221     1   0.10969 276646.080000
    220    222     1   0.10969 276646.080000
    223    224     1   0.10969 276646.080000
    223    225     1   0.10969 276646.080000
    226    227     1   0.10969 276646.080000
    226    228     1   0.10969 276646.080000
    229    230     1   0.10969 276646.080000
    229    231     1   0.10969 276646.080000
    232    233     1   0.10969 276646.080000
    232    234     1   0.10969 276646.080000
    235    236     1   0.10969 276646.080000
    235    237     1   0.10969 276646.080000
    240    269     1   0.10304 312293.760000
    241    242     1   0.10910 283424.160000
    241    243     1   0.10910 283424.160000
    244    245     1   0.10910 283424.160000
    244    246     1   0.10910 283424.160000
    247    248     1   0.10910 283424.160000
    247    249     1   0.10910 283424.160000
    250    251     1   0.10969 276646.080000
    250    252     1   0.10969 276646.080000
    253    254     1   0.10969 276646.080000
    253    255     1   0.10969 276646.080000
    256    257     1   0.10969 276646.080000
    256    258     1   0.10969 276646.080000
    259    260     1   0.10969 276646.080000
    259    261     1   0.10969 276646.080000
    262    263     1   0.10969 276646.080000
    262    264     1   0.10969 276646.080000
    265    266     1   0.10969 276646.080000
    265    267     1   0.10969 276646.080000
    270    299     1   0.10304 312293.760000
    271    272     1   0.10910 283424.160000
    271    273     1   0.10910 283424.160000
    274    275     1   0.10910 283424.160000
    274    276     1   0.10910 283424.160000
    277    278     1   0.10910 283424.160000
    277    279     1   0.10910 283424.160000
    280    281     1   0.10969 276646.080000
    280    282     1   0.10969 276646.080000
    283    284     1   0.10969 276646.080000
    283    285     1   0.10969 276646.080000
    286    287     1   0.10969 276646.080000
    286    288     1   0.10969 276646.080000
    289    290     1   0.10969 276646.080000
    289    291     1   0.10969 276646.080000
    292    293     1   0.10969 276646.080000
    292    294     1   0.10969 276646.080000
    295    296     1   0.10969 276646.080000
    295    297     1   0.10969 276646.080000
    300    329     1   0.10304 312293.760000
    301    302     1   0.10910 283424.160000
    301    303     1   0.10910 283424.160000
    304    305     1   0.10910 283424.160000
    304    306     1   0.10910 283424.160000
    307    308     1   0.10910 283424.160000
    307    309     1   0.10910 283424.160000
    310    311     1   0.10969 276646.080000
    310    312     1   0.10969 276646.080000
    313    314     1   0.10969 276646.080000
    313    315     1   0.10969 276646.080000
    316    317     1   0.10969 276646.080000
    316    318     1   0.10969 276646.080000
    319    320     1   0.10969 276646.080000
    319    321     1   0.10969 276646.080000
    322    323     1   0.10969 276646.080000
    322    324     1   0.10969 276646.080000
    325    326     1   0.10969 276646.080000
    325    327     1   0.10969 276646.080000
    330    359     1   0.10304 312293.760000
    331    332     1   0.10910 283424.160000
    331    333     1   0.10910 283424.160000
    334    335     1   0.10910 283424.160000
    334    336     1   0.10910 283424.160000
    337    338     1   0.10910 283424.160000
    337    339     1   0.10910 283424.160000
    340    341     1   0.10969 276646.080000
    340    342     1   0.10969 276646.080000
    343    344     1   0.10969 276646.080000
    343    345     1   0.10969 276646.080000
    346    347     1   0.10969 276646.080000
    346    348     1   0.10969 276646.080000
    349    350     1   0.10969 276646.080000
    349    351     1   0.10969 276646.080000
    352    353     1   0.10969 276646.080000
    352    354     1   0.10969 276646.080000
    355    356     1   0.10969 276646.080000
    355    357     1   0.10969 276646.080000
    360    389     1   0.10304 312293.760000
    361    362     1   0.10910 283424.160000
    361    363     1   0.10910 283424.160000
    364    365     1   0.10910 283424.160000
    364    366     1   0.10910 283424.160000
    367    368     1   0.10910 283424.160000
    367    369     1   0.10910 283424.160000
    370    371     1   0.10969 276646.080000
    370    372     1   0.10969 276646.080000
    373    374     1   0.10969 276646.080000
    373    375     1   0.10969 276646.080000
    376    377     1   0.10969 276646.080000
    376    378     1   0.10969 276646.080000
    379    380     1   0.10969 276646.080000
    379    381     1   0.10969 276646.080000
    382    383     1   0.10969 276646.080000
    382    384     1   0.10969 276646.080000
    385    386     1   0.10969 276646.080000
    385    387     1   0.10969 276646.080000
    390    419     1   0.10304 312293.760000
    391    392     1   0.10910 283424.160000
    391    393     1   0.10910 283424.160000
    394    395     1   0.10910 283424.160000
    394    396     1   0.10910 283424.160000
    397    398     1   0.10910 283424.160000
    397    399     1   0.10910 283424.160000
    400    401     1   0.10969 276646.080000
    400    402     1   0.10969 276646.080000
    403    404     1   0.10969 276646.080000
    403    405     1   0.10969 276646.080000
    406    407     1   0.10969 276646.080000
    406    408     1   0.10969 276646.080000
    409    410     1   0.10969 276646.080000
    409    411     1   0.10969 276646.080000
    412    413     1   0.10969 276646.080000
    412    414     1   0.10969 276646.080000
    415    416     1   0.10969 276646.080000
    415    417     1   0.10969 276646.080000
    420    421     1   0.10969 276646.080000
    420    422     1   0.10969 276646.080000
    423    424     1   0.10969 276646.080000
    423    425     1   0.10969 276646.080000
    426    427     1   0.10910 283424.160000
    426    428     1   0.10910 283424.160000
    429    451     1   0.10304 312293.760000
    430    431     1   0.10910 283424.160000
    430    432     1   0.10910 283424.160000
    433    434     1   0.10969 276646.080000
    433    435     1   0.10969 276646.080000
    438    439     1   0.09730 310787.520000
    440    441     1   0.10910 283424.160000
    440    442     1   0.10910 283424.160000
    443    444     1   0.10969 276646.080000
    443    445     1   0.10969 276646.080000
    448    449     1   0.09730 310787.520000
    452    453     1   0.10969 276646.080000
    452    454     1   0.10969 276646.080000
    455    456     1   0.10969 276646.080000
    455    457     1   0.10969 276646.080000
    458    459     1   0.10910 283424.160000
    458    460     1   0.10910 283424.160000
    461    483     1   0.10304 312293.760000
    462    463     1   0.10910 283424.160000
    462    464     1   0.10910 283424.160000
    465    466     1   0.10969 276646.080000
    465    467     1   0.10969 276646.080000
    470    471     1   0.09730 310787.520000
    472    473     1   0.10910 283424.160000
    472    474     1   0.10910 283424.160000
    475    476     1   0.10969 276646.080000
    475    477     1   0.10969 276646.080000
    480    481     1   0.09730 310787.520000
    484    485     1   0.10969 276646.080000
    484    486     1   0.10969 276646.080000
    487    488     1   0.10969 276646.080000
    487    489     1   0.10969 276646.080000
    490    491     1   0.10910 283424.160000
    490    492     1   0.10910 283424.160000
    493    515     1   0.10304 312293.760000
    494    495     1   0.10910 283424.160000
    494    496     1   0.10910 283424.160000
    497    498     1   0.10969 276646.080000
    497    499     1   0.10969 276646.080000
    502    503     1   0.09730 310787.520000
    504    505     1   0.10910 283424.160000
    504    506     1   0.10910 283424.160000
    507    508     1   0.10969 276646.080000
    507    509     1   0.10969 276646.080000
    512    513     1   0.09730 310787.520000
    516    517     1   0.10969 276646.080000
    516    518     1   0.10969 276646.080000
    519    520     1   0.10969 276646.080000
    519    521     1   0.10969 276646.080000
    522    523     1   0.10910 283424.160000
    522    524     1   0.10910 283424.160000
    525    547     1   0.10304 312293.760000
    526    527     1   0.10910 283424.160000
    526    528     1   0.10910 283424.160000
    529    530     1   0.10969 276646.080000
    529    531     1   0.10969 276646.080000
    534    535     1   0.09730 310787.520000
    536    537     1   0.10910 283424.160000
    536    538     1   0.10910 283424.160000
    539    540     1   0.10969 276646.080000
    539    541     1   0.10969 276646.080000
    544    545     1   0.09730 310787.520000
    548    549     1   0.10969 276646.080000
    548    550     1   0.10969 276646.080000
    551    552     1   0.10969 276646.080000
    551    553     1   0.10969 276646.080000
    554    555     1   0.10910 283424.160000
    554    556     1   0.10910 283424.160000
    557    579     1   0.10304 312293.760000
    558    559     1   0.10910 283424.160000
    558    560     1   0.10910 283424.160000
    561    562     1   0.10969 276646.080000
    561    563     1   0.10969 276646.080000
    566    567     1   0.09730 310787.520000
    568    569     1   0.10910 283424.160000
    568    570     1   0.10910 283424.160000
    571    572     1   0.10969 276646.080000
    571    573     1   0.10969 276646.080000
    576    577     1   0.09730 310787.520000
    580    581     1   0.10969 276646.080000
    580    582     1   0.10969 276646.080000
    583    584     1   0.10969 276646.080000
    583    585     1   0.10969 276646.080000
    586    587     1   0.10910 283424.160000
    586    588     1   0.10910 283424.160000
    589    611     1   0.10304 312293.760000
    590    591     1   0.10910 283424.160000
    590    592     1   0.10910 283424.160000
    593    594     1   0.10969 276646.080000
    593    595     1   0.10969 276646.080000
    598    599     1   0.09730 310787.520000
    600    601     1   0.10910 283424.160000
    600    602     1   0.10910 283424.160000
    603    604     1   0.10969 276646.080000
    603    605     1   0.10969 276646.080000
    608    609     1   0.09730 310787.520000
    612    613     1   0.10969 276646.080000
    612    614     1   0.10969 276646.080000
    615    616     1   0.10969 276646.080000
    615    617     1   0.10969 276646.080000
    618    619     1   0.10910 283424.160000
    618    620     1   0.10910 283424.160000
    621    643     1   0.10304 312293.760000
    622    623     1   0.10910 283424.160000
    622    624     1   0.10910 283424.160000
    625    626     1   0.10969 276646.080000
    625    627     1   0.10969 276646.080000
    630    631     1   0.09730 310787.520000
    632    633     1   0.10910 283424.160000
    632    634     1   0.10910 283424.160000
    635    636     1   0.10969 276646.080000
    635    637     1   0.10969 276646.080000
    640    641     1   0.09730 310787.520000
    644    645     1   0.10969 276646.080000
    644    646     1   0.10969 276646.080000
    647    648     1   0.10969 276646.080000
    647    649     1   0.10969 276646.080000
    650    651     1   0.10910 283424.160000
    650    652     1   0.10910 283424.160000
    653    675     1   0.10304 312293.760000
    654    655     1   0.10910 283424.160000
    654    656     1   0.10910 283424.160000
    657    658     1   0.10969 276646.080000
    657    659     1   0.10969 276646.080000
    662    663     1   0.09730 310787.520000
    664    665     1   0.10910 283424.160000
    664    666     1   0.10910 283424.160000
    667    668     1   0.10969 276646.080000
    667    669     1   0.10969 276646.080000
    672    673     1   0.09730 310787.520000
    676    677     1   0.10969 276646.080000
    676    678     1   0.10969 276646.080000
    679    680     1   0.10969 276646.080000
    679    681     1   0.10969 276646.080000
    682    683     1   0.10910 283424.160000
    682    684     1   0.10910 283424.160000
    685    707     1   0.10304 312293.760000
    686    687     1   0.10910 283424.160000
    686    688     1   0.10910 283424.160000
    689    690     1   0.10969 276646.080000
    689    691     1   0.10969 276646.080000
    694    695     1   0.09730 310787.520000
    696    697     1   0.10910 283424.160000
    696    698     1   0.10910 283424.160000
    699    700     1   0.10969 276646.080000
    699    701     1   0.10969 276646.080000
    704    705     1   0.09730 310787.520000
    708    709     1   0.10969 276646.080000
    708    710     1   0.10969 276646.080000
    711    712     1   0.10969 276646.080000
    711    713     1   0.10969 276646.080000
    714    715     1   0.10910 283424.160000
    714    716     1   0.10910 283424.160000
    717    739     1   0.10304 312293.760000
    718    719     1   0.10910 283424.160000
    718    720     1   0.10910 283424.160000
    721    722     1   0.10969 276646.080000
    721    723     1   0.10969 276646.080000
    726    727     1   0.09730 310787.520000
    728    729     1   0.10910 283424.160000
    728    730     1   0.10910 283424.160000
    731    732     1   0.10969 276646.080000
    731    733     1   0.10969 276646.080000
    736    737     1   0.09730 310787.520000
    740    741     1   0.10969 276646.080000
    740    742     1   0.10969 276646.080000
    743    744     1   0.10969 276646.080000
    743    745     1   0.10969 276646.080000
    746    747     1   0.10910 283424.160000
    746    748     1   0.10910 283424.160000
    749    771     1   0.10304 312293.760000
    750    751     1   0.10910 283424.160000
    750    752     1   0.10910 283424.160000
    753    754     1   0.10969 276646.080000
    753    755     1   0.10969 276646.080000
    758    759     1   0.09730 310787.520000
    760    761     1   0.10910 283424.160000
    760    762     1   0.10910 283424.160000
    763    764     1   0.10969 276646.080000
    763    765     1   0.10969 276646.080000
    768    769     1   0.09730 310787.520000
    772    773     1   0.10969 276646.080000
    772    774     1   0.10969 276646.080000
    775    776     1   0.10969 276646.080000
    775    777     1   0.10969 276646.080000
    778    779     1   0.10910 283424.160000
    778    780     1   0.10910 283424.160000
    781    803     1   0.10304 312293.760000
    782    783     1   0.10910 283424.160000
    782    784     1   0.10910 283424.160000
    785    786     1   0.10969 276646.080000
    785    787     1   0.10969 276646.080000
    790    791     1   0.09730 310787.520000
    792    793     1   0.10910 283424.160000
    792    794     1   0.10910 283424.160000
    795    796     1   0.10969 276646.080000
    795    797     1   0.10969 276646.080000
    800    801     1   0.09730 310787.520000
    804    805     1   0.10969 276646.080000
    804    806     1   0.10969 276646.080000
    807    808     1   0.10969 276646.080000
    807    809     1   0.10969 276646.080000
    810    811     1   0.10910 283424.160000
    810    812     1   0.10910 283424.160000
    813    835     1   0.10304 312293.760000
    814    815     1   0.10910 283424.160000
    814    816     1   0.10910 283424.160000
    817    818     1   0.10969 276646.080000
    817    819     1   0.10969 276646.080000
    822    823     1   0.09730 310787.520000
    824    825     1   0.10910 283424.160000
    824    826     1   0.10910 283424.160000
    827    828     1   0.10969 276646.080000
    827    829     1   0.10969 276646.080000
    832    833     1   0.09730 310787.520000
    836    837     1   0.10969 276646.080000
    836    838     1   0.10969 276646.080000
    839    840     1   0.10969 276646.080000
    839    841     1   0.10969 276646.080000
    842    843     1   0.10910 283424.160000
    842    844     1   0.10910 283424.160000
    845    867     1   0.10304 312293.760000
    846    847     1   0.10910 283424.160000
    846    848     1   0.10910 283424.160000
    849    850     1   0.10969 276646.080000
    849    851     1   0.10969 276646.080000
    854    855     1   0.09730 310787.520000
    856    857     1   0.10910 283424.160000
    856    858     1   0.10910 283424.160000
    859    860     1   0.10969 276646.080000
    859    861     1   0.10969 276646.080000
    864    865     1   0.09730 310787.520000
    868    869     1   0.10969 276646.080000
    868    870     1   0.10969 276646.080000
    871    872     1   0.10969 276646.080000
    871    873     1   0.10969 276646.080000
    874    875     1   0.10910 283424.160000
    874    876     1   0.10910 283424.160000
    877    899     1   0.10304 312293.760000
    878    879     1   0.10910 283424.160000
    878    880     1   0.10910 283424.160000
    881    882     1   0.10969 276646.080000
    881    883     1   0.10969 276646.080000
    886    887     1   0.09730 310787.520000
    888    889     1   0.10910 283424.160000
    888    890     1   0.10910 283424.160000
    891    892     1   0.10969 276646.080000
    891    893     1   0.10969 276646.080000
    896    897     1   0.09730 310787.520000
    900    901     1   0.10969 276646.080000
    900    902     1   0.10969 276646.080000
    903    904     1   0.10969 276646.080000
    903    905     1   0.10969 276646.080000
    906    907     1   0.10910 283424.160000
    906    908     1   0.10910 283424.160000
    909    931     1   0.10304 312293.760000
    910    911     1   0.10910 283424.160000
    910    912     1   0.10910 283424.160000
    913    914     1   0.10969 276646.080000
    913    915     1   0.10969 276646.080000
    918    919     1   0.09730 310787.520000
    920    921     1   0.10910 283424.160000
    920    922     1   0.10910 283424.160000
    923    924     1   0.10969 276646.080000
    923    925     1   0.10969 276646.080000
    928    929     1   0.09730 310787.520000

[ pairs ]
;    ai     aj funct         c0         c1         c2         c3
      1     14     1
      1     17     1
      2     11     1
      2     20     1
      5      8     1
      5     21     1
      8     28     1
      8     31     1
     11     22     1
     11     25     1
     14     40     1
     14     43     1
     17     34     1
     17     37     1
     20     49     1
     20     46     1
     21     55     1
     21     52     1
     22     37     1
     22    178     1
     25     34     1
     25    148     1
     28     43     1
     28    118     1
     31     40     1
     31     88     1
     34    169     1
     37    139     1
     40    109     1
     43     79     1
     46     70     1
     49    100     1
     52    130     1
     55    160     1
     60     85     1
     60     82     1
     60     79     1
     61     76     1
     61     70     1
     61    238     1
     64     73     1
     64     70     1
     64    208     1
     67     73     1
     67     76     1
     67     88     1
     73    229     1
     76    199     1
     82    190     1
     85    220     1
     90    115     1
     90    112     1
     90    109     1
     91    106     1
     91    100     1
     91    298     1
     94    103     1
     94    100     1
     94    268     1
     97    103     1
     97    106     1
     97    118     1
    103    289     1
    106    259     1
    112    250     1
    115    280     1
    120    145     1
    120    142     1
    120    139     1
    121    136     1
    121    130     1
    121    358     1
    124    133     1
    124    130     1
    124    328     1
    127    133     1
    127    136     1
    127    148     1
    133    349     1
    136    319     1
    142    310     1
    145    340     1
    150    175     1
    150    172     1
    150    169     1
    151    166     1
    151    160     1
    151    418     1
    154    163     1
    154    160     1
    154    388     1
    157    163     1
    157    166     1
    157    178     1
    163    409     1
    166    379     1
    172    370     1
    175    400     1
    180    205     1
    180    202     1
    180    199     1
    181    196     1
    181    190     1
    181    482     1
    184    193     1
    184    190     1
    184    450     1
    187    193     1
    187    196     1
    187    208     1
    193    452     1
    196    420     1
    202    423     1
    205    455     1
    210    235     1
    210    232     1
    210    229     1
    211    226     1
    211    220     1
    211    546     1
    214    223     1
    214    220     1
    214    514     1
    217    223     1
    217    226     1
    217    238     1
    223    516     1
    226    484     1
    232    487     1
    235    519     1
    240    265     1
    240    262     1
    240    259     1
    241    256     1
    241    250     1
    241    610     1
    244    253     1
    244    250     1
    244    578     1
    247    253     1
    247    256     1
    247    268     1
    253    580     1
    256    548     1
    262    551     1
    265    583     1
    270    295     1
    270    292     1
    270    289     1
    271    286     1
    271    280     1
    271    674     1
    274    283     1
    274    280     1
    274    642     1
    277    283     1
    277    286     1
    277    298     1
    283    644     1
    286    612     1
    292    615     1
    295    647     1
    300    325     1
    300    322     1
    300    319     1
    301    316     1
    301    310     1
    301    738     1
    304    313     1
    304    310     1
    304    706     1
    307    313     1
    307    316     1
    307    328     1
    313    708     1
    316    676     1
    322    679     1
    325    711     1
    330    355     1
    330    352     1
    330    349     1
    331    346     1
    331    340     1
    331    802     1
    334    343     1
    334    340     1
    334    770     1
    337    343     1
    337    346     1
    337    358     1
    343    772     1
    346    740     1
    352    743     1
    355    775     1
    360    385     1
    360    382     1
    360    379     1
    361    376     1
    361    370     1
    361    866     1
    364    373     1
    364    370     1
    364    834     1
    367    373     1
    367    376     1
    367    388     1
    373    836     1
    376    804     1
    382    807     1
    385    839     1
    390    415     1
    390    412     1
    390    409     1
    391    406     1
    391    400     1
    391    930     1
    394    403     1
    394    400     1
    394    898     1
    397    403     1
    397    406     1
    397    418     1
    403    900     1
    406    868     1
    412    871     1
    415    903     1
    420    429     1
    423    430     1
    423    440     1
    426    450     1
    426    433     1
    426    443     1
    429    436     1
    429    446     1
    430    443     1
    430    437     1
    430    438     1
    433    440     1
    440    447     1
    440    448     1
    452    461     1
    455    462     1
    455    472     1
    458    465     1
    458    475     1
    458    482     1
    461    468     1
    461    478     1
    462    469     1
    462    470     1
    462    475     1
    465    472     1
    472    479     1
    472    480     1
    484    493     1
    487    494     1
    487    504     1
    490    514     1
    490    497     1
    490    507     1
    493    500     1
    493    510     1
    494    507     1
    494    501     1
    494    502     1
    497    504     1
    504    511     1
    504    512     1
    516    525     1
    519    526     1
    519    536     1
    522    529     1
    522    539     1
    522    546     1
    525    532     1
    525    542     1
    526    533     1
    526    534     1
    526    539     1
    529    536     1
    536    543     1
    536    544     1
    548    557     1
    551    558     1
    551    568     1
    554    578     1
    554    561     1
    554    571     1
    557    564     1
    557    574     1
    558    571     1
    558    565     1
    558    566     1
    561    568     1
    568    575     1
    568    576     1
    580    589     1
    583    590     1
    583    600     1
    586    593     1
    586    603     1
    586    610     1
    589    596     1
    589    606     1
    590    597     1
    590    598     1
    590    603     1
    593    600     1
    600    607     1
    600    608     1
    612    621     1
    615    622     1
    615    632     1
    618    642     1
    618    625     1
    618    635     1
    621    628     1
    621    638     1
    622    635     1
    622    629     1
    622    630     1
    625    632     1
    632    639     1
    632    640     1
    644    653     1
    647    654     1
    647    664     1
    650    657     1
    650    667     1
    650    674     1
    653    660     1
    653    670     1
    654    661     1
    654    662     1
    654    667     1
    657    664     1
    664    671     1
    664    672     1
    676    685     1
    679    686     1
    679    696     1
    682    706     1
    682    689     1
    682    699     1
    685    692     1
    685    702     1
    686    699     1
    686    693     1
    686    694     1
    689    696     1
    696    703     1
    696    704     1
    708    717     1
    711    718     1
    711    728     1
    714    721     1
    714    731     1
    714    738     1
    717    724     1
    717    734     1
    718    725     1
    718    726     1
    718    731     1
    721    728     1
    728    735     1
    728    736     1
    740    749     1
    743    750     1
    743    760     1
    746    770     1
    746    753     1
    746    763     1
    749    756     1
    749    766     1
    750    763     1
    750    757     1
    750    758     1
    753    760     1
    760    767     1
    760    768     1
    772    781     1
    775    782     1
    775    792     1
    778    785     1
    778    795     1
    778    802     1
    781    788     1
    781    798     1
    782    789     1
    782    790     1
    782    795     1
    785    792     1
    792    799     1
    792    800     1
    804    813     1
    807    814     1
    807    824     1
    810    834     1
    810    817     1
    810    827     1
    813    820     1
    813    830     1
    814    827     1
    814    821     1
    814    822     1
    817    824     1
    824    831     1
    824    832     1
    836    845     1
    839    846     1
    839    856     1
    842    849     1
    842    859     1
    842    866     1
    845    852     1
    845    862     1
    846    853     1
    846    854     1
    846    859     1
    849    856     1
    856    863     1
    856    864     1
    868    877     1
    871    878     1
    871    888     1
    874    898     1
    874    881     1
    874    891     1
    877    884     1
    877    894     1
    878    891     1
    878    885     1
    878    886     1
    881    888     1
    888    895     1
    888    896     1
    900    909     1
    903    910     1
    903    920     1
    906    913     1
    906    923     1
    906    930     1
    909    916     1
    909    926     1
    910    917     1
    910    918     1
    910    923     1
    913    920     1
    920    927     1
    920    928     1
      1      9     1
      1     10     1
      1     12     1
      1     13     1
      2      6     1
      2      7     1
      2     15     1
      2     16     1
      5      3     1
      3     14     1
      3      9     1
      3     10     1
      5      4     1
      4     14     1
      4      9     1
      4     10     1
      5     18     1
      5     19     1
      6     17     1
      6     12     1
      6     13     1
      7     17     1
      7     12     1
      7     13     1
      8     58     1
      9     20     1
      9     15     1
      9     16     1
     10     20     1
     10     15     1
     10     16     1
     11     59     1
     12     21     1
     12     18     1
     12     19     1
     13     21     1
     13     18     1
     13     19     1
     14     29     1
     14     30     1
     14     32     1
     14     33     1
     15     28     1
     15     31     1
     15     58     1
     16     28     1
     16     31     1
     16     58     1
     17     23     1
     17     24     1
     17     26     1
     17     27     1
     18     22     1
     18     25     1
     18     59     1
     19     22     1
     19     25     1
     19     59     1
     20     41     1
     20     42     1
     20     44     1
     20     45     1
     21     35     1
     21     36     1
     21     38     1
     21     39     1
     22     26     1
     22     27     1
     22     56     1
     22     57     1
     23     25     1
     23     59     1
     23     55     1
     23     35     1
     23     36     1
     24     25     1
     24     59     1
     24     55     1
     24     35     1
     24     36     1
     25     53     1
     25     54     1
     26     59     1
     26     52     1
     26     38     1
     26     39     1
     27     59     1
     27     52     1
     27     38     1
     27     39     1
     28     32     1
     28     33     1
     28     50     1
     28     51     1
     29     31     1
     29     58     1
     29     49     1
     29     41     1
     29     42     1
     30     31     1
     30     58     1
     30     49     1
     30     41     1
     30     42     1
     31     47     1
     31     48     1
     32     58     1
     32     46     1
     32     44     1
     32     45     1
     33     58     1
     33     46     1
     33     44     1
     33     45     1
     34     59     1
     35    178     1
     35     56     1
     35     57     1
     36    178     1
     36     56     1
     36     57     1
     37     59     1
     38    148     1
     38     53     1
     38     54     1
     39    148     1
     39     53     1
     39     54     1
     40     58     1
     41    118     1
     41     50     1
     41     51     1
     42    118     1
     42     50     1
     42     51     1
     43     58     1
     44     88     1
     44     47     1
     44     48     1
     45     88     1
     45     47     1
     45     48     1
     46     80     1
     46     81     1
     47     79     1
     48     79     1
     49    110     1
     49    111     1
     50    109     1
     51    109     1
     52    140     1
     52    141     1
     53    139     1
     54    139     1
     55    170     1
     55    171     1
     56    169     1
     57    169     1
     60     74     1
     60     75     1
     60     77     1
     60     78     1
     60     71     1
     60     72     1
     61     65     1
     61     66     1
     61     68     1
     61     69     1
     61     86     1
     61     87     1
     62     64     1
     62     67     1
     62     89     1
     62     85     1
     62     74     1
     62     75     1
     63     64     1
     63     67     1
     63     89     1
     63     85     1
     63     74     1
     63     75     1
     64     68     1
     64     69     1
     64     83     1
     64     84     1
     65     67     1
     65     89     1
     65     82     1
     65     77     1
     65     78     1
     66     67     1
     66     89     1
     66     82     1
     66     77     1
     66     78     1
     67     80     1
     67     81     1
     68     89     1
     68     79     1
     68     71     1
     68     72     1
     69     89     1
     69     79     1
     69     71     1
     69     72     1
     70     89     1
     71     88     1
     71     80     1
     71     81     1
     72     88     1
     72     80     1
     72     81     1
     73     89     1
     74    238     1
     74     86     1
     74     87     1
     75    238     1
     75     86     1
     75     87     1
     76     89     1
     77    208     1
     77     83     1
     77     84     1
     78    208     1
     78     83     1
     78     84     1
     82    200     1
     82    201     1
     83    199     1
     84    199     1
     85    230     1
     85    231     1
     86    229     1
     87    229     1
     90    104     1
     90    105     1
     90    107     1
     90    108     1
     90    101     1
     90    102     1
     91     95     1
     91     96     1
     91     98     1
     91     99     1
     91    116     1
     91    117     1
     92     94     1
     92     97     1
     92    119     1
     92    115     1
     92    104     1
     92    105     1
     93     94     1
     93     97     1
     93    119     1
     93    115     1
     93    104     1
     93    105     1
     94     98     1
     94     99     1
     94    113     1
     94    114     1
     95     97     1
     95    119     1
     95    112     1
     95    107     1
     95    108     1
     96     97     1
     96    119     1
     96    112     1
     96    107     1
     96    108     1
     97    110     1
     97    111     1
     98    119     1
     98    109     1
     98    101     1
     98    102     1
     99    119     1
     99    109     1
     99    101     1
     99    102     1
    100    119     1
    101    118     1
    101    110     1
    101    111     1
    102    118     1
    102    110     1
    102    111     1
    103    119     1
    104    298     1
    104    116     1
    104    117     1
    105    298     1
    105    116     1
    105    117     1
    106    119     1
    107    268     1
    107    113     1
    107    114     1
    108    268     1
    108    113     1
    108    114     1
    112    260     1
    112    261     1
    113    259     1
    114    259     1
    115    290     1
    115    291     1
    116    289     1
    117    289     1
    120    134     1
    120    135     1
    120    137     1
    120    138     1
    120    131     1
    120    132     1
    121    125     1
    121    126     1
    121    128     1
    121    129     1
    121    146     1
    121    147     1
    122    124     1
    122    127     1
    122    149     1
    122    145     1
    122    134     1
    122    135     1
    123    124     1
    123    127     1
    123    149     1
    123    145     1
    123    134     1
    123    135     1
    124    128     1
    124    129     1
    124    143     1
    124    144     1
    125    127     1
    125    149     1
    125    142     1
    125    137     1
    125    138     1
    126    127     1
    126    149     1
    126    142     1
    126    137     1
    126    138     1
    127    140     1
    127    141     1
    128    149     1
    128    139     1
    128    131     1
    128    132     1
    129    149     1
    129    139     1
    129    131     1
    129    132     1
    130    149     1
    131    148     1
    131    140     1
    131    141     1
    132    148     1
    132    140     1
    132    141     1
    133    149     1
    134    358     1
    134    146     1
    134    147     1
    135    358     1
    135    146     1
    135    147     1
    136    149     1
    137    328     1
    137    143     1
    137    144     1
    138    328     1
    138    143     1
    138    144     1
    142    320     1
    142    321     1
    143    319     1
    144    319     1
    145    350     1
    145    351     1
    146    349     1
    147    349     1
    150    164     1
    150    165     1
    150    167     1
    150    168     1
    150    161     1
    150    162     1
    151    155     1
    151    156     1
    151    158     1
    151    159     1
    151    176     1
    151    177     1
    152    154     1
    152    157     1
    152    179     1
    152    175     1
    152    164     1
    152    165     1
    153    154     1
    153    157     1
    153    179     1
    153    175     1
    153    164     1
    153    165     1
    154    158     1
    154    159     1
    154    173     1
    154    174     1
    155    157     1
    155    179     1
    155    172     1
    155    167     1
    155    168     1
    156    157     1
    156    179     1
    156    172     1
    156    167     1
    156    168     1
    157    170     1
    157    171     1
    158    179     1
    158    169     1
    158    161     1
    158    162     1
    159    179     1
    159    169     1
    159    161     1
    159    162     1
    160    179     1
    161    178     1
    161    170     1
    161    171     1
    162    178     1
    162    170     1
    162    171     1
    163    179     1
    164    418     1
    164    176     1
    164    177     1
    165    418     1
    165    176     1
    165    177     1
    166    179     1
    167    388     1
    167    173     1
    167    174     1
    168    388     1
    168    173     1
    168    174     1
    172    380     1
    172    381     1
    173    379     1
    174    379     1
    175    410     1
    175    411     1
    176    409     1
    177    409     1
    180    194     1
    180    195     1
    180    197     1
    180    198     1
    180    191     1
    180    192     1
    181    185     1
    181    186     1
    181    188     1
    181    189     1
    181    206     1
    181    207     1
    182    184     1
    182    187     1
    182    209     1
    182    205     1
    182    194     1
    182    195     1
    183    184     1
    183    187     1
    183    209     1
    183    205     1
    183    194     1
    183    195     1
    184    188     1
    184    189     1
    184    203     1
    184    204     1
    185    187     1
    185    209     1
    185    202     1
    185    197     1
    185    198     1
    186    187     1
    186    209     1
    186    202     1
    186    197     1
    186    198     1
    187    200     1
    187    201     1
    188    209     1
    188    199     1
    188    191     1
    188    192     1
    189    209     1
    189    199     1
    189    191     1
    189    192     1
    190    209     1
    191    208     1
    191    200     1
    191    201     1
    192    208     1
    192    200     1
    192    201     1
    193    209     1
    194    482     1
    194    206     1
    194    207     1
    195    482     1
    195    206     1
    195    207     1
    196    209     1
    197    450     1
    197    203     1
    197    204     1
    198    450     1
    198    203     1
    198    204     1
    202    421     1
    202    422     1
    203    420     1
    204    420     1
    205    453     1
    205    454     1
    206    452     1
    207    452     1
    210    224     1
    210    225     1
    210    227     1
    210    228     1
    210    221     1
    210    222     1
    211    215     1
    211    216     1
    211    218     1
    211    219     1
    211    236     1
    211    237     1
    212    214     1
    212    217     1
    212    239     1
    212    235     1
    212    224     1
    212    225     1
    213    214     1
    213    217     1
    213    239     1
    213    235     1
    213    224     1
    213    225     1
    214    218     1
    214    219     1
    214    233     1
    214    234     1
    215    217     1
    215    239     1
    215    232     1
    215    227     1
    215    228     1
    216    217     1
    216    239     1
    216    232     1
    216    227     1
    216    228     1
    217    230     1
    217    231     1
    218    239     1
    218    229     1
    218    221     1
    218    222     1
    219    239     1
    219    229     1
    219    221     1
    219    222     1
    220    239     1
    221    238     1
    221    230     1
    221    231     1
    222    238     1
    222    230     1
    222    231     1
    223    239     1
    224    546     1
    224    236     1
    224    237     1
    225    546     1
    225    236     1
    225    237     1
    226    239     1
    227    514     1
    227    233     1
    227    234     1
    228    514     1
    228    233     1
    228    234     1
    232    485     1
    232    486     1
    233    484     1
    234    484     1
    235    517     1
    235    518     1
    236    516     1
    237    516     1
    240    254     1
    240    255     1
    240    257     1
    240    258     1
    240    251     1
    240    252     1
    241    245     1
    241    246     1
    241    248     1
    241    249     1
    241    266     1
    241    267     1
    242    244     1
    242    247     1
    242    269     1
    242    265     1
    242    254     1
    242    255     1
    243    244     1
    243    247     1
    243    269     1
    243    265     1
    243    254     1
    243    255     1
    244    248     1
    244    249     1
    244    263     1
    244    264     1
    245    247     1
    245    269     1
    245    262     1
    245    257     1
    245    258     1
    246    247     1
    246    269     1
    246    262     1
    246    257     1
    246    258     1
    247    260     1
    247    261     1
    248    269     1
    248    259     1
    248    251     1
    248    252     1
    249    269     1
    249    259     1
    249    251     1
    249    252     1
    250    269     1
    251    268     1
    251    260     1
    251    261     1
    252    268     1
    252    260     1
    252    261     1
    253    269     1
    254    610     1
    254    266     1
    254    267     1
    255    610     1
    255    266     1
    255    267     1
    256    269     1
    257    578     1
    257    263     1
    257    264     1
    258    578     1
    258    263     1
    258    264     1
    262    549     1
    262    550     1
    263    548     1
    264    548     1
    265    581     1
    265    582     1
    266    580     1
    267    580     1
    270    284     1
    270    285     1
    270    287     1
    270    288     1
    270    281     1
    270    282     1
    271    275     1
    271    276     1
    271    278     1
    271    279     1
    271    296     1
    271    297     1
    272    274     1
    272    277     1
    272    299     1
    272    295     1
    272    284     1
    272    285     1
    273    274     1
    273    277     1
    273    299     1
    273    295     1
    273    284     1
    273    285     1
    274    278     1
    274    279     1
    274    293     1
    274    294     1
    275    277     1
    275    299     1
    275    292     1
    275    287     1
    275    288     1
    276    277     1
    276    299     1
    276    292     1
    276    287     1
    276    288     1
    277    290     1
    277    291     1
    278    299     1
    278    289     1
    278    281     1
    278    282     1
    279    299     1
    279    289     1
    279    281     1
    279    282     1
    280    299     1
    281    298     1
    281    290     1
    281    291     1
    282    298     1
    282    290     1
    282    291     1
    283    299     1
    284    674     1
    284    296     1
    284    297     1
    285    674     1
    285    296     1
    285    297     1
    286    299     1
    287    642     1
    287    293     1
    287    294     1
    288    642     1
    288    293     1
    288    294     1
    292    613     1
    292    614     1
    293    612     1
    294    612     1
    295    645     1
    295    646     1
    296    644     1
    297    644     1
    300    314     1
    300    315     1
    300    317     1
    300    318     1
    300    311     1
    300    312     1
    301    305     1
    301    306     1
    301    308     1
    301    309     1
    301    326     1
    301    327     1
    302    304     1
    302    307     1
    302    329     1
    302    325     1
    302    314     1
    302    315     1
    303    304     1
    303    307     1
    303    329     1
    303    325     1
    303    314     1
    303    315     1
    304    308     1
    304    309     1
    304    323     1
    304    324     1
    305    307     1
    305    329     1
    305    322     1
    305    317     1
    305    318     1
    306    307     1
    306    329     1
    306    322     1
    306    317     1
    306    318     1
    307    320     1
    307    321     1
    308    329     1
    308    319     1
    308    311     1
    308    312     1
    309    329     1
    309    319     1
    309    311     1
    309    312     1
    310    329     1
    311    328     1
    311    320     1
    311    321     1
    312    328     1
    312    320     1
    312    321     1
    313    329     1
    314    738     1
    314    326     1
    314    327     1
    315    738     1
    315    326     1
    315    327     1
    316    329     1
    317    706     1
    317    323     1
    317    324     1
    318    706     1
    318    323     1
    318    324     1
    322    677     1
    322    678     1
    323    676     1
    324    676     1
    325    709     1
    325    710     1
    326    708     1
    327    708     1
    330    344     1
    330    345     1
    330    347     1
    330    348     1
    330    341     1
    330    342     1
    331    335     1
    331    336     1
    331    338     1
    331    339     1
    331    356     1
    331    357     1
    332    334     1
    332    337     1
    332    359     1
    332    355     1
    332    344     1
    332    345     1
    333    334     1
    333    337     1
    333    359     1
    333    355     1
    333    344     1
    333    345     1
    334    338     1
    334    339     1
    334    353     1
    334    354     1
    335    337     1
    335    359     1
    335    352     1
    335    347     1
    335    348     1
    336    337     1
    336    359     1
    336    352     1
    336    347     1
    336    348     1
    337    350     1
    337    351     1
    338    359     1
    338    349     1
    338    341     1
    338    342     1
    339    359     1
    339    349     1
    339    341     1
    339    342     1
    340    359     1
    341    358     1
    341    350     1
    341    351     1
    342    358     1
    342    350     1
    342    351     1
    343    359     1
    344    802     1
    344    356     1
    344    357     1
    345    802     1
    345    356     1
    345    357     1
    346    359     1
    347    770     1
    347    353     1
    347    354     1
    348    770     1
    348    353     1
    348    354     1
    352    741     1
    352    742     1
    353    740     1
    354    740     1
    355    773     1
    355    774     1
    356    772     1
    357    772     1
    360    374     1
    360    375     1
    360    377     1
    360    378     1
    360    371     1
    360    372     1
    361    365     1
    361    366     1
    361    368     1
    361    369     1
    361    386     1
    361    387     1
    362    364     1
    362    367     1
    362    389     1
    362    385     1
    362    374     1
    362    375     1
    363    364     1
    363    367     1
    363    389     1
    363    385     1
    363    374     1
    363    375     1
    364    368     1
    364    369     1
    364    383     1
    364    384     1
    365    367     1
    365    389     1
    365    382     1
    365    377     1
    365    378     1
    366    367     1
    366    389     1
    366    382     1
    366    377     1
    366    378     1
    367    380     1
    367    381     1
    368    389     1
    368    379     1
    368    371     1
    368    372     1
    369    389     1
    369    379     1
    369    371     1
    369    372     1
    370    389     1
    371    388     1
    371    380     1
    371    381     1
    372    388     1
    372    380     1
    372    381     1
    373    389     1
    374    866     1
    374    386     1
    374    387     1
    375    866     1
    375    386     1
    375    387     1
    376    389     1
    377    834     1
    377    383     1
    377    384     1
    378    834     1
    378    383     1
    378    384     1
    382    805     1
    382    806     1
    383    804     1
    384    804     1
    385    837     1
    385    838     1
    386    836     1
    387    836     1
    390    404     1
    390    405     1
    390    407     1
    390    408     1
    390    401     1
    390    402     1
    391    395     1
    391    396     1
    391    398     1
    391    399     1
    391    416     1
    391    417     1
    392    394     1
    392    397     1
    392    419     1
    392    415     1
    392    404     1
    392    405     1
    393    394     1
    393    397     1
    393    419     1
    393    415     1
    393    404     1
    393    405     1
    394    398     1
    394    399     1
    394    413     1
    394    414     1
    395    397     1
    395    419     1
    395    412     1
    395    407     1
    395    408     1
    396    397     1
    396    419     1
    396    412     1
    396    407     1
    396    408     1
    397    410     1
    397    411     1
    398    419     1
    398    409     1
    398    401     1
    398    402     1
    399    419     1
    399    409     1
    399    401     1
    399    402     1
    400    419     1
    401    418     1
    401    410     1
    401    411     1
    402    418     1
    402    410     1
    402    411     1
    403    419     1
    404    930     1
    404    416     1
    404    417     1
    405    930     1
    405    416     1
    405    417     1
    406    419     1
    407    898     1
    407    413     1
    407    414     1
    408    898     1
    408    413     1
    408    414     1
    412    869     1
    412    870     1
    413    868     1
    414    868     1
    415    901     1
    415    902     1
    416    900     1
    417    900     1
    420    427     1
    420    428     1
    421    426     1
    421    424     1
    421    425     1
    422    426     1
    422    424     1
    422    425     1
    423    451     1
    424    450     1
    424    429     1
    424    427     1
    424    428     1
    425    450     1
    425    429     1
    425    427     1
    425    428     1
    426    431     1
    426    432     1
    426    441     1
    426    442     1
    427    430     1
    427    440     1
    427    451     1
    428    430     1
    428    440     1
    428    451     1
    429    434     1
    429    435     1
    429    444     1
    429    445     1
    430    441     1
    430    442     1
    431    440     1
    431    451     1
    431    436     1
    431    434     1
    431    435     1
    432    440     1
    432    451     1
    432    436     1
    432    434     1
    432    435     1
    433    451     1
    433    439     1
    434    437     1
    434    438     1
    435    437     1
    435    438     1
    437    439     1
    441    451     1
    441    446     1
    441    444     1
    441    445     1
    442    451     1
    442    446     1
    442    444     1
    442    445     1
    443    451     1
    443    449     1
    444    447     1
    444    448     1
    445    447     1
    445    448     1
    447    449     1
    452    459     1
    452    460     1
    453    458     1
    453    456     1
    453    457     1
    454    458     1
    454    456     1
    454    457     1
    455    483     1
    456    461     1
    456    459     1
    456    460     1
    456    482     1
    457    461     1
    457    459     1
    457    460     1
    457    482     1
    458    463     1
    458    464     1
    458    473     1
    458    474     1
    459    462     1
    459    472     1
    459    483     1
    460    462     1
    460    472     1
    460    483     1
    461    466     1
    461    467     1
    461    476     1
    461    477     1
    462    473     1
    462    474     1
    463    468     1
    463    466     1
    463    467     1
    463    472     1
    463    483     1
    464    468     1
    464    466     1
    464    467     1
    464    472     1
    464    483     1
    465    471     1
    465    483     1
    466    469     1
    466    470     1
    467    469     1
    467    470     1
    469    471     1
    473    478     1
    473    476     1
    473    477     1
    473    483     1
    474    478     1
    474    476     1
    474    477     1
    474    483     1
    475    481     1
    475    483     1
    476    479     1
    476    480     1
    477    479     1
    477    480     1
    479    481     1
    484    491     1
    484    492     1
    485    490     1
    485    488     1
    485    489     1
    486    490     1
    486    488     1
    486    489     1
    487    515     1
    488    514     1
    488    493     1
    488    491     1
    488    492     1
    489    514     1
    489    493     1
    489    491     1
    489    492     1
    490    495     1
    490    496     1
    490    505     1
    490    506     1
    491    494     1
    491    504     1
    491    515     1
    492    494     1
    492    504     1
    492    515     1
    493    498     1
    493    499     1
    493    508     1
    493    509     1
    494    505     1
    494    506     1
    495    504     1
    495    515     1
    495    500     1
    495    498     1
    495    499     1
    496    504     1
    496    515     1
    496    500     1
    496    498     1
    496    499     1
    497    515     1
    497    503     1
    498    501     1
    498    502     1
    499    501     1
    499    502     1
    501    503     1
    505    515     1
    505    510     1
    505    508     1
    505    509     1
    506    515     1
    506    510     1
    506    508     1
    506    509     1
    507    515     1
    507    513     1
    508    511     1
    508    512     1
    509    511     1
    509    512     1
    511    513     1
    516    523     1
    516    524     1
    517    522     1
    517    520     1
    517    521     1
    518    522     1
    518    520     1
    518    521     1
    519    547     1
    520    525     1
    520    523     1
    520    524     1
    520    546     1
    521    525     1
    521    523     1
    521    524     1
    521    546     1
    522    527     1
    522    528     1
    522    537     1
    522    538     1
    523    526     1
    523    536     1
    523    547     1
    524    526     1
    524    536     1
    524    547     1
    525    530     1
    525    531     1
    525    540     1
    525    541     1
    526    537     1
    526    538     1
    527    532     1
    527    530     1
    527    531     1
    527    536     1
    527    547     1
    528    532     1
    528    530     1
    528    531     1
    528    536     1
    528    547     1
    529    535     1
    529    547     1
    530    533     1
    530    534     1
    531    533     1
    531    534     1
    533    535     1
    537    542     1
    537    540     1
    537    541     1
    537    547     1
    538    542     1
    538    540     1
    538    541     1
    538    547     1
    539    545     1
    539    547     1
    540    543     1
    540    544     1
    541    543     1
    541    544     1
    543    545     1
    548    555     1
    548    556     1
    549    554     1
    549    552     1
    549    553     1
    550    554     1
    550    552     1
    550    553     1
    551    579     1
    552    578     1
    552    557     1
    552    555     1
    552    556     1
    553    578     1
    553    557     1
    553    555     1
    553    556     1
    554    559     1
    554    560     1
    554    569     1
    554    570     1
    555    558     1
    555    568     1
    555    579     1
    556    558     1
    556    568     1
    556    579     1
    557    562     1
    557    563     1
    557    572     1
    557    573     1
    558    569     1
    558    570     1
    559    568     1
    559    579     1
    559    564     1
    559    562     1
    559    563     1
    560    568     1
    560    579     1
    560    564     1
    560    562     1
    560    563     1
    561    579     1
    561    567     1
    562    565     1
    562    566     1
    563    565     1
    563    566     1
    565    567     1
    569    579     1
    569    574     1
    569    572     1
    569    573     1
    570    579     1
    570    574     1
    570    572     1
    570    573     1
    571    579     1
    571    577     1
    572    575     1
    572    576     1
    573    575     1
    573    576     1
    575    577     1
    580    587     1
    580    588     1
    581    586     1
    581    584     1
    581    585     1
    582    586     1
    582    584     1
    582    585     1
    583    611     1
    584    589     1
    584    587     1
    584    588     1
    584    610     1
    585    589     1
    585    587     1
    585    588     1
    585    610     1
    586    591     1
    586    592     1
    586    601     1
    586    602     1
    587    590     1
    587    600     1
    587    611     1
    588    590     1
    588    600     1
    588    611     1
    589    594     1
    589    595     1
    589    604     1
    589    605     1
    590    601     1
    590    602     1
    591    596     1
    591    594     1
    591    595     1
    591    600     1
    591    611     1
    592    596     1
    592    594     1
    592    595     1
    592    600     1
    592    611     1
    593    599     1
    593    611     1
    594    597     1
    594    598     1
    595    597     1
    595    598     1
    597    599     1
    601    606     1
    601    604     1
    601    605     1
    601    611     1
    602    606     1
    602    604     1
    602    605     1
    602    611     1
    603    609     1
    603    611     1
    604    607     1
    604    608     1
    605    607     1
    605    608     1
    607    609     1
    612    619     1
    612    620     1
    613    618     1
    613    616     1
    613    617     1
    614    618     1
    614    616     1
    614    617     1
    615    643     1
    616    642     1
    616    621     1
    616    619     1
    616    620     1
    617    642     1
    617    621     1
    617    619     1
    617    620     1
    618    623     1
    618    624     1
    618    633     1
    618    634     1
    619    622     1
    619    632     1
    619    643     1
    620    622     1
    620    632     1
    620    643     1
    621    626     1
    621    627     1
    621    636     1
    621    637     1
    622    633     1
    622    634     1
    623    632     1
    623    643     1
    623    628     1
    623    626     1
    623    627     1
    624    632     1
    624    643     1
    624    628     1
    624    626     1
    624    627     1
    625    643     1
    625    631     1
    626    629     1
    626    630     1
    627    629     1
    627    630     1
    629    631     1
    633    643     1
    633    638     1
    633    636     1
    633    637     1
    634    643     1
    634    638     1
    634    636     1
    634    637     1
    635    643     1
    635    641     1
    636    639     1
    636    640     1
    637    639     1
    637    640     1
    639    641     1
    644    651     1
    644    652     1
    645    650     1
    645    648     1
    645    649     1
    646    650     1
    646    648     1
    646    649     1
    647    675     1
    648    653     1
    648    651     1
    648    652     1
    648    674     1
    649    653     1
    649    651     1
    649    652     1
    649    674     1
    650    655     1
    650    656     1
    650    665     1
    650    666     1
    651    654     1
    651    664     1
    651    675     1
    652    654     1
    652    664     1
    652    675     1
    653    658     1
    653    659     1
    653    668     1
    653    669     1
    654    665     1
    654    666     1
    655    660     1
    655    658     1
    655    659     1
    655    664     1
    655    675     1
    656    660     1
    656    658     1
    656    659     1
    656    664     1
    656    675     1
    657    663     1
    657    675     1
    658    661     1
    658    662     1
    659    661     1
    659    662     1
    661    663     1
    665    670     1
    665    668     1
    665    669     1
    665    675     1
    666    670     1
    666    668     1
    666    669     1
    666    675     1
    667    673     1
    667    675     1
    668    671     1
    668    672     1
    669    671     1
    669    672     1
    671    673     1
    676    683     1
    676    684     1
    677    682     1
    677    680     1
    677    681     1
    678    682     1
    678    680     1
    678    681     1
    679    707     1
    680    706     1
    680    685     1
    680    683     1
    680    684     1
    681    706     1
    681    685     1
    681    683     1
    681    684     1
    682    687     1
    682    688     1
    682    697     1
    682    698     1
    683    686     1
    683    696     1
    683    707     1
    684    686     1
    684    696     1
    684    707     1
    685    690     1
    685    691     1
    685    700     1
    685    701     1
    686    697     1
    686    698     1
    687    696     1
    687    707     1
    687    692     1
    687    690     1
    687    691     1
    688    696     1
    688    707     1
    688    692     1
    688    690     1
    688    691     1
    689    707     1
    689    695     1
    690    693     1
    690    694     1
    691    693     1
    691    694     1
    693    695     1
    697    707     1
    697    702     1
    697    700     1
    697    701     1
    698    707     1
    698    702     1
    698    700     1
    698    701     1
    699    707     1
    699    705     1
    700    703     1
    700    704     1
    701    703     1
    701    704     1
    703    705     1
    708    715     1
    708    716     1
    709    714     1
    709    712     1
    709    713     1
    710    714     1
    710    712     1
    710    713     1
    711    739     1
    712    717     1
    712    715     1
    712    716     1
    712    738     1
    713    717     1
    713    715     1
    713    716     1
    713    738     1
    714    719     1
    714    720     1
    714    729     1
    714    730     1
    715    718     1
    715    728     1
    715    739     1
    716    718     1
    716    728     1
    716    739     1
    717    722     1
    717    723     1
    717    732     1
    717    733     1
    718    729     1
    718    730     1
    719    724     1
    719    722     1
    719    723     1
    719    728     1
    719    739     1
    720    724     1
    720    722     1
    720    723     1
    720    728     1
    720    739     1
    721    727     1
    721    739     1
    722    725     1
    722    726     1
    723    725     1
    723    726     1
    725    727     1
    729    734     1
    729    732     1
    729    733     1
    729    739     1
    730    734     1
    730    732     1
    730    733     1
    730    739     1
    731    737     1
    731    739     1
    732    735     1
    732    736     1
    733    735     1
    733    736     1
    735    737     1
    740    747     1
    740    748     1
    741    746     1
    741    744     1
    741    745     1
    742    746     1
    742    744     1
    742    745     1
    743    771     1
    744    770     1
    744    749     1
    744    747     1
    744    748     1
    745    770     1
    745    749     1
    745    747     1
    745    748     1
    746    751     1
    746    752     1
    746    761     1
    746    762     1
    747    750     1
    747    760     1
    747    771     1
    748    750     1
    748    760     1
    748    771     1
    749    754     1
    749    755     1
    749    764     1
    749    765     1
    750    761     1
    750    762     1
    751    760     1
    751    771     1
    751    756     1
    751    754     1
    751    755     1
    752    760     1
    752    771     1
    752    756     1
    752    754     1
    752    755     1
    753    771     1
    753    759     1
    754    757     1
    754    758     1
    755    757     1
    755    758     1
    757    759     1
    761    771     1
    761    766     1
    761    764     1
    761    765     1
    762    771     1
    762    766     1
    762    764     1
    762    765     1
    763    771     1
    763    769     1
    764    767     1
    764    768     1
    765    767     1
    765    768     1
    767    769     1
    772    779     1
    772    780     1
    773    778     1
    773    776     1
    773    777     1
    774    778     1
    774    776     1
    774    777     1
    775    803     1
    776    781     1
    776    779     1
    776    780     1
    776    802     1
    777    781     1
    777    779     1
    777    780     1
    777    802     1
    778    783     1
    778    784     1
    778    793     1
    778    794     1
    779    782     1
    779    792     1
    779    803     1
    780    782     1
    780    792     1
    780    803     1
    781    786     1
    781    787     1
    781    796     1
    781    797     1
    782    793     1
    782    794     1
    783    788     1
    783    786     1
    783    787     1
    783    792     1
    783    803     1
    784    788     1
    784    786     1
    784    787     1
    784    792     1
    784    803     1
    785    791     1
    785    803     1
    786    789     1
    786    790     1
    787    789     1
    787    790     1
    789    791     1
    793    798     1
    793    796     1
    793    797     1
    793    803     1
    794    798     1
    794    796     1
    794    797     1
    794    803     1
    795    801     1
    795    803     1
    796    799     1
    796    800     1
    797    799     1
    797    800     1
    799    801     1
    804    811     1
    804    812     1
    805    810     1
    805    808     1
    805    809     1
    806    810     1
    806    808     1
    806    809     1
    807    835     1
    808    834     1
    808    813     1
    808    811     1
    808    812     1
    809    834     1
    809    813     1
    809    811     1
    809    812     1
    810    815     1
    810    816     1
    810    825     1
    810    826     1
    811    814     1
    811    824     1
    811    835     1
    812    814     1
    812    824     1
    812    835     1
    813    818     1
    813    819     1
    813    828     1
    813    829     1
    814    825     1
    814    826     1
    815    824     1
    815    835     1
    815    820     1
    815    818     1
    815    819     1
    816    824     1
    816    835     1
    816    820     1
    816    818     1
    816    819     1
    817    835     1
    817    823     1
    818    821     1
    818    822     1
    819    821     1
    819    822     1
    821    823     1
    825    835     1
    825    830     1
    825    828     1
    825    829     1
    826    835     1
    826    830     1
    826    828     1
    826    829     1
    827    835     1
    827    833     1
    828    831     1
    828    832     1
    829    831     1
    829    832     1
    831    833     1
    836    843     1
    836    844     1
    837    842     1
    837    840     1
    837    841     1
    838    842     1
    838    840     1
    838    841     1
    839    867     1
    840    845     1
    840    843     1
    840    844     1
    840    866     1
    841    845     1
    841    843     1
    841    844     1
    841    866     1
    842    847     1
    842    848     1
    842    857     1
    842    858     1
    843    846     1
    843    856     1
    843    867     1
    844    846     1
    844    856     1
    844    867     1
    845    850     1
    845    851     1
    845    860     1
    845    861     1
    846    857     1
    846    858     1
    847    852     1
    847    850     1
    847    851     1
    847    856     1
    847    867     1
    848    852     1
    848    850     1
    848    851     1
    848    856     1
    848    867     1
    849    855     1
    849    867     1
    850    853     1
    850    854     1
    851    853     1
    851    854     1
    853    855     1
    857    862     1
    857    860     1
    857    861     1
    857    867     1
    858    862     1
    858    860     1
    858    861     1
    858    867     1
    859    865     1
    859    867     1
    860    863     1
    860    864     1
    861    863     1
    861    864     1
    863    865     1
    868    875     1
    868    876     1
    869    874     1
    869    872     1
    869    873     1
    870    874     1
    870    872     1
    870    873     1
    871    899     1
    872    898     1
    872    877     1
    872    875     1
    872    876     1
    873    898     1
    873    877     1
    873    875     1
    873    876     1
    874    879     1
    874    880     1
    874    889     1
    874    890     1
    875    878     1
    875    888     1
    875    899     1
    876    878     1
    876    888     1
    876    899     1
    877    882     1
    877    883     1
    877    892     1
    877    893     1
    878    889     1
    878    890     1
    879    888     1
    879    899     1
    879    884     1
    879    882     1
    879    883     1
    880    888     1
    880    899     1
    880    884     1
    880    882     1
    880    883     1
    881    899     1
    881    887     1
    882    885     1
    882    886     1
    883    885     1
    883    886     1
    885    887     1
    889    899     1
    889    894     1
    889    892     1
    889    893     1
    890    899     1
    890    894     1
    890    892     1
    890    893     1
    891    899     1
    891    897     1
    892    895     1
    892    896     1
    893    895     1
    893    896     1
    895    897     1
    900    907     1
    900    908     1
    901    906     1
    901    904     1
    901    905     1
    902    906     1
    902    904     1
    902    905     1
    903    931     1
    904    909     1
    904    907     1
    904    908     1
    904    930     1
    905    909     1
    905    907     1
    905    908     1
    905    930     1
    906    911     1
    906    912     1
    906    921     1
    906    922     1
    907    910     1
    907    920     1
    907    931     1
    908    910     1
    908    920     1
    908    931     1
    909    914     1
    909    915     1
    909    924     1
    909    925     1
    910    921     1
    910    922     1
    911    916     1
    911    914     1
    911    915     1
    911    920     1
    911    931     1
    912    916     1
    912    914     1
    912    915     1
    912    920     1
    912    931     1
    913    919     1
    913    931     1
    914    917     1
    914    918     1
    915    917     1
    915    918     1
    917    919     1
    921    926     1
    921    924     1
    921    925     1
    921    931     1
    922    926     1
    922    924     1
    922    925     1
    922    931     1
    923    929     1
    923    931     1
    924    927     1
    924    928     1
    925    927     1
    925    928     1
    927    929     1

[ angles ]
;    ai     aj     ak funct         c0         c1         c2         c3
      1      2      8     1   107.9700462 569.024000
      1      5     11     1   107.9700462 569.024000
      2      1      5     1   112.4800480 524.673600
      2      8     14     1   111.5100476 526.347200
      5     11     17     1   111.5100476 526.347200
      8     14     20     1   114.2100488 537.225600
     11     17     21     1   114.2100488 537.225600
     14     20     28     1   109.6600471 523.836800
     14     20     31     1   109.6600471 523.836800
     17     21     22     1   109.6600471 523.836800
     17     21     25     1   109.6600471 523.836800
     20     28     40     1   114.2100488 537.225600
     20     31     43     1   114.2100488 537.225600
     21     22     34     1   114.2100488 537.225600
     21     25     37     1   114.2100488 537.225600
     22     21     25     1   109.6600471 523.836800
     22     34     55     1   111.5100476 526.347200
     25     37     52     1   111.5100476 526.347200
     28     20     31     1   109.6600471 523.836800
     28     40     49     1   111.5100476 526.347200
     31     43     46     1   111.5100476 526.347200
     34     55    178     1   107.9700462 569.024000
     37     52    148     1   107.9700462 569.024000
     40     49    118     1   107.9700462 569.024000
     43     46     88     1   107.9700462 569.024000
     46     88     79     1   112.4800480 524.673600
     49    118    109     1   112.4800480 524.673600
     52    148    139     1   112.4800480 524.673600
     55    178    169     1   112.4800480 524.673600
     60     61     73     1   114.2100488 537.225600
     60     64     76     1   114.2100488 537.225600
     60     67     70     1   114.2100488 537.225600
     61     60     64     1   109.6600471 523.836800
     61     60     67     1   109.6600471 523.836800
     61     73     85     1   111.5100476 526.347200
     64     60     67     1   109.6600471 523.836800
     64     76     82     1   111.5100476 526.347200
     67     70     79     1   111.5100476 526.347200
     70     79     88     1   107.9700462 569.024000
     73     85    238     1   107.9700462 569.024000
     76     82    208     1   107.9700462 569.024000
     82    208    199     1   112.4800480 524.673600
     85    238    229     1   112.4800480 524.673600
     90     91    103     1   114.2100488 537.225600
     90     94    106     1   114.2100488 537.225600
     90     97    100     1   114.2100488 537.225600
     91     90     94     1   109.6600471 523.836800
     91     90     97     1   109.6600471 523.836800
     91    103    115     1   111.5100476 526.347200
     94     90     97     1   109.6600471 523.836800
     94    106    112     1   111.5100476 526.347200
     97    100    109     1   111.5100476 526.347200
    100    109    118     1   107.9700462 569.024000
    103    115    298     1   107.9700462 569.024000
    106    112    268     1   107.9700462 569.024000
    112    268    259     1   112.4800480 524.673600
    115    298    289     1   112.4800480 524.673600
    120    121    133     1   114.2100488 537.225600
    120    124    136     1   114.2100488 537.225600
    120    127    130     1   114.2100488 537.225600
    121    120    124     1   109.6600471 523.836800
    121    120    127     1   109.6600471 523.836800
    121    133    145     1   111.5100476 526.347200
    124    120    127     1   109.6600471 523.836800
    124    136    142     1   111.5100476 526.347200
    127    130    139     1   111.5100476 526.347200
    130    139    148     1   107.9700462 569.024000
    133    145    358     1   107.9700462 569.024000
    136    142    328     1   107.9700462 569.024000
    142    328    319     1   112.4800480 524.673600
    145    358    349     1   112.4800480 524.673600
    150    151    163     1   114.2100488 537.225600
    150    154    166     1   114.2100488 537.225600
    150    157    160     1   114.2100488 537.225600
    151    150    154     1   109.6600471 523.836800
    151    150    157     1   109.6600471 523.836800
    151    163    175     1   111.5100476 526.347200
    154    150    157     1   109.6600471 523.836800
    154    166    172     1   111.5100476 526.347200
    157    160    169     1   111.5100476 526.347200
    160    169    178     1   107.9700462 569.024000
    163    175    418     1   107.9700462 569.024000
    166    172    388     1   107.9700462 569.024000
    172    388    379     1   112.4800480 524.673600
    175    418    409     1   112.4800480 524.673600
    180    181    193     1   114.2100488 537.225600
    180    184    196     1   114.2100488 537.225600
    180    187    190     1   114.2100488 537.225600
    181    180    184     1   109.6600471 523.836800
    181    180    187     1   109.6600471 523.836800
    181    193    205     1   111.5100476 526.347200
    184    180    187     1   109.6600471 523.836800
    184    196    202     1   111.5100476 526.347200
    187    190    199     1   111.5100476 526.347200
    190    199    208     1   107.9700462 569.024000
    193    205    482     1   107.9700462 569.024000
    196    202    450     1   107.9700462 569.024000
    202    450    420     1   112.4800480 524.673600
    205    482    452     1   112.4800480 524.673600
    210    211    223     1   114.2100488 537.225600
    210    214    226     1   114.2100488 537.225600
    210    217    220     1   114.2100488 537.225600
    211    210    214     1   109.6600471 523.836800
    211    210    217     1   109.6600471 523.836800
    211    223    235     1   111.5100476 526.347200
    214    210    217     1   109.6600471 523.836800
    214    226    232     1   111.5100476 526.347200
    217    220    229     1   111.5100476 526.347200
    220    229    238     1   107.9700462 569.024000
    223    235    546     1   107.9700462 569.024000
    226    232    514     1   107.9700462 569.024000
    232    514    484     1   112.4800480 524.673600
    235    546    516     1   112.4800480 524.673600
    240    241    253     1   114.2100488 537.225600
    240    244    256     1   114.2100488 537.225600
    240    247    250     1   114.2100488 537.225600
    241    240    244     1   109.6600471 523.836800
    241    240    247     1   109.6600471 523.836800
    241    253    265     1   111.5100476 526.347200
    244    240    247     1   109.6600471 523.836800
    244    256    262     1   111.5100476 526.347200
    247    250    259     1   111.5100476 526.347200
    250    259    268     1   107.9700462 569.024000
    253    265    610     1   107.9700462 569.024000
    256    262    578     1   107.9700462 569.024000
    262    578    548     1   112.4800480 524.673600
    265    610    580     1   112.4800480 524.673600
    270    271    283     1   114.2100488 537.225600
    270    274    286     1   114.2100488 537.225600
    270    277    280     1   114.2100488 537.225600
    271    270    274     1   109.6600471 523.836800
    271    270    277     1   109.6600471 523.836800
    271    283    295     1   111.5100476 526.347200
    274    270    277     1   109.6600471 523.836800
    274    286    292     1   111.5100476 526.347200
    277    280    289     1   111.5100476 526.347200
    280    289    298     1   107.9700462 569.024000
    283    295    674     1   107.9700462 569.024000
    286    292    642     1   107.9700462 569.024000
    292    642    612     1   112.4800480 524.673600
    295    674    644     1   112.4800480 524.673600
    300    301    313     1   114.2100488 537.225600
    300    304    316     1   114.2100488 537.225600
    300    307    310     1   114.2100488 537.225600
    301    300    304     1   109.6600471 523.836800
    301    300    307     1   109.6600471 523.836800
    301    313    325     1   111.5100476 526.347200
    304    300    307     1   109.6600471 523.836800
    304    316    322     1   111.5100476 526.347200
    307    310    319     1   111.5100476 526.347200
    310    319    328     1   107.9700462 569.024000
    313    325    738     1   107.9700462 569.024000
    316    322    706     1   107.9700462 569.024000
    322    706    676     1   112.4800480 524.673600
    325    738    708     1   112.4800480 524.673600
    330    331    343     1   114.2100488 537.225600
    330    334    346     1   114.2100488 537.225600
    330    337    340     1   114.2100488 537.225600
    331    330    334     1   109.6600471 523.836800
    331    330    337     1   109.6600471 523.836800
    331    343    355     1   111.5100476 526.347200
    334    330    337     1   109.6600471 523.836800
    334    346    352     1   111.5100476 526.347200
    337    340    349     1   111.5100476 526.347200
    340    349    358     1   107.9700462 569.024000
    343    355    802     1   107.9700462 569.024000
    346    352    770     1   107.9700462 569.024000
    352    770    740     1   112.4800480 524.673600
    355    802    772     1   112.4800480 524.673600
    360    361    373     1   114.2100488 537.225600
    360    364    376     1   114.2100488 537.225600
    360    367    370     1   114.2100488 537.225600
    361    360    364     1   109.6600471 523.836800
    361    360    367     1   109.6600471 523.836800
    361    373    385     1   111.5100476 526.347200
    364    360    367     1   109.6600471 523.836800
    364    376    382     1   111.5100476 526.347200
    367    370    379     1   111.5100476 526.347200
    370    379    388     1   107.9700462 569.024000
    373    385    866     1   107.9700462 569.024000
    376    382    834     1   107.9700462 569.024000
    382    834    804     1   112.4800480 524.673600
    385    866    836     1   112.4800480 524.673600
    390    391    403     1   114.2100488 537.225600
    390    394    406     1   114.2100488 537.225600
    390    397    400     1   114.2100488 537.225600
    391    390    394     1   109.6600471 523.836800
    391    390    397     1   109.6600471 523.836800
    391    403    415     1   111.5100476 526.347200
    394    390    397     1   109.6600471 523.836800
    394    406    412     1   111.5100476 526.347200
    397    400    409     1   111.5100476 526.347200
    400    409    418     1   107.9700462 569.024000
    403    415    930     1   107.9700462 569.024000
    406    412    898     1   107.9700462 569.024000
    412    898    868     1   112.4800480 524.673600
    415    930    900     1   112.4800480 524.673600
    420    423    426     1   111.5100476 526.347200
    423    420    450     1   107.9700462 569.024000
    423    426    429     1   114.2100488 537.225600
    426    429    430     1   109.6600471 523.836800
    426    429    440     1   109.6600471 523.836800
    429    430    433     1   114.2100488 537.225600
    429    440    443     1   114.2100488 537.225600
    430    429    440     1   109.6600471 523.836800
    430    433    436     1   111.0400475 529.694400
    433    436    437     1   123.2000528 564.003200
    433    436    438     1   112.7300484 572.371200
    437    436    438     1   122.1000523 635.131200
    440    443    446     1   111.0400475 529.694400
    443    446    447     1   123.2000528 564.003200
    443    446    448     1   112.7300484 572.371200
    447    446    448     1   122.1000523 635.131200
    452    455    458     1   111.5100476 526.347200
    455    458    461     1   114.2100488 537.225600
    455    452    482     1   107.9700462 569.024000
    458    461    462     1   109.6600471 523.836800
    458    461    472     1   109.6600471 523.836800
    461    462    465     1   114.2100488 537.225600
    461    472    475     1   114.2100488 537.225600
    462    465    468     1   111.0400475 529.694400
    462    461    472     1   109.6600471 523.836800
    465    468    469     1   123.2000528 564.003200
    465    468    470     1   112.7300484 572.371200
    469    468    470     1   122.1000523 635.131200
    472    475    478     1   111.0400475 529.694400
    475    478    479     1   123.2000528 564.003200
    475    478    480     1   112.7300484 572.371200
    479    478    480     1   122.1000523 635.131200
    484    487    490     1   111.5100476 526.347200
    487    484    514     1   107.9700462 569.024000
    487    490    493     1   114.2100488 537.225600
    490    493    494     1   109.6600471 523.836800
    490    493    504     1   109.6600471 523.836800
    493    494    497     1   114.2100488 537.225600
    493    504    507     1   114.2100488 537.225600
    494    493    504     1   109.6600471 523.836800
    494    497    500     1   111.0400475 529.694400
    497    500    501     1   123.2000528 564.003200
    497    500    502     1   112.7300484 572.371200
    501    500    502     1   122.1000523 635.131200
    504    507    510     1   111.0400475 529.694400
    507    510    511     1   123.2000528 564.003200
    507    510    512     1   112.7300484 572.371200
    511    510    512     1   122.1000523 635.131200
    516    519    522     1   111.5100476 526.347200
    519    522    525     1   114.2100488 537.225600
    519    516    546     1   107.9700462 569.024000
    522    525    526     1   109.6600471 523.836800
    522    525    536     1   109.6600471 523.836800
    525    526    529     1   114.2100488 537.225600
    525    536    539     1   114.2100488 537.225600
    526    529    532     1   111.0400475 529.694400
    526    525    536     1   109.6600471 523.836800
    529    532    533     1   123.2000528 564.003200
    529    532    534     1   112.7300484 572.371200
    533    532    534     1   122.1000523 635.131200
    536    539    542     1   111.0400475 529.694400
    539    542    543     1   123.2000528 564.003200
    539    542    544     1   112.7300484 572.371200
    543    542    544     1   122.1000523 635.131200
    548    551    554     1   111.5100476 526.347200
    551    548    578     1   107.9700462 569.024000
    551    554    557     1   114.2100488 537.225600
    554    557    558     1   109.6600471 523.836800
    554    557    568     1   109.6600471 523.836800
    557    558    561     1   114.2100488 537.225600
    557    568    571     1   114.2100488 537.225600
    558    557    568     1   109.6600471 523.836800
    558    561    564     1   111.0400475 529.694400
    561    564    565     1   123.2000528 564.003200
    561    564    566     1   112.7300484 572.371200
    565    564    566     1   122.1000523 635.131200
    568    571    574     1   111.0400475 529.694400
    571    574    575     1   123.2000528 564.003200
    571    574    576     1   112.7300484 572.371200
    575    574    576     1   122.1000523 635.131200
    580    583    586     1   111.5100476 526.347200
    583    586    589     1   114.2100488 537.225600
    583    580    610     1   107.9700462 569.024000
    586    589    590     1   109.6600471 523.836800
    586    589    600     1   109.6600471 523.836800
    589    590    593     1   114.2100488 537.225600
    589    600    603     1   114.2100488 537.225600
    590    593    596     1   111.0400475 529.694400
    590    589    600     1   109.6600471 523.836800
    593    596    597     1   123.2000528 564.003200
    593    596    598     1   112.7300484 572.371200
    597    596    598     1   122.1000523 635.131200
    600    603    606     1   111.0400475 529.694400
    603    606    607     1   123.2000528 564.003200
    603    606    608     1   112.7300484 572.371200
    607    606    608     1   122.1000523 635.131200
    612    615    618     1   111.5100476 526.347200
    615    612    642     1   107.9700462 569.024000
    615    618    621     1   114.2100488 537.225600
    618    621    622     1   109.6600471 523.836800
    618    621    632     1   109.6600471 523.836800
    621    622    625     1   114.2100488 537.225600
    621    632    635     1   114.2100488 537.225600
    622    621    632     1   109.6600471 523.836800
    622    625    628     1   111.0400475 529.694400
    625    628    629     1   123.2000528 564.003200
    625    628    630     1   112.7300484 572.371200
    629    628    630     1   122.1000523 635.131200
    632    635    638     1   111.0400475 529.694400
    635    638    639     1   123.2000528 564.003200
    635    638    640     1   112.7300484 572.371200
    639    638    640     1   122.1000523 635.131200
    644    647    650     1   111.5100476 526.347200
    647    650    653     1   114.2100488 537.225600
    647    644    674     1   107.9700462 569.024000
    650    653    654     1   109.6600471 523.836800
    650    653    664     1   109.6600471 523.836800
    653    654    657     1   114.2100488 537.225600
    653    664    667     1   114.2100488 537.225600
    654    657    660     1   111.0400475 529.694400
    654    653    664     1   109.6600471 523.836800
    657    660    661     1   123.2000528 564.003200
    657    660    662     1   112.7300484 572.371200
    661    660    662     1   122.1000523 635.131200
    664    667    670     1   111.0400475 529.694400
    667    670    671     1   123.2000528 564.003200
    667    670    672     1   112.7300484 572.371200
    671    670    672     1   122.1000523 635.131200
    676    679    682     1   111.5100476 526.347200
    679    676    706     1   107.9700462 569.024000
    679    682    685     1   114.2100488 537.225600
    682    685    686     1   109.6600471 523.836800
    682    685    696     1   109.6600471 523.836800
    685    686    689     1   114.2100488 537.225600
    685    696    699     1   114.2100488 537.225600
    686    685    696     1   109.6600471 523.836800
    686    689    692     1   111.0400475 529.694400
    689    692    693     1   123.2000528 564.003200
    689    692    694     1   112.7300484 572.371200
    693    692    694     1   122.1000523 635.131200
    696    699    702     1   111.0400475 529.694400
    699    702    703     1   123.2000528 564.003200
    699    702    704     1   112.7300484 572.371200
    703    702    704     1   122.1000523 635.131200
    708    711    714     1   111.5100476 526.347200
    711    714    717     1   114.2100488 537.225600
    711    708    738     1   107.9700462 569.024000
    714    717    718     1   109.6600471 523.836800
    714    717    728     1   109.6600471 523.836800
    717    718    721     1   114.2100488 537.225600
    717    728    731     1   114.2100488 537.225600
    718    721    724     1   111.0400475 529.694400
    718    717    728     1   109.6600471 523.836800
    721    724    725     1   123.2000528 564.003200
    721    724    726     1   112.7300484 572.371200
    725    724    726     1   122.1000523 635.131200
    728    731    734     1   111.0400475 529.694400
    731    734    735     1   123.2000528 564.003200
    731    734    736     1   112.7300484 572.371200
    735    734    736     1   122.1000523 635.131200
    740    743    746     1   111.5100476 526.347200
    743    740    770     1   107.9700462 569.024000
    743    746    749     1   114.2100488 537.225600
    746    749    750     1   109.6600471 523.836800
    746    749    760     1   109.6600471 523.836800
    749    750    753     1   114.2100488 537.225600
    749    760    763     1   114.2100488 537.225600
    750    749    760     1   109.6600471 523.836800
    750    753    756     1   111.0400475 529.694400
    753    756    757     1   123.2000528 564.003200
    753    756    758     1   112.7300484 572.371200
    757    756    758     1   122.1000523 635.131200
    760    763    766     1   111.0400475 529.694400
    763    766    767     1   123.2000528 564.003200
    763    766    768     1   112.7300484 572.371200
    767    766    768     1   122.1000523 635.131200
    772    775    778     1   111.5100476 526.347200
    775    778    781     1   114.2100488 537.225600
    775    772    802     1   107.9700462 569.024000
    778    781    782     1   109.6600471 523.836800
    778    781    792     1   109.6600471 523.836800
    781    782    785     1   114.2100488 537.225600
    781    792    795     1   114.2100488 537.225600
    782    785    788     1   111.0400475 529.694400
    782    781    792     1   109.6600471 523.836800
    785    788    789     1   123.2000528 564.003200
    785    788    790     1   112.7300484 572.371200
    789    788    790     1   122.1000523 635.131200
    792    795    798     1   111.0400475 529.694400
    795    798    799     1   123.2000528 564.003200
    795    798    800     1   112.7300484 572.371200
    799    798    800     1   122.1000523 635.131200
    804    807    810     1   111.5100476 526.347200
    807    804    834     1   107.9700462 569.024000
    807    810    813     1   114.2100488 537.225600
    810    813    814     1   109.6600471 523.836800
    810    813    824     1   109.6600471 523.836800
    813    814    817     1   114.2100488 537.225600
    813    824    827     1   114.2100488 537.225600
    814    813    824     1   109.6600471 523.836800
    814    817    820     1   111.0400475 529.694400
    817    820    821     1   123.2000528 564.003200
    817    820    822     1   112.7300484 572.371200
    821    820    822     1   122.1000523 635.131200
    824    827    830     1   111.0400475 529.694400
    827    830    831     1   123.2000528 564.003200
    827    830    832     1   112.7300484 572.371200
    831    830    832     1   122.1000523 635.131200
    836    839    842     1   111.5100476 526.347200
    839    842    845     1   114.2100488 537.225600
    839    836    866     1   107.9700462 569.024000
    842    845    846     1   109.6600471 523.836800
    842    845    856     1   109.6600471 523.836800
    845    846    849     1   114.2100488 537.225600
    845    856    859     1   114.2100488 537.225600
    846    849    852     1   111.0400475 529.694400
    846    845    856     1   109.6600471 523.836800
    849    852    853     1   123.2000528 564.003200
    849    852    854     1   112.7300484 572.371200
    853    852    854     1   122.1000523 635.131200
    856    859    862     1   111.0400475 529.694400
    859    862    863     1   123.2000528 564.003200
    859    862    864     1   112.7300484 572.371200
    863    862    864     1   122.1000523 635.131200
    868    871    874     1   111.5100476 526.347200
    871    868    898     1   107.9700462 569.024000
    871    874    877     1   114.2100488 537.225600
    874    877    878     1   109.6600471 523.836800
    874    877    888     1   109.6600471 523.836800
    877    878    881     1   114.2100488 537.225600
    877    888    891     1   114.2100488 537.225600
    878    877    888     1   109.6600471 523.836800
    878    881    884     1   111.0400475 529.694400
    881    884    885     1   123.2000528 564.003200
    881    884    886     1   112.7300484 572.371200
    885    884    886     1   122.1000523 635.131200
    888    891    894     1   111.0400475 529.694400
    891    894    895     1   123.2000528 564.003200
    891    894    896     1   112.7300484 572.371200
    895    894    896     1   122.1000523 635.131200
    900    903    906     1   111.5100476 526.347200
    903    906    909     1   114.2100488 537.225600
    903    900    930     1   107.9700462 569.024000
    906    909    910     1   109.6600471 523.836800
    906    909    920     1   109.6600471 523.836800
    909    910    913     1   114.2100488 537.225600
    909    920    923     1   114.2100488 537.225600
    910    913    916     1   111.0400475 529.694400
    910    909    920     1   109.6600471 523.836800
    913    916    917     1   123.2000528 564.003200
    913    916    918     1   112.7300484 572.371200
    917    916    918     1   122.1000523 635.131200
    920    923    926     1   111.0400475 529.694400
    923    926    927     1   123.2000528 564.003200
    923    926    928     1   112.7300484 572.371200
    927    926    928     1   122.1000523 635.131200
      1      2      3     1   109.7800468 425.094400
      1      2      4     1   109.7800468 425.094400
      1      5      6     1   109.7800468 425.094400
      1      5      7     1   109.7800468 425.094400
      2      8      9     1   109.8000471 387.438400
      2      8     10     1   109.8000471 387.438400
      3      2      8     1   109.5600471 388.275200
      3      2      4     1   108.4600466 328.025600
      4      2      8     1   109.5600471 388.275200
      5     11     12     1   109.8000471 387.438400
      5     11     13     1   109.8000471 387.438400
      6      5     11     1   109.5600471 388.275200
      6      5      7     1   108.4600466 328.025600
      7      5     11     1   109.5600471 388.275200
      8     14     15     1   110.5600475 386.601600
      8     14     16     1   110.5600475 386.601600
      9      8     14     1   109.8000471 387.438400
      9      8     10     1   107.5800459 329.699200
     10      8     14     1   109.8000471 387.438400
     11     17     18     1   110.5600475 386.601600
     11     17     19     1   110.5600475 386.601600
     12     11     17     1   109.8000471 387.438400
     12     11     13     1   107.5800459 329.699200
     13     11     17     1   109.8000471 387.438400
     14     20     58     1   110.1100470 384.091200
     15     14     20     1   108.0100461 406.684800
     15     14     16     1   109.7500473 328.025600
     16     14     20     1   108.0100461 406.684800
     17     21     59     1   110.1100470 384.091200
     18     17     21     1   108.0100461 406.684800
     18     17     19     1   109.7500473 328.025600
     19     17     21     1   108.0100461 406.684800
     20     28     29     1   108.0100461 406.684800
     20     28     30     1   108.0100461 406.684800
     20     31     32     1   108.0100461 406.684800
     20     31     33     1   108.0100461 406.684800
     21     22     23     1   108.0100461 406.684800
     21     22     24     1   108.0100461 406.684800
     21     25     26     1   108.0100461 406.684800
     21     25     27     1   108.0100461 406.684800
     22     21     59     1   110.1100470 384.091200
     22     34     35     1   109.8000471 387.438400
     22     34     36     1   109.8000471 387.438400
     23     22     34     1   110.5600475 386.601600
     23     22     24     1   109.7500473 328.025600
     24     22     34     1   110.5600475 386.601600
     25     21     59     1   110.1100470 384.091200
     25     37     38     1   109.8000471 387.438400
     25     37     39     1   109.8000471 387.438400
     26     25     37     1   110.5600475 386.601600
     26     25     27     1   109.7500473 328.025600
     27     25     37     1   110.5600475 386.601600
     28     20     58     1   110.1100470 384.091200
     28     40     41     1   109.8000471 387.438400
     28     40     42     1   109.8000471 387.438400
     29     28     40     1   110.5600475 386.601600
     29     28     30     1   109.7500473 328.025600
     30     28     40     1   110.5600475 386.601600
     31     20     58     1   110.1100470 384.091200
     31     43     44     1   109.8000471 387.438400
     31     43     45     1   109.8000471 387.438400
     32     31     43     1   110.5600475 386.601600
     32     31     33     1   109.7500473 328.025600
     33     31     43     1   110.5600475 386.601600
     34     55     56     1   109.8000471 387.438400
     34     55     57     1   109.8000471 387.438400
     35     34     55     1   109.8000471 387.438400
     35     34     36     1   107.5800459 329.699200
     36     34     55     1   109.8000471 387.438400
     37     52     53     1   109.8000471 387.438400
     37     52     54     1   109.8000471 387.438400
     38     37     52     1   109.8000471 387.438400
     38     37     39     1   107.5800459 329.699200
     39     37     52     1   109.8000471 387.438400
     40     49     50     1   109.8000471 387.438400
     40     49     51     1   109.8000471 387.438400
     41     40     49     1   109.8000471 387.438400
     41     40     42     1   107.5800459 329.699200
     42     40     49     1   109.8000471 387.438400
     43     46     47     1   109.8000471 387.438400
     43     46     48     1   109.8000471 387.438400
     44     43     46     1   109.8000471 387.438400
     44     43     45     1   107.5800459 329.699200
     45     43     46     1   109.8000471 387.438400
     47     46     88     1   108.7000466 426.768000
     47     46     48     1   107.5800459 329.699200
     48     46     88     1   108.7000466 426.768000
     50     49    118     1   108.7000466 426.768000
     50     49     51     1   107.5800459 329.699200
     51     49    118     1   108.7000466 426.768000
     53     52    148     1   108.7000466 426.768000
     53     52     54     1   107.5800459 329.699200
     54     52    148     1   108.7000466 426.768000
     56     55    178     1   108.7000466 426.768000
     56     55     57     1   107.5800459 329.699200
     57     55    178     1   108.7000466 426.768000
     60     61     62     1   108.0100461 406.684800
     60     61     63     1   108.0100461 406.684800
     60     64     65     1   108.0100461 406.684800
     60     64     66     1   108.0100461 406.684800
     60     67     68     1   108.0100461 406.684800
     60     67     69     1   108.0100461 406.684800
     61     60     89     1   110.1100470 384.091200
     61     73     74     1   109.8000471 387.438400
     61     73     75     1   109.8000471 387.438400
     62     61     73     1   110.5600475 386.601600
     62     61     63     1   109.7500473 328.025600
     63     61     73     1   110.5600475 386.601600
     64     60     89     1   110.1100470 384.091200
     64     76     77     1   109.8000471 387.438400
     64     76     78     1   109.8000471 387.438400
     65     64     76     1   110.5600475 386.601600
     65     64     66     1   109.7500473 328.025600
     66     64     76     1   110.5600475 386.601600
     67     60     89     1   110.1100470 384.091200
     67     70     71     1   109.8000471 387.438400
     67     70     72     1   109.8000471 387.438400
     68     67     70     1   110.5600475 386.601600
     68     67     69     1   109.7500473 328.025600
     69     67     70     1   110.5600475 386.601600
     70     79     80     1   109.5600471 388.275200
     70     79     81     1   109.5600471 388.275200
     71     70     79     1   109.8000471 387.438400
     71     70     72     1   107.5800459 329.699200
     72     70     79     1   109.8000471 387.438400
     73     85     86     1   109.5600471 388.275200
     73     85     87     1   109.5600471 388.275200
     74     73     85     1   109.8000471 387.438400
     74     73     75     1   107.5800459 329.699200
     75     73     85     1   109.8000471 387.438400
     76     82     83     1   109.5600471 388.275200
     76     82     84     1   109.5600471 388.275200
     77     76     82     1   109.8000471 387.438400
     77     76     78     1   107.5800459 329.699200
     78     76     82     1   109.8000471 387.438400
     80     79     88     1   109.7800468 425.094400
     80     79     81     1   108.4600466 328.025600
     81     79     88     1   109.7800468 425.094400
     83     82    208     1   109.7800468 425.094400
     83     82     84     1   108.4600466 328.025600
     84     82    208     1   109.7800468 425.094400
     86     85    238     1   109.7800468 425.094400
     86     85     87     1   108.4600466 328.025600
     87     85    238     1   109.7800468 425.094400
     90     91     92     1   108.0100461 406.684800
     90     91     93     1   108.0100461 406.684800
     90     94     95     1   108.0100461 406.684800
     90     94     96     1   108.0100461 406.684800
     90     97     98     1   108.0100461 406.684800
     90     97     99     1   108.0100461 406.684800
     91     90    119     1   110.1100470 384.091200
     91    103    104     1   109.8000471 387.438400
     91    103    105     1   109.8000471 387.438400
     92     91    103     1   110.5600475 386.601600
     92     91     93     1   109.7500473 328.025600
     93     91    103     1   110.5600475 386.601600
     94     90    119     1   110.1100470 384.091200
     94    106    107     1   109.8000471 387.438400
     94    106    108     1   109.8000471 387.438400
     95     94    106     1   110.5600475 386.601600
     95     94     96     1   109.7500473 328.025600
     96     94    106     1   110.5600475 386.601600
     97     90    119     1   110.1100470 384.091200
     97    100    101     1   109.8000471 387.438400
     97    100    102     1   109.8000471 387.438400
     98     97    100     1   110.5600475 386.601600
     98     97     99     1   109.7500473 328.025600
     99     97    100     1   110.5600475 386.601600
    100    109    110     1   109.5600471 388.275200
    100    109    111     1   109.5600471 388.275200
    101    100    109     1   109.8000471 387.438400
    101    100    102     1   107.5800459 329.699200
    102    100    109     1   109.8000471 387.438400
    103    115    116     1   109.5600471 388.275200
    103    115    117     1   109.5600471 388.275200
    104    103    115     1   109.8000471 387.438400
    104    103    105     1   107.5800459 329.699200
    105    103    115     1   109.8000471 387.438400
    106    112    113     1   109.5600471 388.275200
    106    112    114     1   109.5600471 388.275200
    107    106    112     1   109.8000471 387.438400
    107    106    108     1   107.5800459 329.699200
    108    106    112     1   109.8000471 387.438400
    110    109    118     1   109.7800468 425.094400
    110    109    111     1   108.4600466 328.025600
    111    109    118     1   109.7800468 425.094400
    113    112    268     1   109.7800468 425.094400
    113    112    114     1   108.4600466 328.025600
    114    112    268     1   109.7800468 425.094400
    116    115    298     1   109.7800468 425.094400
    116    115    117     1   108.4600466 328.025600
    117    115    298     1   109.7800468 425.094400
    120    121    122     1   108.0100461 406.684800
    120    121    123     1   108.0100461 406.684800
    120    124    125     1   108.0100461 406.684800
    120    124    126     1   108.0100461 406.684800
    120    127    128     1   108.0100461 406.684800
    120    127    129     1   108.0100461 406.684800
    121    120    149     1   110.1100470 384.091200
    121    133    134     1   109.8000471 387.438400
    121    133    135     1   109.8000471 387.438400
    122    121    133     1   110.5600475 386.601600
    122    121    123     1   109.7500473 328.025600
    123    121    133     1   110.5600475 386.601600
    124    120    149     1   110.1100470 384.091200
    124    136    137     1   109.8000471 387.438400
    124    136    138     1   109.8000471 387.438400
    125    124    136     1   110.5600475 386.601600
    125    124    126     1   109.7500473 328.025600
    126    124    136     1   110.5600475 386.601600
    127    120    149     1   110.1100470 384.091200
    127    130    131     1   109.8000471 387.438400
    127    130    132     1   109.8000471 387.438400
    128    127    130     1   110.5600475 386.601600
    128    127    129     1   109.7500473 328.025600
    129    127    130     1   110.5600475 386.601600
    130    139    140     1   109.5600471 388.275200
    130    139    141     1   109.5600471 388.275200
    131    130    139     1   109.8000471 387.438400
    131    130    132     1   107.5800459 329.699200
    132    130    139     1   109.8000471 387.438400
    133    145    146     1   109.5600471 388.275200
    133    145    147     1   109.5600471 388.275200
    134    133    145     1   109.8000471 387.438400
    134    133    135     1   107.5800459 329.699200
    135    133    145     1   109.8000471 387.438400
    136    142    143     1   109.5600471 388.275200
    136    142    144     1   109.5600471 388.275200
    137    136    142     1   109.8000471 387.438400
    137    136    138     1   107.5800459 329.699200
    138    136    142     1   109.8000471 387.438400
    140    139    148     1   109.7800468 425.094400
    140    139    141     1   108.4600466 328.025600
    141    139    148     1   109.7800468 425.094400
    143    142    328     1   109.7800468 425.094400
    143    142    144     1   108.4600466 328.025600
    144    142    328     1   109.7800468 425.094400
    146    145    358     1   109.7800468 425.094400
    146    145    147     1   108.4600466 328.025600
    147    145    358     1   109.7800468 425.094400
    150    151    152     1   108.0100461 406.684800
    150    151    153     1   108.0100461 406.684800
    150    154    155     1   108.0100461 406.684800
    150    154    156     1   108.0100461 406.684800
    150    157    158     1   108.0100461 406.684800
    150    157    159     1   108.0100461 406.684800
    151    150    179     1   110.1100470 384.091200
    151    163    164     1   109.8000471 387.438400
    151    163    165     1   109.8000471 387.438400
    152    151    163     1   110.5600475 386.601600
    152    151    153     1   109.7500473 328.025600
    153    151    163     1   110.5600475 386.601600
    154    150    179     1   110.1100470 384.091200
    154    166    167     1   109.8000471 387.438400
    154    166    168     1   109.8000471 387.438400
    155    154    166     1   110.5600475 386.601600
    155    154    156     1   109.7500473 328.025600
    156    154    166     1   110.5600475 386.601600
    157    150    179     1   110.1100470 384.091200
    157    160    161     1   109.8000471 387.438400
    157    160    162     1   109.8000471 387.438400
    158    157    160     1   110.5600475 386.601600
    158    157    159     1   109.7500473 328.025600
    159    157    160     1   110.5600475 386.601600
    160    169    170     1   109.5600471 388.275200
    160    169    171     1   109.5600471 388.275200
    161    160    169     1   109.8000471 387.438400
    161    160    162     1   107.5800459 329.699200
    162    160    169     1   109.8000471 387.438400
    163    175    176     1   109.5600471 388.275200
    163    175    177     1   109.5600471 388.275200
    164    163    175     1   109.8000471 387.438400
    164    163    165     1   107.5800459 329.699200
    165    163    175     1   109.8000471 387.438400
    166    172    173     1   109.5600471 388.275200
    166    172    174     1   109.5600471 388.275200
    167    166    172     1   109.8000471 387.438400
    167    166    168     1   107.5800459 329.699200
    168    166    172     1   109.8000471 387.438400
    170    169    178     1   109.7800468 425.094400
    170    169    171     1   108.4600466 328.025600
    171    169    178     1   109.7800468 425.094400
    173    172    388     1   109.7800468 425.094400
    173    172    174     1   108.4600466 328.025600
    174    172    388     1   109.7800468 425.094400
    176    175    418     1   109.7800468 425.094400
    176    175    177     1   108.4600466 328.025600
    177    175    418     1   109.7800468 425.094400
    180    181    182     1   108.0100461 406.684800
    180    181    183     1   108.0100461 406.684800
    180    184    185     1   108.0100461 406.684800
    180    184    186     1   108.0100461 406.684800
    180    187    188     1   108.0100461 406.684800
    180    187    189     1   108.0100461 406.684800
    181    180    209     1   110.1100470 384.091200
    181    193    194     1   109.8000471 387.438400
    181    193    195     1   109.8000471 387.438400
    182    181    193     1   110.5600475 386.601600
    182    181    183     1   109.7500473 328.025600
    183    181    193     1   110.5600475 386.601600
    184    180    209     1   110.1100470 384.091200
    184    196    197     1   109.8000471 387.438400
    184    196    198     1   109.8000471 387.438400
    185    184    196     1   110.5600475 386.601600
    185    184    186     1   109.7500473 328.025600
    186    184    196     1   110.5600475 386.601600
    187    180    209     1   110.1100470 384.091200
    187    190    191     1   109.8000471 387.438400
    187    190    192     1   109.8000471 387.438400
    188    187    190     1   110.5600475 386.601600
    188    187    189     1   109.7500473 328.025600
    189    187    190     1   110.5600475 386.601600
    190    199    200     1   109.5600471 388.275200
    190    199    201     1   109.5600471 388.275200
    191    190    199     1   109.8000471 387.438400
    191    190    192     1   107.5800459 329.699200
    192    190    199     1   109.8000471 387.438400
    193    205    206     1   109.5600471 388.275200
    193    205    207     1   109.5600471 388.275200
    194    193    205     1   109.8000471 387.438400
    194    193    195     1   107.5800459 329.699200
    195    193    205     1   109.8000471 387.438400
    196    202    203     1   109.5600471 388.275200
    196    202    204     1   109.5600471 388.275200
    197    196    202     1   109.8000471 387.438400
    197    196    198     1   107.5800459 329.699200
    198    196    202     1   109.8000471 387.438400
    200    199    208     1   109.7800468 425.094400
    200    199    201     1   108.4600466 328.025600
    201    199    208     1   109.7800468 425.094400
    203    202    450     1   109.7800468 425.094400
    203    202    204     1   108.4600466 328.025600
    204    202    450     1   109.7800468 425.094400
    206    205    482     1   109.7800468 425.094400
    206    205    207     1   108.4600466 328.025600
    207    205    482     1   109.7800468 425.094400
    210    211    212     1   108.0100461 406.684800
    210    211    213     1   108.0100461 406.684800
    210    214    215     1   108.0100461 406.684800
    210    214    216     1   108.0100461 406.684800
    210    217    218     1   108.0100461 406.684800
    210    217    219     1   108.0100461 406.684800
    211    210    239     1   110.1100470 384.091200
    211    223    224     1   109.8000471 387.438400
    211    223    225     1   109.8000471 387.438400
    212    211    223     1   110.5600475 386.601600
    212    211    213     1   109.7500473 328.025600
    213    211    223     1   110.5600475 386.601600
    214    210    239     1   110.1100470 384.091200
    214    226    227     1   109.8000471 387.438400
    214    226    228     1   109.8000471 387.438400
    215    214    226     1   110.5600475 386.601600
    215    214    216     1   109.7500473 328.025600
    216    214    226     1   110.5600475 386.601600
    217    210    239     1   110.1100470 384.091200
    217    220    221     1   109.8000471 387.438400
    217    220    222     1   109.8000471 387.438400
    218    217    220     1   110.5600475 386.601600
    218    217    219     1   109.7500473 328.025600
    219    217    220     1   110.5600475 386.601600
    220    229    230     1   109.5600471 388.275200
    220    229    231     1   109.5600471 388.275200
    221    220    229     1   109.8000471 387.438400
    221    220    222     1   107.5800459 329.699200
    222    220    229     1   109.8000471 387.438400
    223    235    236     1   109.5600471 388.275200
    223    235    237     1   109.5600471 388.275200
    224    223    235     1   109.8000471 387.438400
    224    223    225     1   107.5800459 329.699200
    225    223    235     1   109.8000471 387.438400
    226    232    233     1   109.5600471 388.275200
    226    232    234     1   109.5600471 388.275200
    227    226    232     1   109.8000471 387.438400
    227    226    228     1   107.5800459 329.699200
    228    226    232     1   109.8000471 387.438400
    230    229    238     1   109.7800468 425.094400
    230    229    231     1   108.4600466 328.025600
    231    229    238     1   109.7800468 425.094400
    233    232    514     1   109.7800468 425.094400
    233    232    234     1   108.4600466 328.025600
    234    232    514     1   109.7800468 425.094400
    236    235    546     1   109.7800468 425.094400
    236    235    237     1   108.4600466 328.025600
    237    235    546     1   109.7800468 425.094400
    240    241    242     1   108.0100461 406.684800
    240    241    243     1   108.0100461 406.684800
    240    244    245     1   108.0100461 406.684800
    240    244    246     1   108.0100461 406.684800
    240    247    248     1   108.0100461 406.684800
    240    247    249     1   108.0100461 406.684800
    241    240    269     1   110.1100470 384.091200
    241    253    254     1   109.8000471 387.438400
    241    253    255     1   109.8000471 387.438400
    242    241    253     1   110.5600475 386.601600
    242    241    243     1   109.7500473 328.025600
    243    241    253     1   110.5600475 386.601600
    244    240    269     1   110.1100470 384.091200
    244    256    257     1   109.8000471 387.438400
    244    256    258     1   109.8000471 387.438400
    245    244    256     1   110.5600475 386.601600
    245    244    246     1   109.7500473 328.025600
    246    244    256     1   110.5600475 386.601600
    247    240    269     1   110.1100470 384.091200
    247    250    251     1   109.8000471 387.438400
    247    250    252     1   109.8000471 387.438400
    248    247    250     1   110.5600475 386.601600
    248    247    249     1   109.7500473 328.025600
    249    247    250     1   110.5600475 386.601600
    250    259    260     1   109.5600471 388.275200
    250    259    261     1   109.5600471 388.275200
    251    250    259     1   109.8000471 387.438400
    251    250    252     1   107.5800459 329.699200
    252    250    259     1   109.8000471 387.438400
    253    265    266     1   109.5600471 388.275200
    253    265    267     1   109.5600471 388.275200
    254    253    265     1   109.8000471 387.438400
    254    253    255     1   107.5800459 329.699200
    255    253    265     1   109.8000471 387.438400
    256    262    263     1   109.5600471 388.275200
    256    262    264     1   109.5600471 388.275200
    257    256    262     1   109.8000471 387.438400
    257    256    258     1   107.5800459 329.699200
    258    256    262     1   109.8000471 387.438400
    260    259    268     1   109.7800468 425.094400
    260    259    261     1   108.4600466 328.025600
    261    259    268     1   109.7800468 425.094400
    263    262    578     1   109.7800468 425.094400
    263    262    264     1   108.4600466 328.025600
    264    262    578     1   109.7800468 425.094400
    266    265    610     1   109.7800468 425.094400
    266    265    267     1   108.4600466 328.025600
    267    265    610     1   109.7800468 425.094400
    270    271    272     1   108.0100461 406.684800
    270    271    273     1   108.0100461 406.684800
    270    274    275     1   108.0100461 406.684800
    270    274    276     1   108.0100461 406.684800
    270    277    278     1   108.0100461 406.684800
    270    277    279     1   108.0100461 406.684800
    271    270    299     1   110.1100470 384.091200
    271    283    284     1   109.8000471 387.438400
    271    283    285     1   109.8000471 387.438400
    272    271    283     1   110.5600475 386.601600
    272    271    273     1   109.7500473 328.025600
    273    271    283     1   110.5600475 386.601600
    274    270    299     1   110.1100470 384.091200
    274    286    287     1   109.8000471 387.438400
    274    286    288     1   109.8000471 387.438400
    275    274    286     1   110.5600475 386.601600
    275    274    276     1   109.7500473 328.025600
    276    274    286     1   110.5600475 386.601600
    277    270    299     1   110.1100470 384.091200
    277    280    281     1   109.8000471 387.438400
    277    280    282     1   109.8000471 387.438400
    278    277    280     1   110.5600475 386.601600
    278    277    279     1   109.7500473 328.025600
    279    277    280     1   110.5600475 386.601600
    280    289    290     1   109.5600471 388.275200
    280    289    291     1   109.5600471 388.275200
    281    280    289     1   109.8000471 387.438400
    281    280    282     1   107.5800459 329.699200
    282    280    289     1   109.8000471 387.438400
    283    295    296     1   109.5600471 388.275200
    283    295    297     1   109.5600471 388.275200
    284    283    295     1   109.8000471 387.438400
    284    283    285     1   107.5800459 329.699200
    285    283    295     1   109.8000471 387.438400
    286    292    293     1   109.5600471 388.275200
    286    292    294     1   109.5600471 388.275200
    287    286    292     1   109.8000471 387.438400
    287    286    288     1   107.5800459 329.699200
    288    286    292     1   109.8000471 387.438400
    290    289    298     1   109.7800468 425.094400
    290    289    291     1   108.4600466 328.025600
    291    289    298     1   109.7800468 425.094400
    293    292    642     1   109.7800468 425.094400
    293    292    294     1   108.4600466 328.025600
    294    292    642     1   109.7800468 425.094400
    296    295    674     1   109.7800468 425.094400
    296    295    297     1   108.4600466 328.025600
    297    295    674     1   109.7800468 425.094400
    300    301    302     1   108.0100461 406.684800
    300    301    303     1   108.0100461 406.684800
    300    304    305     1   108.0100461 406.684800
    300    304    306     1   108.0100461 406.684800
    300    307    308     1   108.0100461 406.684800
    300    307    309     1   108.0100461 406.684800
    301    300    329     1   110.1100470 384.091200
    301    313    314     1   109.8000471 387.438400
    301    313    315     1   109.8000471 387.438400
    302    301    313     1   110.5600475 386.601600
    302    301    303     1   109.7500473 328.025600
    303    301    313     1   110.5600475 386.601600
    304    300    329     1   110.1100470 384.091200
    304    316    317     1   109.8000471 387.438400
    304    316    318     1   109.8000471 387.438400
    305    304    316     1   110.5600475 386.601600
    305    304    306     1   109.7500473 328.025600
    306    304    316     1   110.5600475 386.601600
    307    300    329     1   110.1100470 384.091200
    307    310    311     1   109.8000471 387.438400
    307    310    312     1   109.8000471 387.438400
    308    307    310     1   110.5600475 386.601600
    308    307    309     1   109.7500473 328.025600
    309    307    310     1   110.5600475 386.601600
    310    319    320     1   109.5600471 388.275200
    310    319    321     1   109.5600471 388.275200
    311    310    319     1   109.8000471 387.438400
    311    310    312     1   107.5800459 329.699200
    312    310    319     1   109.8000471 387.438400
    313    325    326     1   109.5600471 388.275200
    313    325    327     1   109.5600471 388.275200
    314    313    325     1   109.8000471 387.438400
    314    313    315     1   107.5800459 329.699200
    315    313    325     1   109.8000471 387.438400
    316    322    323     1   109.5600471 388.275200
    316    322    324     1   109.5600471 388.275200
    317    316    322     1   109.8000471 387.438400
    317    316    318     1   107.5800459 329.699200
    318    316    322     1   109.8000471 387.438400
    320    319    328     1   109.7800468 425.094400
    320    319    321     1   108.4600466 328.025600
    321    319    328     1   109.7800468 425.094400
    323    322    706     1   109.7800468 425.094400
    323    322    324     1   108.4600466 328.025600
    324    322    706     1   109.7800468 425.094400
    326    325    738     1   109.7800468 425.094400
    326    325    327     1   108.4600466 328.025600
    327    325    738     1   109.7800468 425.094400
    330    331    332     1   108.0100461 406.684800
    330    331    333     1   108.0100461 406.684800
    330    334    335     1   108.0100461 406.684800
    330    334    336     1   108.0100461 406.684800
    330    337    338     1   108.0100461 406.684800
    330    337    339     1   108.0100461 406.684800
    331    330    359     1   110.1100470 384.091200
    331    343    344     1   109.8000471 387.438400
    331    343    345     1   109.8000471 387.438400
    332    331    343     1   110.5600475 386.601600
    332    331    333     1   109.7500473 328.025600
    333    331    343     1   110.5600475 386.601600
    334    330    359     1   110.1100470 384.091200
    334    346    347     1   109.8000471 387.438400
    334    346    348     1   109.8000471 387.438400
    335    334    346     1   110.5600475 386.601600
    335    334    336     1   109.7500473 328.025600
    336    334    346     1   110.5600475 386.601600
    337    330    359     1   110.1100470 384.091200
    337    340    341     1   109.8000471 387.438400
    337    340    342     1   109.8000471 387.438400
    338    337    340     1   110.5600475 386.601600
    338    337    339     1   109.7500473 328.025600
    339    337    340     1   110.5600475 386.601600
    340    349    350     1   109.5600471 388.275200
    340    349    351     1   109.5600471 388.275200
    341    340    349     1   109.8000471 387.438400
    341    340    342     1   107.5800459 329.699200
    342    340    349     1   109.8000471 387.438400
    343    355    356     1   109.5600471 388.275200
    343    355    357     1   109.5600471 388.275200
    344    343    355     1   109.8000471 387.438400
    344    343    345     1   107.5800459 329.699200
    345    343    355     1   109.8000471 387.438400
    346    352    353     1   109.5600471 388.275200
    346    352    354     1   109.5600471 388.275200
    347    346    352     1   109.8000471 387.438400
    347    346    348     1   107.5800459 329.699200
    348    346    352     1   109.8000471 387.438400
    350    349    358     1   109.7800468 425.094400
    350    349    351     1   108.4600466 328.025600
    351    349    358     1   109.7800468 425.094400
    353    352    770     1   109.7800468 425.094400
    353    352    354     1   108.4600466 328.025600
    354    352    770     1   109.7800468 425.094400
    356    355    802     1   109.7800468 425.094400
    356    355    357     1   108.4600466 328.025600
    357    355    802     1   109.7800468 425.094400
    360    361    362     1   108.0100461 406.684800
    360    361    363     1   108.0100461 406.684800
    360    364    365     1   108.0100461 406.684800
    360    364    366     1   108.0100461 406.684800
    360    367    368     1   108.0100461 406.684800
    360    367    369     1   108.0100461 406.684800
    361    360    389     1   110.1100470 384.091200
    361    373    374     1   109.8000471 387.438400
    361    373    375     1   109.8000471 387.438400
    362    361    373     1   110.5600475 386.601600
    362    361    363     1   109.7500473 328.025600
    363    361    373     1   110.5600475 386.601600
    364    360    389     1   110.1100470 384.091200
    364    376    377     1   109.8000471 387.438400
    364    376    378     1   109.8000471 387.438400
    365    364    376     1   110.5600475 386.601600
    365    364    366     1   109.7500473 328.025600
    366    364    376     1   110.5600475 386.601600
    367    360    389     1   110.1100470 384.091200
    367    370    371     1   109.8000471 387.438400
    367    370    372     1   109.8000471 387.438400
    368    367    370     1   110.5600475 386.601600
    368    367    369     1   109.7500473 328.025600
    369    367    370     1   110.5600475 386.601600
    370    379    380     1   109.5600471 388.275200
    370    379    381     1   109.5600471 388.275200
    371    370    379     1   109.8000471 387.438400
    371    370    372     1   107.5800459 329.699200
    372    370    379     1   109.8000471 387.438400
    373    385    386     1   109.5600471 388.275200
    373    385    387     1   109.5600471 388.275200
    374    373    385     1   109.8000471 387.438400
    374    373    375     1   107.5800459 329.699200
    375    373    385     1   109.8000471 387.438400
    376    382    383     1   109.5600471 388.275200
    376    382    384     1   109.5600471 388.275200
    377    376    382     1   109.8000471 387.438400
    377    376    378     1   107.5800459 329.699200
    378    376    382     1   109.8000471 387.438400
    380    379    388     1   109.7800468 425.094400
    380    379    381     1   108.4600466 328.025600
    381    379    388     1   109.7800468 425.094400
    383    382    834     1   109.7800468 425.094400
    383    382    384     1   108.4600466 328.025600
    384    382    834     1   109.7800468 425.094400
    386    385    866     1   109.7800468 425.094400
    386    385    387     1   108.4600466 328.025600
    387    385    866     1   109.7800468 425.094400
    390    391    392     1   108.0100461 406.684800
    390    391    393     1   108.0100461 406.684800
    390    394    395     1   108.0100461 406.684800
    390    394    396     1   108.0100461 406.684800
    390    397    398     1   108.0100461 406.684800
    390    397    399     1   108.0100461 406.684800
    391    390    419     1   110.1100470 384.091200
    391    403    404     1   109.8000471 387.438400
    391    403    405     1   109.8000471 387.438400
    392    391    403     1   110.5600475 386.601600
    392    391    393     1   109.7500473 328.025600
    393    391    403     1   110.5600475 386.601600
    394    390    419     1   110.1100470 384.091200
    394    406    407     1   109.8000471 387.438400
    394    406    408     1   109.8000471 387.438400
    395    394    406     1   110.5600475 386.601600
    395    394    396     1   109.7500473 328.025600
    396    394    406     1   110.5600475 386.601600
    397    390    419     1   110.1100470 384.091200
    397    400    401     1   109.8000471 387.438400
    397    400    402     1   109.8000471 387.438400
    398    397    400     1   110.5600475 386.601600
    398    397    399     1   109.7500473 328.025600
    399    397    400     1   110.5600475 386.601600
    400    409    410     1   109.5600471 388.275200
    400    409    411     1   109.5600471 388.275200
    401    400    409     1   109.8000471 387.438400
    401    400    402     1   107.5800459 329.699200
    402    400    409     1   109.8000471 387.438400
    403    415    416     1   109.5600471 388.275200
    403    415    417     1   109.5600471 388.275200
    404    403    415     1   109.8000471 387.438400
    404    403    405     1   107.5800459 329.699200
    405    403    415     1   109.8000471 387.438400
    406    412    413     1   109.5600471 388.275200
    406    412    414     1   109.5600471 388.275200
    407    406    412     1   109.8000471 387.438400
    407    406    408     1   107.5800459 329.699200
    408    406    412     1   109.8000471 387.438400
    410    409    418     1   109.7800468 425.094400
    410    409    411     1   108.4600466 328.025600
    411    409    418     1   109.7800468 425.094400
    413    412    898     1   109.7800468 425.094400
    413    412    414     1   108.4600466 328.025600
    414    412    898     1   109.7800468 425.094400
    416    415    930     1   109.7800468 425.094400
    416    415    417     1   108.4600466 328.025600
    417    415    930     1   109.7800468 425.094400
    420    423    424     1   109.8000471 387.438400
    420    423    425     1   109.8000471 387.438400
    421    420    423     1   109.5600471 388.275200
    421    420    450     1   109.7800468 425.094400
    421    420    422     1   108.4600466 328.025600
    422    420    423     1   109.5600471 388.275200
    422    420    450     1   109.7800468 425.094400
    423    426    427     1   110.5600475 386.601600
    423    426    428     1   110.5600475 386.601600
    424    423    426     1   109.8000471 387.438400
    424    423    425     1   107.5800459 329.699200
    425    423    426     1   109.8000471 387.438400
    426    429    451     1   110.1100470 384.091200
    427    426    429     1   108.0100461 406.684800
    427    426    428     1   109.7500473 328.025600
    428    426    429     1   108.0100461 406.684800
    429    430    431     1   108.0100461 406.684800
    429    430    432     1   108.0100461 406.684800
    429    440    441     1   108.0100461 406.684800
    429    440    442     1   108.0100461 406.684800
    430    429    451     1   110.1100470 384.091200
    430    433    434     1   109.8000471 387.438400
    430    433    435     1   109.8000471 387.438400
    431    430    433     1   110.5600475 386.601600
    431    430    432     1   109.7500473 328.025600
    432    430    433     1   110.5600475 386.601600
    434    433    436     1   108.7700466 392.459200
    434    433    435     1   107.5800459 329.699200
    435    433    436     1   108.7700466 392.459200
    436    438    439     1   106.5500460 417.563200
    440    429    451     1   110.1100470 384.091200
    440    443    444     1   109.8000471 387.438400
    440    443    445     1   109.8000471 387.438400
    441    440    443     1   110.5600475 386.601600
    441    440    442     1   109.7500473 328.025600
    442    440    443     1   110.5600475 386.601600
    444    443    446     1   108.7700466 392.459200
    444    443    445     1   107.5800459 329.699200
    445    443    446     1   108.7700466 392.459200
    446    448    449     1   106.5500460 417.563200
    452    455    456     1   109.8000471 387.438400
    452    455    457     1   109.8000471 387.438400
    453    452    455     1   109.5600471 388.275200
    453    452    482     1   109.7800468 425.094400
    453    452    454     1   108.4600466 328.025600
    454    452    455     1   109.5600471 388.275200
    454    452    482     1   109.7800468 425.094400
    455    458    459     1   110.5600475 386.601600
    455    458    460     1   110.5600475 386.601600
    456    455    458     1   109.8000471 387.438400
    456    455    457     1   107.5800459 329.699200
    457    455    458     1   109.8000471 387.438400
    458    461    483     1   110.1100470 384.091200
    459    458    461     1   108.0100461 406.684800
    459    458    460     1   109.7500473 328.025600
    460    458    461     1   108.0100461 406.684800
    461    462    463     1   108.0100461 406.684800
    461    462    464     1   108.0100461 406.684800
    461    472    473     1   108.0100461 406.684800
    461    472    474     1   108.0100461 406.684800
    462    465    466     1   109.8000471 387.438400
    462    465    467     1   109.8000471 387.438400
    462    461    483     1   110.1100470 384.091200
    463    462    465     1   110.5600475 386.601600
    463    462    464     1   109.7500473 328.025600
    464    462    465     1   110.5600475 386.601600
    466    465    468     1   108.7700466 392.459200
    466    465    467     1   107.5800459 329.699200
    467    465    468     1   108.7700466 392.459200
    468    470    471     1   106.5500460 417.563200
    472    475    476     1   109.8000471 387.438400
    472    475    477     1   109.8000471 387.438400
    472    461    483     1   110.1100470 384.091200
    473    472    475     1   110.5600475 386.601600
    473    472    474     1   109.7500473 328.025600
    474    472    475     1   110.5600475 386.601600
    476    475    478     1   108.7700466 392.459200
    476    475    477     1   107.5800459 329.699200
    477    475    478     1   108.7700466 392.459200
    478    480    481     1   106.5500460 417.563200
    484    487    488     1   109.8000471 387.438400
    484    487    489     1   109.8000471 387.438400
    485    484    487     1   109.5600471 388.275200
    485    484    514     1   109.7800468 425.094400
    485    484    486     1   108.4600466 328.025600
    486    484    487     1   109.5600471 388.275200
    486    484    514     1   109.7800468 425.094400
    487    490    491     1   110.5600475 386.601600
    487    490    492     1   110.5600475 386.601600
    488    487    490     1   109.8000471 387.438400
    488    487    489     1   107.5800459 329.699200
    489    487    490     1   109.8000471 387.438400
    490    493    515     1   110.1100470 384.091200
    491    490    493     1   108.0100461 406.684800
    491    490    492     1   109.7500473 328.025600
    492    490    493     1   108.0100461 406.684800
    493    494    495     1   108.0100461 406.684800
    493    494    496     1   108.0100461 406.684800
    493    504    505     1   108.0100461 406.684800
    493    504    506     1   108.0100461 406.684800
    494    493    515     1   110.1100470 384.091200
    494    497    498     1   109.8000471 387.438400
    494    497    499     1   109.8000471 387.438400
    495    494    497     1   110.5600475 386.601600
    495    494    496     1   109.7500473 328.025600
    496    494    497     1   110.5600475 386.601600
    498    497    500     1   108.7700466 392.459200
    498    497    499     1   107.5800459 329.699200
    499    497    500     1   108.7700466 392.459200
    500    502    503     1   106.5500460 417.563200
    504    493    515     1   110.1100470 384.091200
    504    507    508     1   109.8000471 387.438400
    504    507    509     1   109.8000471 387.438400
    505    504    507     1   110.5600475 386.601600
    505    504    506     1   109.7500473 328.025600
    506    504    507     1   110.5600475 386.601600
    508    507    510     1   108.7700466 392.459200
    508    507    509     1   107.5800459 329.699200
    509    507    510     1   108.7700466 392.459200
    510    512    513     1   106.5500460 417.563200
    516    519    520     1   109.8000471 387.438400
    516    519    521     1   109.8000471 387.438400
    517    516    519     1   109.5600471 388.275200
    517    516    546     1   109.7800468 425.094400
    517    516    518     1   108.4600466 328.025600
    518    516    519     1   109.5600471 388.275200
    518    516    546     1   109.7800468 425.094400
    519    522    523     1   110.5600475 386.601600
    519    522    524     1   110.5600475 386.601600
    520    519    522     1   109.8000471 387.438400
    520    519    521     1   107.5800459 329.699200
    521    519    522     1   109.8000471 387.438400
    522    525    547     1   110.1100470 384.091200
    523    522    525     1   108.0100461 406.684800
    523    522    524     1   109.7500473 328.025600
    524    522    525     1   108.0100461 406.684800
    525    526    527     1   108.0100461 406.684800
    525    526    528     1   108.0100461 406.684800
    525    536    537     1   108.0100461 406.684800
    525    536    538     1   108.0100461 406.684800
    526    529    530     1   109.8000471 387.438400
    526    529    531     1   109.8000471 387.438400
    526    525    547     1   110.1100470 384.091200
    527    526    529     1   110.5600475 386.601600
    527    526    528     1   109.7500473 328.025600
    528    526    529     1   110.5600475 386.601600
    530    529    532     1   108.7700466 392.459200
    530    529    531     1   107.5800459 329.699200
    531    529    532     1   108.7700466 392.459200
    532    534    535     1   106.5500460 417.563200
    536    539    540     1   109.8000471 387.438400
    536    539    541     1   109.8000471 387.438400
    536    525    547     1   110.1100470 384.091200
    537    536    539     1   110.5600475 386.601600
    537    536    538     1   109.7500473 328.025600
    538    536    539     1   110.5600475 386.601600
    540    539    542     1   108.7700466 392.459200
    540    539    541     1   107.5800459 329.699200
    541    539    542     1   108.7700466 392.459200
    542    544    545     1   106.5500460 417.563200
    548    551    552     1   109.8000471 387.438400
    548    551    553     1   109.8000471 387.438400
    549    548    551     1   109.5600471 388.275200
    549    548    578     1   109.7800468 425.094400
    549    548    550     1   108.4600466 328.025600
    550    548    551     1   109.5600471 388.275200
    550    548    578     1   109.7800468 425.094400
    551    554    555     1   110.5600475 386.601600
    551    554    556     1   110.5600475 386.601600
    552    551    554     1   109.8000471 387.438400
    552    551    553     1   107.5800459 329.699200
    553    551    554     1   109.8000471 387.438400
    554    557    579     1   110.1100470 384.091200
    555    554    557     1   108.0100461 406.684800
    555    554    556     1   109.7500473 328.025600
    556    554    557     1   108.0100461 406.684800
    557    558    559     1   108.0100461 406.684800
    557    558    560     1   108.0100461 406.684800
    557    568    569     1   108.0100461 406.684800
    557    568    570     1   108.0100461 406.684800
    558    557    579     1   110.1100470 384.091200
    558    561    562     1   109.8000471 387.438400
    558    561    563     1   109.8000471 387.438400
    559    558    561     1   110.5600475 386.601600
    559    558    560     1   109.7500473 328.025600
    560    558    561     1   110.5600475 386.601600
    562    561    564     1   108.7700466 392.459200
    562    561    563     1   107.5800459 329.699200
    563    561    564     1   108.7700466 392.459200
    564    566    567     1   106.5500460 417.563200
    568    557    579     1   110.1100470 384.091200
    568    571    572     1   109.8000471 387.438400
    568    571    573     1   109.8000471 387.438400
    569    568    571     1   110.5600475 386.601600
    569    568    570     1   109.7500473 328.025600
    570    568    571     1   110.5600475 386.601600
    572    571    574     1   108.7700466 392.459200
    572    571    573     1   107.5800459 329.699200
    573    571    574     1   108.7700466 392.459200
    574    576    577     1   106.5500460 417.563200
    580    583    584     1   109.8000471 387.438400
    580    583    585     1   109.8000471 387.438400
    581    580    583     1   109.5600471 388.275200
    581    580    610     1   109.7800468 425.094400
    581    580    582     1   108.4600466 328.025600
    582    580    583     1   109.5600471 388.275200
    582    580    610     1   109.7800468 425.094400
    583    586    587     1   110.5600475 386.601600
    583    586    588     1   110.5600475 386.601600
    584    583    586     1   109.8000471 387.438400
    584    583    585     1   107.5800459 329.699200
    585    583    586     1   109.8000471 387.438400
    586    589    611     1   110.1100470 384.091200
    587    586    589     1   108.0100461 406.684800
    587    586    588     1   109.7500473 328.025600
    588    586    589     1   108.0100461 406.684800
    589    590    591     1   108.0100461 406.684800
    589    590    592     1   108.0100461 406.684800
    589    600    601     1   108.0100461 406.684800
    589    600    602     1   108.0100461 406.684800
    590    593    594     1   109.8000471 387.438400
    590    593    595     1   109.8000471 387.438400
    590    589    611     1   110.1100470 384.091200
    591    590    593     1   110.5600475 386.601600
    591    590    592     1   109.7500473 328.025600
    592    590    593     1   110.5600475 386.601600
    594    593    596     1   108.7700466 392.459200
    594    593    595     1   107.5800459 329.699200
    595    593    596     1   108.7700466 392.459200
    596    598    599     1   106.5500460 417.563200
    600    603    604     1   109.8000471 387.438400
    600    603    605     1   109.8000471 387.438400
    600    589    611     1   110.1100470 384.091200
    601    600    603     1   110.5600475 386.601600
    601    600    602     1   109.7500473 328.025600
    602    600    603     1   110.5600475 386.601600
    604    603    606     1   108.7700466 392.459200
    604    603    605     1   107.5800459 329.699200
    605    603    606     1   108.7700466 392.459200
    606    608    609     1   106.5500460 417.563200
    612    615    616     1   109.8000471 387.438400
    612    615    617     1   109.8000471 387.438400
    613    612    615     1   109.5600471 388.275200
    613    612    642     1   109.7800468 425.094400
    613    612    614     1   108.4600466 328.025600
    614    612    615     1   109.5600471 388.275200
    614    612    642     1   109.7800468 425.094400
    615    618    619     1   110.5600475 386.601600
    615    618    620     1   110.5600475 386.601600
    616    615    618     1   109.8000471 387.438400
    616    615    617     1   107.5800459 329.699200
    617    615    618     1   109.8000471 387.438400
    618    621    643     1   110.1100470 384.091200
    619    618    621     1   108.0100461 406.684800
    619    618    620     1   109.7500473 328.025600
    620    618    621     1   108.0100461 406.684800
    621    622    623     1   108.0100461 406.684800
    621    622    624     1   108.0100461 406.684800
    621    632    633     1   108.0100461 406.684800
    621    632    634     1   108.0100461 406.684800
    622    621    643     1   110.1100470 384.091200
    622    625    626     1   109.8000471 387.438400
    622    625    627     1   109.8000471 387.438400
    623    622    625     1   110.5600475 386.601600
    623    622    624     1   109.7500473 328.025600
    624    622    625     1   110.5600475 386.601600
    626    625    628     1   108.7700466 392.459200
    626    625    627     1   107.5800459 329.699200
    627    625    628     1   108.7700466 392.459200
    628    630    631     1   106.5500460 417.563200
    632    621    643     1   110.1100470 384.091200
    632    635    636     1   109.8000471 387.438400
    632    635    637     1   109.8000471 387.438400
    633    632    635     1   110.5600475 386.601600
    633    632    634     1   109.7500473 328.025600
    634    632    635     1   110.5600475 386.601600
    636    635    638     1   108.7700466 392.459200
    636    635    637     1   107.5800459 329.699200
    637    635    638     1   108.7700466 392.459200
    638    640    641     1   106.5500460 417.563200
    644    647    648     1   109.8000471 387.438400
    644    647    649     1   109.8000471 387.438400
    645    644    647     1   109.5600471 388.275200
    645    644    674     1   109.7800468 425.094400
    645    644    646     1   108.4600466 328.025600
    646    644    647     1   109.5600471 388.275200
    646    644    674     1   109.7800468 425.094400
    647    650    651     1   110.5600475 386.601600
    647    650    652     1   110.5600475 386.601600
    648    647    650     1   109.8000471 387.438400
    648    647    649     1   107.5800459 329.699200
    649    647    650     1   109.8000471 387.438400
    650    653    675     1   110.1100470 384.091200
    651    650    653     1   108.0100461 406.684800
    651    650    652     1   109.7500473 328.025600
    652    650    653     1   108.0100461 406.684800
    653    654    655     1   108.0100461 406.684800
    653    654    656     1   108.0100461 406.684800
    653    664    665     1   108.0100461 406.684800
    653    664    666     1   108.0100461 406.684800
    654    657    658     1   109.8000471 387.438400
    654    657    659     1   109.8000471 387.438400
    654    653    675     1   110.1100470 384.091200
    655    654    657     1   110.5600475 386.601600
    655    654    656     1   109.7500473 328.025600
    656    654    657     1   110.5600475 386.601600
    658    657    660     1   108.7700466 392.459200
    658    657    659     1   107.5800459 329.699200
    659    657    660     1   108.7700466 392.459200
    660    662    663     1   106.5500460 417.563200
    664    667    668     1   109.8000471 387.438400
    664    667    669     1   109.8000471 387.438400
    664    653    675     1   110.1100470 384.091200
    665    664    667     1   110.5600475 386.601600
    665    664    666     1   109.7500473 328.025600
    666    664    667     1   110.5600475 386.601600
    668    667    670     1   108.7700466 392.459200
    668    667    669     1   107.5800459 329.699200
    669    667    670     1   108.7700466 392.459200
    670    672    673     1   106.5500460 417.563200
    676    679    680     1   109.8000471 387.438400
    676    679    681     1   109.8000471 387.438400
    677    676    679     1   109.5600471 388.275200
    677    676    706     1   109.7800468 425.094400
    677    676    678     1   108.4600466 328.025600
    678    676    679     1   109.5600471 388.275200
    678    676    706     1   109.7800468 425.094400
    679    682    683     1   110.5600475 386.601600
    679    682    684     1   110.5600475 386.601600
    680    679    682     1   109.8000471 387.438400
    680    679    681     1   107.5800459 329.699200
    681    679    682     1   109.8000471 387.438400
    682    685    707     1   110.1100470 384.091200
    683    682    685     1   108.0100461 406.684800
    683    682    684     1   109.7500473 328.025600
    684    682    685     1   108.0100461 406.684800
    685    686    687     1   108.0100461 406.684800
    685    686    688     1   108.0100461 406.684800
    685    696    697     1   108.0100461 406.684800
    685    696    698     1   108.0100461 406.684800
    686    685    707     1   110.1100470 384.091200
    686    689    690     1   109.8000471 387.438400
    686    689    691     1   109.8000471 387.438400
    687    686    689     1   110.5600475 386.601600
    687    686    688     1   109.7500473 328.025600
    688    686    689     1   110.5600475 386.601600
    690    689    692     1   108.7700466 392.459200
    690    689    691     1   107.5800459 329.699200
    691    689    692     1   108.7700466 392.459200
    692    694    695     1   106.5500460 417.563200
    696    685    707     1   110.1100470 384.091200
    696    699    700     1   109.8000471 387.438400
    696    699    701     1   109.8000471 387.438400
    697    696    699     1   110.5600475 386.601600
    697    696    698     1   109.7500473 328.025600
    698    696    699     1   110.5600475 386.601600
    700    699    702     1   108.7700466 392.459200
    700    699    701     1   107.5800459 329.699200
    701    699    702     1   108.7700466 392.459200
    702    704    705     1   106.5500460 417.563200
    708    711    712     1   109.8000471 387.438400
    708    711    713     1   109.8000471 387.438400
    709    708    711     1   109.5600471 388.275200
    709    708    738     1   109.7800468 425.094400
    709    708    710     1   108.4600466 328.025600
    710    708    711     1   109.5600471 388.275200
    710    708    738     1   109.7800468 425.094400
    711    714    715     1   110.5600475 386.601600
    711    714    716     1   110.5600475 386.601600
    712    711    714     1   109.8000471 387.438400
    712    711    713     1   107.5800459 329.699200
    713    711    714     1   109.8000471 387.438400
    714    717    739     1   110.1100470 384.091200
    715    714    717     1   108.0100461 406.684800
    715    714    716     1   109.7500473 328.025600
    716    714    717     1   108.0100461 406.684800
    717    718    719     1   108.0100461 406.684800
    717    718    720     1   108.0100461 406.684800
    717    728    729     1   108.0100461 406.684800
    717    728    730     1   108.0100461 406.684800
    718    721    722     1   109.8000471 387.438400
    718    721    723     1   109.8000471 387.438400
    718    717    739     1   110.1100470 384.091200
    719    718    721     1   110.5600475 386.601600
    719    718    720     1   109.7500473 328.025600
    720    718    721     1   110.5600475 386.601600
    722    721    724     1   108.7700466 392.459200
    722    721    723     1   107.5800459 329.699200
    723    721    724     1   108.7700466 392.459200
    724    726    727     1   106.5500460 417.563200
    728    731    732     1   109.8000471 387.438400
    728    731    733     1   109.8000471 387.438400
    728    717    739     1   110.1100470 384.091200
    729    728    731     1   110.5600475 386.601600
    729    728    730     1   109.7500473 328.025600
    730    728    731     1   110.5600475 386.601600
    732    731    734     1   108.7700466 392.459200
    732    731    733     1   107.5800459 329.699200
    733    731    734     1   108.7700466 392.459200
    734    736    737     1   106.5500460 417.563200
    740    743    744     1   109.8000471 387.438400
    740    743    745     1   109.8000471 387.438400
    741    740    743     1   109.5600471 388.275200
    741    740    770     1   109.7800468 425.094400
    741    740    742     1   108.4600466 328.025600
    742    740    743     1   109.5600471 388.275200
    742    740    770     1   109.7800468 425.094400
    743    746    747     1   110.5600475 386.601600
    743    746    748     1   110.5600475 386.601600
    744    743    746     1   109.8000471 387.438400
    744    743    745     1   107.5800459 329.699200
    745    743    746     1   109.8000471 387.438400
    746    749    771     1   110.1100470 384.091200
    747    746    749     1   108.0100461 406.684800
    747    746    748     1   109.7500473 328.025600
    748    746    749     1   108.0100461 406.684800
    749    750    751     1   108.0100461 406.684800
    749    750    752     1   108.0100461 406.684800
    749    760    761     1   108.0100461 406.684800
    749    760    762     1   108.0100461 406.684800
    750    749    771     1   110.1100470 384.091200
    750    753    754     1   109.8000471 387.438400
    750    753    755     1   109.8000471 387.438400
    751    750    753     1   110.5600475 386.601600
    751    750    752     1   109.7500473 328.025600
    752    750    753     1   110.5600475 386.601600
    754    753    756     1   108.7700466 392.459200
    754    753    755     1   107.5800459 329.699200
    755    753    756     1   108.7700466 392.459200
    756    758    759     1   106.5500460 417.563200
    760    749    771     1   110.1100470 384.091200
    760    763    764     1   109.8000471 387.438400
    760    763    765     1   109.8000471 387.438400
    761    760    763     1   110.5600475 386.601600
    761    760    762     1   109.7500473 328.025600
    762    760    763     1   110.5600475 386.601600
    764    763    766     1   108.7700466 392.459200
    764    763    765     1   107.5800459 329.699200
    765    763    766     1   108.7700466 392.459200
    766    768    769     1   106.5500460 417.563200
    772    775    776     1   109.8000471 387.438400
    772    775    777     1   109.8000471 387.438400
    773    772    775     1   109.5600471 388.275200
    773    772    802     1   109.7800468 425.094400
    773    772    774     1   108.4600466 328.025600
    774    772    775     1   109.5600471 388.275200
    774    772    802     1   109.7800468 425.094400
    775    778    779     1   110.5600475 386.601600
    775    778    780     1   110.5600475 386.601600
    776    775    778     1   109.8000471 387.438400
    776    775    777     1   107.5800459 329.699200
    777    775    778     1   109.8000471 387.438400
    778    781    803     1   110.1100470 384.091200
    779    778    781     1   108.0100461 406.684800
    779    778    780     1   109.7500473 328.025600
    780    778    781     1   108.0100461 406.684800
    781    782    783     1   108.0100461 406.684800
    781    782    784     1   108.0100461 406.684800
    781    792    793     1   108.0100461 406.684800
    781    792    794     1   108.0100461 406.684800
    782    785    786     1   109.8000471 387.438400
    782    785    787     1   109.8000471 387.438400
    782    781    803     1   110.1100470 384.091200
    783    782    785     1   110.5600475 386.601600
    783    782    784     1   109.7500473 328.025600
    784    782    785     1   110.5600475 386.601600
    786    785    788     1   108.7700466 392.459200
    786    785    787     1   107.5800459 329.699200
    787    785    788     1   108.7700466 392.459200
    788    790    791     1   106.5500460 417.563200
    792    795    796     1   109.8000471 387.438400
    792    795    797     1   109.8000471 387.438400
    792    781    803     1   110.1100470 384.091200
    793    792    795     1   110.5600475 386.601600
    793    792    794     1   109.7500473 328.025600
    794    792    795     1   110.5600475 386.601600
    796    795    798     1   108.7700466 392.459200
    796    795    797     1   107.5800459 329.699200
    797    795    798     1   108.7700466 392.459200
    798    800    801     1   106.5500460 417.563200
    804    807    808     1   109.8000471 387.438400
    804    807    809     1   109.8000471 387.438400
    805    804    807     1   109.5600471 388.275200
    805    804    834     1   109.7800468 425.094400
    805    804    806     1   108.4600466 328.025600
    806    804    807     1   109.5600471 388.275200
    806    804    834     1   109.7800468 425.094400
    807    810    811     1   110.5600475 386.601600
    807    810    812     1   110.5600475 386.601600
    808    807    810     1   109.8000471 387.438400
    808    807    809     1   107.5800459 329.699200
    809    807    810     1   109.8000471 387.438400
    810    813    835     1   110.1100470 384.091200
    811    810    813     1   108.0100461 406.684800
    811    810    812     1   109.7500473 328.025600
    812    810    813     1   108.0100461 406.684800
    813    814    815     1   108.0100461 406.684800
    813    814    816     1   108.0100461 406.684800
    813    824    825     1   108.0100461 406.684800
    813    824    826     1   108.0100461 406.684800
    814    813    835     1   110.1100470 384.091200
    814    817    818     1   109.8000471 387.438400
    814    817    819     1   109.8000471 387.438400
    815    814    817     1   110.5600475 386.601600
    815    814    816     1   109.7500473 328.025600
    816    814    817     1   110.5600475 386.601600
    818    817    820     1   108.7700466 392.459200
    818    817    819     1   107.5800459 329.699200
    819    817    820     1   108.7700466 392.459200
    820    822    823     1   106.5500460 417.563200
    824    813    835     1   110.1100470 384.091200
    824    827    828     1   109.8000471 387.438400
    824    827    829     1   109.8000471 387.438400
    825    824    827     1   110.5600475 386.601600
    825    824    826     1   109.7500473 328.025600
    826    824    827     1   110.5600475 386.601600
    828    827    830     1   108.7700466 392.459200
    828    827    829     1   107.5800459 329.699200
    829    827    830     1   108.7700466 392.459200
    830    832    833     1   106.5500460 417.563200
    836    839    840     1   109.8000471 387.438400
    836    839    841     1   109.8000471 387.438400
    837    836    839     1   109.5600471 388.275200
    837    836    866     1   109.7800468 425.094400
    837    836    838     1   108.4600466 328.025600
    838    836    839     1   109.5600471 388.275200
    838    836    866     1   109.7800468 425.094400
    839    842    843     1   110.5600475 386.601600
    839    842    844     1   110.5600475 386.601600
    840    839    842     1   109.8000471 387.438400
    840    839    841     1   107.5800459 329.699200
    841    839    842     1   109.8000471 387.438400
    842    845    867     1   110.1100470 384.091200
    843    842    845     1   108.0100461 406.684800
    843    842    844     1   109.7500473 328.025600
    844    842    845     1   108.0100461 406.684800
    845    846    847     1   108.0100461 406.684800
    845    846    848     1   108.0100461 406.684800
    845    856    857     1   108.0100461 406.684800
    845    856    858     1   108.0100461 406.684800
    846    849    850     1   109.8000471 387.438400
    846    849    851     1   109.8000471 387.438400
    846    845    867     1   110.1100470 384.091200
    847    846    849     1   110.5600475 386.601600
    847    846    848     1   109.7500473 328.025600
    848    846    849     1   110.5600475 386.601600
    850    849    852     1   108.7700466 392.459200
    850    849    851     1   107.5800459 329.699200
    851    849    852     1   108.7700466 392.459200
    852    854    855     1   106.5500460 417.563200
    856    859    860     1   109.8000471 387.438400
    856    859    861     1   109.8000471 387.438400
    856    845    867     1   110.1100470 384.091200
    857    856    859     1   110.5600475 386.601600
    857    856    858     1   109.7500473 328.025600
    858    856    859     1   110.5600475 386.601600
    860    859    862     1   108.7700466 392.459200
    860    859    861     1   107.5800459 329.699200
    861    859    862     1   108.7700466 392.459200
    862    864    865     1   106.5500460 417.563200
    868    871    872     1   109.8000471 387.438400
    868    871    873     1   109.8000471 387.438400
    869    868    871     1   109.5600471 388.275200
    869    868    898     1   109.7800468 425.094400
    869    868    870     1   108.4600466 328.025600
    870    868    871     1   109.5600471 388.275200
    870    868    898     1   109.7800468 425.094400
    871    874    875     1   110.5600475 386.601600
    871    874    876     1   110.5600475 386.601600
    872    871    874     1   109.8000471 387.438400
    872    871    873     1   107.5800459 329.699200
    873    871    874     1   109.8000471 387.438400
    874    877    899     1   110.1100470 384.091200
    875    874    877     1   108.0100461 406.684800
    875    874    876     1   109.7500473 328.025600
    876    874    877     1   108.0100461 406.684800
    877    878    879     1   108.0100461 406.684800
    877    878    880     1   108.0100461 406.684800
    877    888    889     1   108.0100461 406.684800
    877    888    890     1   108.0100461 406.684800
    878    877    899     1   110.1100470 384.091200
    878    881    882     1   109.8000471 387.438400
    878    881    883     1   109.8000471 387.438400
    879    878    881     1   110.5600475 386.601600
    879    878    880     1   109.7500473 328.025600
    880    878    881     1   110.5600475 386.601600
    882    881    884     1   108.7700466 392.459200
    882    881    883     1   107.5800459 329.699200
    883    881    884     1   108.7700466 392.459200
    884    886    887     1   106.5500460 417.563200
    888    877    899     1   110.1100470 384.091200
    888    891    892     1   109.8000471 387.438400
    888    891    893     1   109.8000471 387.438400
    889    888    891     1   110.5600475 386.601600
    889    888    890     1   109.7500473 328.025600
    890    888    891     1   110.5600475 386.601600
    892    891    894     1   108.7700466 392.459200
    892    891    893     1   107.5800459 329.699200
    893    891    894     1   108.7700466 392.459200
    894    896    897     1   106.5500460 417.563200
    900    903    904     1   109.8000471 387.438400
    900    903    905     1   109.8000471 387.438400
    901    900    903     1   109.5600471 388.275200
    901    900    930     1   109.7800468 425.094400
    901    900    902     1   108.4600466 328.025600
    902    900    903     1   109.5600471 388.275200
    902    900    930     1   109.7800468 425.094400
    903    906    907     1   110.5600475 386.601600
    903    906    908     1   110.5600475 386.601600
    904    903    906     1   109.8000471 387.438400
    904    903    905     1   107.5800459 329.699200
    905    903    906     1   109.8000471 387.438400
    906    909    931     1   110.1100470 384.091200
    907    906    909     1   108.0100461 406.684800
    907    906    908     1   109.7500473 328.025600
    908    906    909     1   108.0100461 406.684800
    909    910    911     1   108.0100461 406.684800
    909    910    912     1   108.0100461 406.684800
    909    920    921     1   108.0100461 406.684800
    909    920    922     1   108.0100461 406.684800
    910    913    914     1   109.8000471 387.438400
    910    913    915     1   109.8000471 387.438400
    910    909    931     1   110.1100470 384.091200
    911    910    913     1   110.5600475 386.601600
    911    910    912     1   109.7500473 328.025600
    912    910    913     1   110.5600475 386.601600
    914    913    916     1   108.7700466 392.459200
    914    913    915     1   107.5800459 329.699200
    915    913    916     1   108.7700466 392.459200
    916    918    919     1   106.5500460 417.563200
    920    923    924     1   109.8000471 387.438400
    920    923    925     1   109.8000471 387.438400
    920    909    931     1   110.1100470 384.091200
    921    920    923     1   110.5600475 386.601600
    921    920    922     1   109.7500473 328.025600
    922    920    923     1   110.5600475 386.601600
    924    923    926     1   108.7700466 392.459200
    924    923    925     1   107.5800459 329.699200
    925    923    926     1   108.7700466 392.459200
    926    928    929     1   106.5500460 417.563200

[ dihedrals ]
;    ai     aj     ak     al funct         c0         c1         c2         c3         c4         c5
      1      2      8     14     1  0.0000000  0.6508444  3
      1      5     11     17     1  0.0000000  0.6508444  3
      2      1      5     11     1  180.0000771  0.4184000  2
      2      1      5     11     1  0.0000000  1.6024720  3
      2      8     14     20     1  0.0000000  0.6508444  3
      5      1      2      8     1  180.0000771  0.4184000  2
      5      1      2      8     1  0.0000000  1.6024720  3
      5     11     17     21     1  0.0000000  0.6508444  3
      8     14     20     28     1  0.0000000  0.6508444  3
      8     14     20     31     1  0.0000000  0.6508444  3
     11     17     21     22     1  0.0000000  0.6508444  3
     11     17     21     25     1  0.0000000  0.6508444  3
     14     20     28     40     1  0.0000000  0.6508444  3
     14     20     31     43     1  0.0000000  0.6508444  3
     17     21     22     34     1  0.0000000  0.6508444  3
     17     21     25     37     1  0.0000000  0.6508444  3
     20     28     40     49     1  0.0000000  0.6508444  3
     20     31     43     46     1  0.0000000  0.6508444  3
     21     22     34     55     1  0.0000000  0.6508444  3
     21     25     37     52     1  0.0000000  0.6508444  3
     22     21     25     37     1  0.0000000  0.6508444  3
     22     34     55    178     1  0.0000000  0.6508444  3
     25     21     22     34     1  0.0000000  0.6508444  3
     25     37     52    148     1  0.0000000  0.6508444  3
     28     20     31     43     1  0.0000000  0.6508444  3
     28     40     49    118     1  0.0000000  0.6508444  3
     31     20     28     40     1  0.0000000  0.6508444  3
     31     43     46     88     1  0.0000000  0.6508444  3
     34     55    178    169     1  180.0000771  0.4184000  2
     34     55    178    169     1  0.0000000  1.6024720  3
     37     52    148    139     1  180.0000771  0.4184000  2
     37     52    148    139     1  0.0000000  1.6024720  3
     40     49    118    109     1  180.0000771  0.4184000  2
     40     49    118    109     1  0.0000000  1.6024720  3
     43     46     88     79     1  180.0000771  0.4184000  2
     43     46     88     79     1  0.0000000  1.6024720  3
     46     88     79     70     1  180.0000771  0.4184000  2
     46     88     79     70     1  0.0000000  1.6024720  3
     49    118    109    100     1  180.0000771  0.4184000  2
     49    118    109    100     1  0.0000000  1.6024720  3
     52    148    139    130     1  180.0000771  0.4184000  2
     52    148    139    130     1  0.0000000  1.6024720  3
     55    178    169    160     1  180.0000771  0.4184000  2
     55    178    169    160     1  0.0000000  1.6024720  3
     60     61     73     85     1  0.0000000  0.6508444  3
     60     64     76     82     1  0.0000000  0.6508444  3
     60     67     70     79     1  0.0000000  0.6508444  3
     61     60     64     76     1  0.0000000  0.6508444  3
     61     60     67     70     1  0.0000000  0.6508444  3
     61     73     85    238     1  0.0000000  0.6508444  3
     64     60     61     73     1  0.0000000  0.6508444  3
     64     60     67     70     1  0.0000000  0.6508444  3
     64     76     82    208     1  0.0000000  0.6508444  3
     67     60     61     73     1  0.0000000  0.6508444  3
     67     60     64     76     1  0.0000000  0.6508444  3
     67     70     79     88     1  0.0000000  0.6508444  3
     73     85    238    229     1  180.0000771  0.4184000  2
     73     85    238    229     1  0.0000000  1.6024720  3
     76     82    208    199     1  180.0000771  0.4184000  2
     76     82    208    199     1  0.0000000  1.6024720  3
     82    208    199    190     1  180.0000771  0.4184000  2
     82    208    199    190     1  0.0000000  1.6024720  3
     85    238    229    220     1  180.0000771  0.4184000  2
     85    238    229    220     1  0.0000000  1.6024720  3
     90     91    103    115     1  0.0000000  0.6508444  3
     90     94    106    112     1  0.0000000  0.6508444  3
     90     97    100    109     1  0.0000000  0.6508444  3
     91     90     94    106     1  0.0000000  0.6508444  3
     91     90     97    100     1  0.0000000  0.6508444  3
     91    103    115    298     1  0.0000000  0.6508444  3
     94     90     91    103     1  0.0000000  0.6508444  3
     94     90     97    100     1  0.0000000  0.6508444  3
     94    106    112    268     1  0.0000000  0.6508444  3
     97     90     91    103     1  0.0000000  0.6508444  3
     97     90     94    106     1  0.0000000  0.6508444  3
     97    100    109    118     1  0.0000000  0.6508444  3
    103    115    298    289     1  180.0000771  0.4184000  2
    103    115    298    289     1  0.0000000  1.6024720  3
    106    112    268    259     1  180.0000771  0.4184000  2
    106    112    268    259     1  0.0000000  1.6024720  3
    112    268    259    250     1  180.0000771  0.4184000  2
    112    268    259    250     1  0.0000000  1.6024720  3
    115    298    289    280     1  180.0000771  0.4184000  2
    115    298    289    280     1  0.0000000  1.6024720  3
    120    121    133    145     1  0.0000000  0.6508444  3
    120    124    136    142     1  0.0000000  0.6508444  3
    120    127    130    139     1  0.0000000  0.6508444  3
    121    120    124    136     1  0.0000000  0.6508444  3
    121    120    127    130     1  0.0000000  0.6508444  3
    121    133    145    358     1  0.0000000  0.6508444  3
    124    120    121    133     1  0.0000000  0.6508444  3
    124    120    127    130     1  0.0000000  0.6508444  3
    124    136    142    328     1  0.0000000  0.6508444  3
    127    120    121    133     1  0.0000000  0.6508444  3
    127    120    124    136     1  0.0000000  0.6508444  3
    127    130    139    148     1  0.0000000  0.6508444  3
    133    145    358    349     1  180.0000771  0.4184000  2
    133    145    358    349     1  0.0000000  1.6024720  3
    136    142    328    319     1  180.0000771  0.4184000  2
    136    142    328    319     1  0.0000000  1.6024720  3
    142    328    319    310     1  180.0000771  0.4184000  2
    142    328    319    310     1  0.0000000  1.6024720  3
    145    358    349    340     1  180.0000771  0.4184000  2
    145    358    349    340     1  0.0000000  1.6024720  3
    150    151    163    175     1  0.0000000  0.6508444  3
    150    154    166    172     1  0.0000000  0.6508444  3
    150    157    160    169     1  0.0000000  0.6508444  3
    151    150    154    166     1  0.0000000  0.6508444  3
    151    150    157    160     1  0.0000000  0.6508444  3
    151    163    175    418     1  0.0000000  0.6508444  3
    154    150    151    163     1  0.0000000  0.6508444  3
    154    150    157    160     1  0.0000000  0.6508444  3
    154    166    172    388     1  0.0000000  0.6508444  3
    157    150    151    163     1  0.0000000  0.6508444  3
    157    150    154    166     1  0.0000000  0.6508444  3
    157    160    169    178     1  0.0000000  0.6508444  3
    163    175    418    409     1  180.0000771  0.4184000  2
    163    175    418    409     1  0.0000000  1.6024720  3
    166    172    388    379     1  180.0000771  0.4184000  2
    166    172    388    379     1  0.0000000  1.6024720  3
    172    388    379    370     1  180.0000771  0.4184000  2
    172    388    379    370     1  0.0000000  1.6024720  3
    175    418    409    400     1  180.0000771  0.4184000  2
    175    418    409    400     1  0.0000000  1.6024720  3
    180    181    193    205     1  0.0000000  0.6508444  3
    180    184    196    202     1  0.0000000  0.6508444  3
    180    187    190    199     1  0.0000000  0.6508444  3
    181    180    184    196     1  0.0000000  0.6508444  3
    181    180    187    190     1  0.0000000  0.6508444  3
    181    193    205    482     1  0.0000000  0.6508444  3
    184    180    181    193     1  0.0000000  0.6508444  3
    184    180    187    190     1  0.0000000  0.6508444  3
    184    196    202    450     1  0.0000000  0.6508444  3
    187    180    181    193     1  0.0000000  0.6508444  3
    187    180    184    196     1  0.0000000  0.6508444  3
    187    190    199    208     1  0.0000000  0.6508444  3
    193    205    482    452     1  180.0000771  0.4184000  2
    193    205    482    452     1  0.0000000  1.6024720  3
    196    202    450    420     1  180.0000771  0.4184000  2
    196    202    450    420     1  0.0000000  1.6024720  3
    202    450    420    423     1  180.0000771  0.4184000  2
    202    450    420    423     1  0.0000000  1.6024720  3
    205    482    452    455     1  180.0000771  0.4184000  2
    205    482    452    455     1  0.0000000  1.6024720  3
    210    211    223    235     1  0.0000000  0.6508444  3
    210    214    226    232     1  0.0000000  0.6508444  3
    210    217    220    229     1  0.0000000  0.6508444  3
    211    210    214    226     1  0.0000000  0.6508444  3
    211    210    217    220     1  0.0000000  0.6508444  3
    211    223    235    546     1  0.0000000  0.6508444  3
    214    210    211    223     1  0.0000000  0.6508444  3
    214    210    217    220     1  0.0000000  0.6508444  3
    214    226    232    514     1  0.0000000  0.6508444  3
    217    210    211    223     1  0.0000000  0.6508444  3
    217    210    214    226     1  0.0000000  0.6508444  3
    217    220    229    238     1  0.0000000  0.6508444  3
    223    235    546    516     1  180.0000771  0.4184000  2
    223    235    546    516     1  0.0000000  1.6024720  3
    226    232    514    484     1  180.0000771  0.4184000  2
    226    232    514    484     1  0.0000000  1.6024720  3
    232    514    484    487     1  180.0000771  0.4184000  2
    232    514    484    487     1  0.0000000  1.6024720  3
    235    546    516    519     1  180.0000771  0.4184000  2
    235    546    516    519     1  0.0000000  1.6024720  3
    240    241    253    265     1  0.0000000  0.6508444  3
    240    244    256    262     1  0.0000000  0.6508444  3
    240    247    250    259     1  0.0000000  0.6508444  3
    241    240    244    256     1  0.0000000  0.6508444  3
    241    240    247    250     1  0.0000000  0.6508444  3
    241    253    265    610     1  0.0000000  0.6508444  3
    244    240    241    253     1  0.0000000  0.6508444  3
    244    240    247    250     1  0.0000000  0.6508444  3
    244    256    262    578     1  0.0000000  0.6508444  3
    247    240    241    253     1  0.0000000  0.6508444  3
    247    240    244    256     1  0.0000000  0.6508444  3
    247    250    259    268     1  0.0000000  0.6508444  3
    253    265    610    580     1  180.0000771  0.4184000  2
    253    265    610    580     1  0.0000000  1.6024720  3
    256    262    578    548     1  180.0000771  0.4184000  2
    256    262    578    548     1  0.0000000  1.6024720  3
    262    578    548    551     1  180.0000771  0.4184000  2
    262    578    548    551     1  0.0000000  1.6024720  3
    265    610    580    583     1  180.0000771  0.4184000  2
    265    610    580    583     1  0.0000000  1.6024720  3
    270    271    283    295     1  0.0000000  0.6508444  3
    270    274    286    292     1  0.0000000  0.6508444  3
    270    277    280    289     1  0.0000000  0.6508444  3
    271    270    274    286     1  0.0000000  0.6508444  3
    271    270    277    280     1  0.0000000  0.6508444  3
    271    283    295    674     1  0.0000000  0.6508444  3
    274    270    271    283     1  0.0000000  0.6508444  3
    274    270    277    280     1  0.0000000  0.6508444  3
    274    286    292    642     1  0.0000000  0.6508444  3
    277    270    271    283     1  0.0000000  0.6508444  3
    277    270    274    286     1  0.0000000  0.6508444  3
    277    280    289    298     1  0.0000000  0.6508444  3
    283    295    674    644     1  180.0000771  0.4184000  2
    283    295    674    644     1  0.0000000  1.6024720  3
    286    292    642    612     1  180.0000771  0.4184000  2
    286    292    642    612     1  0.0000000  1.6024720  3
    292    642    612    615     1  180.0000771  0.4184000  2
    292    642    612    615     1  0.0000000  1.6024720  3
    295    674    644    647     1  180.0000771  0.4184000  2
    295    674    644    647     1  0.0000000  1.6024720  3
    300    301    313    325     1  0.0000000  0.6508444  3
    300    304    316    322     1  0.0000000  0.6508444  3
    300    307    310    319     1  0.0000000  0.6508444  3
    301    300    304    316     1  0.0000000  0.6508444  3
    301    300    307    310     1  0.0000000  0.6508444  3
    301    313    325    738     1  0.0000000  0.6508444  3
    304    300    301    313     1  0.0000000  0.6508444  3
    304    300    307    310     1  0.0000000  0.6508444  3
    304    316    322    706     1  0.0000000  0.6508444  3
    307    300    301    313     1  0.0000000  0.6508444  3
    307    300    304    316     1  0.0000000  0.6508444  3
    307    310    319    328     1  0.0000000  0.6508444  3
    313    325    738    708     1  180.0000771  0.4184000  2
    313    325    738    708     1  0.0000000  1.6024720  3
    316    322    706    676     1  180.0000771  0.4184000  2
    316    322    706    676     1  0.0000000  1.6024720  3
    322    706    676    679     1  180.0000771  0.4184000  2
    322    706    676    679     1  0.0000000  1.6024720  3
    325    738    708    711     1  180.0000771  0.4184000  2
    325    738    708    711     1  0.0000000  1.6024720  3
    330    331    343    355     1  0.0000000  0.6508444  3
    330    334    346    352     1  0.0000000  0.6508444  3
    330    337    340    349     1  0.0000000  0.6508444  3
    331    330    334    346     1  0.0000000  0.6508444  3
    331    330    337    340     1  0.0000000  0.6508444  3
    331    343    355    802     1  0.0000000  0.6508444  3
    334    330    331    343     1  0.0000000  0.6508444  3
    334    330    337    340     1  0.0000000  0.6508444  3
    334    346    352    770     1  0.0000000  0.6508444  3
    337    330    331    343     1  0.0000000  0.6508444  3
    337    330    334    346     1  0.0000000  0.6508444  3
    337    340    349    358     1  0.0000000  0.6508444  3
    343    355    802    772     1  180.0000771  0.4184000  2
    343    355    802    772     1  0.0000000  1.6024720  3
    346    352    770    740     1  180.0000771  0.4184000  2
    346    352    770    740     1  0.0000000  1.6024720  3
    352    770    740    743     1  180.0000771  0.4184000  2
    352    770    740    743     1  0.0000000  1.6024720  3
    355    802    772    775     1  180.0000771  0.4184000  2
    355    802    772    775     1  0.0000000  1.6024720  3
    360    361    373    385     1  0.0000000  0.6508444  3
    360    364    376    382     1  0.0000000  0.6508444  3
    360    367    370    379     1  0.0000000  0.6508444  3
    361    360    364    376     1  0.0000000  0.6508444  3
    361    360    367    370     1  0.0000000  0.6508444  3
    361    373    385    866     1  0.0000000  0.6508444  3
    364    360    361    373     1  0.0000000  0.6508444  3
    364    360    367    370     1  0.0000000  0.6508444  3
    364    376    382    834     1  0.0000000  0.6508444  3
    367    360    361    373     1  0.0000000  0.6508444  3
    367    360    364    376     1  0.0000000  0.6508444  3
    367    370    379    388     1  0.0000000  0.6508444  3
    373    385    866    836     1  180.0000771  0.4184000  2
    373    385    866    836     1  0.0000000  1.6024720  3
    376    382    834    804     1  180.0000771  0.4184000  2
    376    382    834    804     1  0.0000000  1.6024720  3
    382    834    804    807     1  180.0000771  0.4184000  2
    382    834    804    807     1  0.0000000  1.6024720  3
    385    866    836    839     1  180.0000771  0.4184000  2
    385    866    836    839     1  0.0000000  1.6024720  3
    390    391    403    415     1  0.0000000  0.6508444  3
    390    394    406    412     1  0.0000000  0.6508444  3
    390    397    400    409     1  0.0000000  0.6508444  3
    391    390    394    406     1  0.0000000  0.6508444  3
    391    390    397    400     1  0.0000000  0.6508444  3
    391    403    415    930     1  0.0000000  0.6508444  3
    394    390    391    403     1  0.0000000  0.6508444  3
    394    390    397    400     1  0.0000000  0.6508444  3
    394    406    412    898     1  0.0000000  0.6508444  3
    397    390    391    403     1  0.0000000  0.6508444  3
    397    390    394    406     1  0.0000000  0.6508444  3
    397    400    409    418     1  0.0000000  0.6508444  3
    403    415    930    900     1  180.0000771  0.4184000  2
    403    415    930    900     1  0.0000000  1.6024720  3
    406    412    898    868     1  180.0000771  0.4184000  2
    406    412    898    868     1  0.0000000  1.6024720  3
    412    898    868    871     1  180.0000771  0.4184000  2
    412    898    868    871     1  0.0000000  1.6024720  3
    415    930    900    903     1  180.0000771  0.4184000  2
    415    930    900    903     1  0.0000000  1.6024720  3
    420    423    426    429     1  0.0000000  0.6508444  3
    423    426    429    430     1  0.0000000  0.6508444  3
    423    426    429    440     1  0.0000000  0.6508444  3
    426    423    420    450     1  0.0000000  0.6508444  3
    426    429    430    433     1  0.0000000  0.6508444  3
    426    429    440    443     1  0.0000000  0.6508444  3
    429    430    433    436     1  0.0000000  0.6508444  3
    429    440    443    446     1  0.0000000  0.6508444  3
    430    429    440    443     1  0.0000000  0.6508444  3
    430    433    436    437     1  180.0000771  0.0000000  2
    430    433    436    438     1  180.0000771  0.0000000  2
    433    430    429    440     1  0.0000000  0.6508444  3
    440    443    446    447     1  180.0000771  0.0000000  2
    440    443    446    448     1  180.0000771  0.0000000  2
    452    455    458    461     1  0.0000000  0.6508444  3
    455    458    461    462     1  0.0000000  0.6508444  3
    455    458    461    472     1  0.0000000  0.6508444  3
    458    461    462    465     1  0.0000000  0.6508444  3
    458    461    472    475     1  0.0000000  0.6508444  3
    458    455    452    482     1  0.0000000  0.6508444  3
    461    462    465    468     1  0.0000000  0.6508444  3
    461    472    475    478     1  0.0000000  0.6508444  3
    462    465    468    469     1  180.0000771  0.0000000  2
    462    465    468    470     1  180.0000771  0.0000000  2
    462    461    472    475     1  0.0000000  0.6508444  3
    465    462    461    472     1  0.0000000  0.6508444  3
    472    475    478    479     1  180.0000771  0.0000000  2
    472    475    478    480     1  180.0000771  0.0000000  2
    484    487    490    493     1  0.0000000  0.6508444  3
    487    490    493    494     1  0.0000000  0.6508444  3
    487    490    493    504     1  0.0000000  0.6508444  3
    490    487    484    514     1  0.0000000  0.6508444  3
    490    493    494    497     1  0.0000000  0.6508444  3
    490    493    504    507     1  0.0000000  0.6508444  3
    493    494    497    500     1  0.0000000  0.6508444  3
    493    504    507    510     1  0.0000000  0.6508444  3
    494    493    504    507     1  0.0000000  0.6508444  3
    494    497    500    501     1  180.0000771  0.0000000  2
    494    497    500    502     1  180.0000771  0.0000000  2
    497    494    493    504     1  0.0000000  0.6508444  3
    504    507    510    511     1  180.0000771  0.0000000  2
    504    507    510    512     1  180.0000771  0.0000000  2
    516    519    522    525     1  0.0000000  0.6508444  3
    519    522    525    526     1  0.0000000  0.6508444  3
    519    522    525    536     1  0.0000000  0.6508444  3
    522    525    526    529     1  0.0000000  0.6508444  3
    522    525    536    539     1  0.0000000  0.6508444  3
    522    519    516    546     1  0.0000000  0.6508444  3
    525    526    529    532     1  0.0000000  0.6508444  3
    525    536    539    542     1  0.0000000  0.6508444  3
    526    529    532    533     1  180.0000771  0.0000000  2
    526    529    532    534     1  180.0000771  0.0000000  2
    526    525    536    539     1  0.0000000  0.6508444  3
    529    526    525    536     1  0.0000000  0.6508444  3
    536    539    542    543     1  180.0000771  0.0000000  2
    536    539    542    544     1  180.0000771  0.0000000  2
    548    551    554    557     1  0.0000000  0.6508444  3
    551    554    557    558     1  0.0000000  0.6508444  3
    551    554    557    568     1  0.0000000  0.6508444  3
    554    551    548    578     1  0.0000000  0.6508444  3
    554    557    558    561     1  0.0000000  0.6508444  3
    554    557    568    571     1  0.0000000  0.6508444  3
    557    558    561    564     1  0.0000000  0.6508444  3
    557    568    571    574     1  0.0000000  0.6508444  3
    558    557    568    571     1  0.0000000  0.6508444  3
    558    561    564    565     1  180.0000771  0.0000000  2
    558    561    564    566     1  180.0000771  0.0000000  2
    561    558    557    568     1  0.0000000  0.6508444  3
    568    571    574    575     1  180.0000771  0.0000000  2
    568    571    574    576     1  180.0000771  0.0000000  2
    580    583    586    589     1  0.0000000  0.6508444  3
    583    586    589    590     1  0.0000000  0.6508444  3
    583    586    589    600     1  0.0000000  0.6508444  3
    586    589    590    593     1  0.0000000  0.6508444  3
    586    589    600    603     1  0.0000000  0.6508444  3
    586    583    580    610     1  0.0000000  0.6508444  3
    589    590    593    596     1  0.0000000  0.6508444  3
    589    600    603    606     1  0.0000000  0.6508444  3
    590    593    596    597     1  180.0000771  0.0000000  2
    590    593    596    598     1  180.0000771  0.0000000  2
    590    589    600    603     1  0.0000000  0.6508444  3
    593    590    589    600     1  0.0000000  0.6508444  3
    600    603    606    607     1  180.0000771  0.0000000  2
    600    603    606    608     1  180.0000771  0.0000000  2
    612    615    618    621     1  0.0000000  0.6508444  3
    615    618    621    622     1  0.0000000  0.6508444  3
    615    618    621    632     1  0.0000000  0.6508444  3
    618    615    612    642     1  0.0000000  0.6508444  3
    618    621    622    625     1  0.0000000  0.6508444  3
    618    621    632    635     1  0.0000000  0.6508444  3
    621    622    625    628     1  0.0000000  0.6508444  3
    621    632    635    638     1  0.0000000  0.6508444  3
    622    621    632    635     1  0.0000000  0.6508444  3
    622    625    628    629     1  180.0000771  0.0000000  2
    622    625    628    630     1  180.0000771  0.0000000  2
    625    622    621    632     1  0.0000000  0.6508444  3
    632    635    638    639     1  180.0000771  0.0000000  2
    632    635    638    640     1  180.0000771  0.0000000  2
    644    647    650    653     1  0.0000000  0.6508444  3
    647    650    653    654     1  0.0000000  0.6508444  3
    647    650    653    664     1  0.0000000  0.6508444  3
    650    653    654    657     1  0.0000000  0.6508444  3
    650    653    664    667     1  0.0000000  0.6508444  3
    650    647    644    674     1  0.0000000  0.6508444  3
    653    654    657    660     1  0.0000000  0.6508444  3
    653    664    667    670     1  0.0000000  0.6508444  3
    654    657    660    661     1  180.0000771  0.0000000  2
    654    657    660    662     1  180.0000771  0.0000000  2
    654    653    664    667     1  0.0000000  0.6508444  3
    657    654    653    664     1  0.0000000  0.6508444  3
    664    667    670    671     1  180.0000771  0.0000000  2
    664    667    670    672     1  180.0000771  0.0000000  2
    676    679    682    685     1  0.0000000  0.6508444  3
    679    682    685    686     1  0.0000000  0.6508444  3
    679    682    685    696     1  0.0000000  0.6508444  3
    682    679    676    706     1  0.0000000  0.6508444  3
    682    685    686    689     1  0.0000000  0.6508444  3
    682    685    696    699     1  0.0000000  0.6508444  3
    685    686    689    692     1  0.0000000  0.6508444  3
    685    696    699    702     1  0.0000000  0.6508444  3
    686    685    696    699     1  0.0000000  0.6508444  3
    686    689    692    693     1  180.0000771  0.0000000  2
    686    689    692    694     1  180.0000771  0.0000000  2
    689    686    685    696     1  0.0000000  0.6508444  3
    696    699    702    703     1  180.0000771  0.0000000  2
    696    699    702    704     1  180.0000771  0.0000000  2
    708    711    714    717     1  0.0000000  0.6508444  3
    711    714    717    718     1  0.0000000  0.6508444  3
    711    714    717    728     1  0.0000000  0.6508444  3
    714    717    718    721     1  0.0000000  0.6508444  3
    714    717    728    731     1  0.0000000  0.6508444  3
    714    711    708    738     1  0.0000000  0.6508444  3
    717    718    721    724     1  0.0000000  0.6508444  3
    717    728    731    734     1  0.0000000  0.6508444  3
    718    721    724    725     1  180.0000771  0.0000000  2
    718    721    724    726     1  180.0000771  0.0000000  2
    718    717    728    731     1  0.0000000  0.6508444  3
    721    718    717    728     1  0.0000000  0.6508444  3
    728    731    734    735     1  180.0000771  0.0000000  2
    728    731    734    736     1  180.0000771  0.0000000  2
    740    743    746    749     1  0.0000000  0.6508444  3
    743    746    749    750     1  0.0000000  0.6508444  3
    743    746    749    760     1  0.0000000  0.6508444  3
    746    743    740    770     1  0.0000000  0.6508444  3
    746    749    750    753     1  0.0000000  0.6508444  3
    746    749    760    763     1  0.0000000  0.6508444  3
    749    750    753    756     1  0.0000000  0.6508444  3
    749    760    763    766     1  0.0000000  0.6508444  3
    750    749    760    763     1  0.0000000  0.6508444  3
    750    753    756    757     1  180.0000771  0.0000000  2
    750    753    756    758     1  180.0000771  0.0000000  2
    753    750    749    760     1  0.0000000  0.6508444  3
    760    763    766    767     1  180.0000771  0.0000000  2
    760    763    766    768     1  180.0000771  0.0000000  2
    772    775    778    781     1  0.0000000  0.6508444  3
    775    778    781    782     1  0.0000000  0.6508444  3
    775    778    781    792     1  0.0000000  0.6508444  3
    778    781    782    785     1  0.0000000  0.6508444  3
    778    781    792    795     1  0.0000000  0.6508444  3
    778    775    772    802     1  0.0000000  0.6508444  3
    781    782    785    788     1  0.0000000  0.6508444  3
    781    792    795    798     1  0.0000000  0.6508444  3
    782    785    788    789     1  180.0000771  0.0000000  2
    782    785    788    790     1  180.0000771  0.0000000  2
    782    781    792    795     1  0.0000000  0.6508444  3
    785    782    781    792     1  0.0000000  0.6508444  3
    792    795    798    799     1  180.0000771  0.0000000  2
    792    795    798    800     1  180.0000771  0.0000000  2
    804    807    810    813     1  0.0000000  0.6508444  3
    807    810    813    814     1  0.0000000  0.6508444  3
    807    810    813    824     1  0.0000000  0.6508444  3
    810    807    804    834     1  0.0000000  0.6508444  3
    810    813    814    817     1  0.0000000  0.6508444  3
    810    813    824    827     1  0.0000000  0.6508444  3
    813    814    817    820     1  0.0000000  0.6508444  3
    813    824    827    830     1  0.0000000  0.6508444  3
    814    813    824    827     1  0.0000000  0.6508444  3
    814    817    820    821     1  180.0000771  0.0000000  2
    814    817    820    822     1  180.0000771  0.0000000  2
    817    814    813    824     1  0.0000000  0.6508444  3
    824    827    830    831     1  180.0000771  0.0000000  2
    824    827    830    832     1  180.0000771  0.0000000  2
    836    839    842    845     1  0.0000000  0.6508444  3
    839    842    845    846     1  0.0000000  0.6508444  3
    839    842    845    856     1  0.0000000  0.6508444  3
    842    845    846    849     1  0.0000000  0.6508444  3
    842    845    856    859     1  0.0000000  0.6508444  3
    842    839    836    866     1  0.0000000  0.6508444  3
    845    846    849    852     1  0.0000000  0.6508444  3
    845    856    859    862     1  0.0000000  0.6508444  3
    846    849    852    853     1  180.0000771  0.0000000  2
    846    849    852    854     1  180.0000771  0.0000000  2
    846    845    856    859     1  0.0000000  0.6508444  3
    849    846    845    856     1  0.0000000  0.6508444  3
    856    859    862    863     1  180.0000771  0.0000000  2
    856    859    862    864     1  180.0000771  0.0000000  2
    868    871    874    877     1  0.0000000  0.6508444  3
    871    874    877    878     1  0.0000000  0.6508444  3
    871    874    877    888     1  0.0000000  0.6508444  3
    874    871    868    898     1  0.0000000  0.6508444  3
    874    877    878    881     1  0.0000000  0.6508444  3
    874    877    888    891     1  0.0000000  0.6508444  3
    877    878    881    884     1  0.0000000  0.6508444  3
    877    888    891    894     1  0.0000000  0.6508444  3
    878    877    888    891     1  0.0000000  0.6508444  3
    878    881    884    885     1  180.0000771  0.0000000  2
    878    881    884    886     1  180.0000771  0.0000000  2
    881    878    877    888     1  0.0000000  0.6508444  3
    888    891    894    895     1  180.0000771  0.0000000  2
    888    891    894    896     1  180.0000771  0.0000000  2
    900    903    906    909     1  0.0000000  0.6508444  3
    903    906    909    910     1  0.0000000  0.6508444  3
    903    906    909    920     1  0.0000000  0.6508444  3
    906    909    910    913     1  0.0000000  0.6508444  3
    906    909    920    923     1  0.0000000  0.6508444  3
    906    903    900    930     1  0.0000000  0.6508444  3
    909    910    913    916     1  0.0000000  0.6508444  3
    909    920    923    926     1  0.0000000  0.6508444  3
    910    913    916    917     1  180.0000771  0.0000000  2
    910    913    916    918     1  180.0000771  0.0000000  2
    910    909    920    923     1  0.0000000  0.6508444  3
    913    910    909    920     1  0.0000000  0.6508444  3
    920    923    926    927     1  180.0000771  0.0000000  2
    920    923    926    928     1  180.0000771  0.0000000  2
    433    437    436    438     4  180.0000771  4.6024000  2
    443    447    446    448     4  180.0000771  4.6024000  2
    465    469    468    470     4  180.0000771  4.6024000  2
    475    479    478    480     4  180.0000771  4.6024000  2
    497    501    500    502     4  180.0000771  4.6024000  2
    507    511    510    512     4  180.0000771  4.6024000  2
    529    533    532    534     4  180.0000771  4.6024000  2
    539    543    542    544     4  180.0000771  4.6024000  2
    561    565    564    566     4  180.0000771  4.6024000  2
    571    575    574    576     4  180.0000771  4.6024000  2
    593    597    596    598     4  180.0000771  4.6024000  2
    603    607    606    608     4  180.0000771  4.6024000  2
    625    629    628    630     4  180.0000771  4.6024000  2
    635    639    638    640     4  180.0000771  4.6024000  2
    657    661    660    662     4  180.0000771  4.6024000  2
    667    671    670    672     4  180.0000771  4.6024000  2
    689    693    692    694     4  180.0000771  4.6024000  2
    699    703    702    704     4  180.0000771  4.6024000  2
    721    725    724    726     4  180.0000771  4.6024000  2
    731    735    734    736     4  180.0000771  4.6024000  2
    753    757    756    758     4  180.0000771  4.6024000  2
    763    767    766    768     4  180.0000771  4.6024000  2
    785    789    788    790     4  180.0000771  4.6024000  2
    795    799    798    800     4  180.0000771  4.6024000  2
    817    821    820    822     4  180.0000771  4.6024000  2
    827    831    830    832     4  180.0000771  4.6024000  2
    849    853    852    854     4  180.0000771  4.6024000  2
    859    863    862    864     4  180.0000771  4.6024000  2
    881    885    884    886     4  180.0000771  4.6024000  2
    891    895    894    896     4  180.0000771  4.6024000  2
    913    917    916    918     4  180.0000771  4.6024000  2
    923    927    926    928     4  180.0000771  4.6024000  2
      1      2      8      9     1  0.0000000  1.0460000  1
      1      2      8      9     1  0.0000000  0.0000000  3
      1      2      8     10     1  0.0000000  1.0460000  1
      1      2      8     10     1  0.0000000  0.0000000  3
      1      5     11     12     1  0.0000000  1.0460000  1
      1      5     11     12     1  0.0000000  0.0000000  3
      1      5     11     13     1  0.0000000  1.0460000  1
      1      5     11     13     1  0.0000000  0.0000000  3
      2      1      5      6     1  0.0000000  1.6038667  3
      2      1      5      7     1  0.0000000  1.6038667  3
      2      8     14     15     1  0.0000000  0.6508444  3
      2      8     14     16     1  0.0000000  0.6508444  3
      5      1      2      3     1  0.0000000  1.6038667  3
      3      2      8     14     1  0.0000000  0.6508444  3
      3      2      8      9     1  0.0000000  0.6508444  3
      3      2      8     10     1  0.0000000  0.6508444  3
      5      1      2      4     1  0.0000000  1.6038667  3
      4      2      8     14     1  0.0000000  0.6508444  3
      4      2      8      9     1  0.0000000  0.6508444  3
      4      2      8     10     1  0.0000000  0.6508444  3
      5     11     17     18     1  0.0000000  0.6508444  3
      5     11     17     19     1  0.0000000  0.6508444  3
      6      5     11     17     1  0.0000000  0.6508444  3
      6      5     11     12     1  0.0000000  0.6508444  3
      6      5     11     13     1  0.0000000  0.6508444  3
      7      5     11     17     1  0.0000000  0.6508444  3
      7      5     11     12     1  0.0000000  0.6508444  3
      7      5     11     13     1  0.0000000  0.6508444  3
      8     14     20     58     1  0.0000000  0.6508444  3
      9      8     14     20     1  0.0000000  0.6508444  3
      9      8     14     15     1  0.0000000  0.6508444  3
      9      8     14     16     1  0.0000000  0.6508444  3
     10      8     14     20     1  0.0000000  0.6508444  3
     10      8     14     15     1  0.0000000  0.6508444  3
     10      8     14     16     1  0.0000000  0.6508444  3
     11     17     21     59     1  0.0000000  0.6508444  3
     12     11     17     21     1  0.0000000  0.6508444  3
     12     11     17     18     1  0.0000000  0.6508444  3
     12     11     17     19     1  0.0000000  0.6508444  3
     13     11     17     21     1  0.0000000  0.6508444  3
     13     11     17     18     1  0.0000000  0.6508444  3
     13     11     17     19     1  0.0000000  0.6508444  3
     14     20     28     29     1  0.0000000  0.6508444  3
     14     20     28     30     1  0.0000000  0.6508444  3
     14     20     31     32     1  0.0000000  0.6508444  3
     14     20     31     33     1  0.0000000  0.6508444  3
     15     14     20     28     1  0.0000000  0.6508444  3
     15     14     20     31     1  0.0000000  0.6508444  3
     15     14     20     58     1  0.0000000  0.6508444  3
     16     14     20     28     1  0.0000000  0.6508444  3
     16     14     20     31     1  0.0000000  0.6508444  3
     16     14     20     58     1  0.0000000  0.6508444  3
     17     21     22     23     1  0.0000000  0.6508444  3
     17     21     22     24     1  0.0000000  0.6508444  3
     17     21     25     26     1  0.0000000  0.6508444  3
     17     21     25     27     1  0.0000000  0.6508444  3
     18     17     21     22     1  0.0000000  0.6508444  3
     18     17     21     25     1  0.0000000  0.6508444  3
     18     17     21     59     1  0.0000000  0.6508444  3
     19     17     21     22     1  0.0000000  0.6508444  3
     19     17     21     25     1  0.0000000  0.6508444  3
     19     17     21     59     1  0.0000000  0.6508444  3
     20     28     40     41     1  0.0000000  0.6508444  3
     20     28     40     42     1  0.0000000  0.6508444  3
     20     31     43     44     1  0.0000000  0.6508444  3
     20     31     43     45     1  0.0000000  0.6508444  3
     21     22     34     35     1  0.0000000  0.6508444  3
     21     22     34     36     1  0.0000000  0.6508444  3
     21     25     37     38     1  0.0000000  0.6508444  3
     21     25     37     39     1  0.0000000  0.6508444  3
     22     21     25     26     1  0.0000000  0.6508444  3
     22     21     25     27     1  0.0000000  0.6508444  3
     22     34     55     56     1  0.0000000  0.6694400  3
     22     34     55     57     1  0.0000000  0.6694400  3
     23     22     21     25     1  0.0000000  0.6508444  3
     23     22     21     59     1  0.0000000  0.6508444  3
     23     22     34     55     1  0.0000000  0.6508444  3
     23     22     34     35     1  0.0000000  0.6508444  3
     23     22     34     36     1  0.0000000  0.6508444  3
     24     22     21     25     1  0.0000000  0.6508444  3
     24     22     21     59     1  0.0000000  0.6508444  3
     24     22     34     55     1  0.0000000  0.6508444  3
     24     22     34     35     1  0.0000000  0.6508444  3
     24     22     34     36     1  0.0000000  0.6508444  3
     25     37     52     53     1  0.0000000  0.6694400  3
     25     37     52     54     1  0.0000000  0.6694400  3
     26     25     21     59     1  0.0000000  0.6508444  3
     26     25     37     52     1  0.0000000  0.6508444  3
     26     25     37     38     1  0.0000000  0.6508444  3
     26     25     37     39     1  0.0000000  0.6508444  3
     27     25     21     59     1  0.0000000  0.6508444  3
     27     25     37     52     1  0.0000000  0.6508444  3
     27     25     37     38     1  0.0000000  0.6508444  3
     27     25     37     39     1  0.0000000  0.6508444  3
     28     20     31     32     1  0.0000000  0.6508444  3
     28     20     31     33     1  0.0000000  0.6508444  3
     28     40     49     50     1  0.0000000  0.6694400  3
     28     40     49     51     1  0.0000000  0.6694400  3
     29     28     20     31     1  0.0000000  0.6508444  3
     29     28     20     58     1  0.0000000  0.6508444  3
     29     28     40     49     1  0.0000000  0.6508444  3
     29     28     40     41     1  0.0000000  0.6508444  3
     29     28     40     42     1  0.0000000  0.6508444  3
     30     28     20     31     1  0.0000000  0.6508444  3
     30     28     20     58     1  0.0000000  0.6508444  3
     30     28     40     49     1  0.0000000  0.6508444  3
     30     28     40     41     1  0.0000000  0.6508444  3
     30     28     40     42     1  0.0000000  0.6508444  3
     31     43     46     47     1  0.0000000  0.6694400  3
     31     43     46     48     1  0.0000000  0.6694400  3
     32     31     20     58     1  0.0000000  0.6508444  3
     32     31     43     46     1  0.0000000  0.6508444  3
     32     31     43     44     1  0.0000000  0.6508444  3
     32     31     43     45     1  0.0000000  0.6508444  3
     33     31     20     58     1  0.0000000  0.6508444  3
     33     31     43     46     1  0.0000000  0.6508444  3
     33     31     43     44     1  0.0000000  0.6508444  3
     33     31     43     45     1  0.0000000  0.6508444  3
     34     22     21     59     1  0.0000000  0.6508444  3
     35     34     55    178     1  0.0000000  1.0460000  1
     35     34     55    178     1  0.0000000  0.0000000  3
     35     34     55     56     1  0.0000000  0.6276000  3
     35     34     55     57     1  0.0000000  0.6276000  3
     36     34     55    178     1  0.0000000  1.0460000  1
     36     34     55    178     1  0.0000000  0.0000000  3
     36     34     55     56     1  0.0000000  0.6276000  3
     36     34     55     57     1  0.0000000  0.6276000  3
     37     25     21     59     1  0.0000000  0.6508444  3
     38     37     52    148     1  0.0000000  1.0460000  1
     38     37     52    148     1  0.0000000  0.0000000  3
     38     37     52     53     1  0.0000000  0.6276000  3
     38     37     52     54     1  0.0000000  0.6276000  3
     39     37     52    148     1  0.0000000  1.0460000  1
     39     37     52    148     1  0.0000000  0.0000000  3
     39     37     52     53     1  0.0000000  0.6276000  3
     39     37     52     54     1  0.0000000  0.6276000  3
     40     28     20     58     1  0.0000000  0.6508444  3
     41     40     49    118     1  0.0000000  1.0460000  1
     41     40     49    118     1  0.0000000  0.0000000  3
     41     40     49     50     1  0.0000000  0.6276000  3
     41     40     49     51     1  0.0000000  0.6276000  3
     42     40     49    118     1  0.0000000  1.0460000  1
     42     40     49    118     1  0.0000000  0.0000000  3
     42     40     49     50     1  0.0000000  0.6276000  3
     42     40     49     51     1  0.0000000  0.6276000  3
     43     31     20     58     1  0.0000000  0.6508444  3
     44     43     46     88     1  0.0000000  1.0460000  1
     44     43     46     88     1  0.0000000  0.0000000  3
     44     43     46     47     1  0.0000000  0.6276000  3
     44     43     46     48     1  0.0000000  0.6276000  3
     45     43     46     88     1  0.0000000  1.0460000  1
     45     43     46     88     1  0.0000000  0.0000000  3
     45     43     46     47     1  0.0000000  0.6276000  3
     45     43     46     48     1  0.0000000  0.6276000  3
     46     88     79     80     1  0.0000000  1.6038667  3
     46     88     79     81     1  0.0000000  1.6038667  3
     47     46     88     79     1  0.0000000  1.6038667  3
     48     46     88     79     1  0.0000000  1.6038667  3
     49    118    109    110     1  0.0000000  1.6038667  3
     49    118    109    111     1  0.0000000  1.6038667  3
     50     49    118    109     1  0.0000000  1.6038667  3
     51     49    118    109     1  0.0000000  1.6038667  3
     52    148    139    140     1  0.0000000  1.6038667  3
     52    148    139    141     1  0.0000000  1.6038667  3
     53     52    148    139     1  0.0000000  1.6038667  3
     54     52    148    139     1  0.0000000  1.6038667  3
     55    178    169    170     1  0.0000000  1.6038667  3
     55    178    169    171     1  0.0000000  1.6038667  3
     56     55    178    169     1  0.0000000  1.6038667  3
     57     55    178    169     1  0.0000000  1.6038667  3
     60     61     73     74     1  0.0000000  0.6508444  3
     60     61     73     75     1  0.0000000  0.6508444  3
     60     64     76     77     1  0.0000000  0.6508444  3
     60     64     76     78     1  0.0000000  0.6508444  3
     60     67     70     71     1  0.0000000  0.6508444  3
     60     67     70     72     1  0.0000000  0.6508444  3
     61     60     64     65     1  0.0000000  0.6508444  3
     61     60     64     66     1  0.0000000  0.6508444  3
     61     60     67     68     1  0.0000000  0.6508444  3
     61     60     67     69     1  0.0000000  0.6508444  3
     61     73     85     86     1  0.0000000  0.6508444  3
     61     73     85     87     1  0.0000000  0.6508444  3
     62     61     60     64     1  0.0000000  0.6508444  3
     62     61     60     67     1  0.0000000  0.6508444  3
     62     61     60     89     1  0.0000000  0.6508444  3
     62     61     73     85     1  0.0000000  0.6508444  3
     62     61     73     74     1  0.0000000  0.6508444  3
     62     61     73     75     1  0.0000000  0.6508444  3
     63     61     60     64     1  0.0000000  0.6508444  3
     63     61     60     67     1  0.0000000  0.6508444  3
     63     61     60     89     1  0.0000000  0.6508444  3
     63     61     73     85     1  0.0000000  0.6508444  3
     63     61     73     74     1  0.0000000  0.6508444  3
     63     61     73     75     1  0.0000000  0.6508444  3
     64     60     67     68     1  0.0000000  0.6508444  3
     64     60     67     69     1  0.0000000  0.6508444  3
     64     76     82     83     1  0.0000000  0.6508444  3
     64     76     82     84     1  0.0000000  0.6508444  3
     65     64     60     67     1  0.0000000  0.6508444  3
     65     64     60     89     1  0.0000000  0.6508444  3
     65     64     76     82     1  0.0000000  0.6508444  3
     65     64     76     77     1  0.0000000  0.6508444  3
     65     64     76     78     1  0.0000000  0.6508444  3
     66     64     60     67     1  0.0000000  0.6508444  3
     66     64     60     89     1  0.0000000  0.6508444  3
     66     64     76     82     1  0.0000000  0.6508444  3
     66     64     76     77     1  0.0000000  0.6508444  3
     66     64     76     78     1  0.0000000  0.6508444  3
     67     70     79     80     1  0.0000000  0.6508444  3
     67     70     79     81     1  0.0000000  0.6508444  3
     68     67     60     89     1  0.0000000  0.6508444  3
     68     67     70     79     1  0.0000000  0.6508444  3
     68     67     70     71     1  0.0000000  0.6508444  3
     68     67     70     72     1  0.0000000  0.6508444  3
     69     67     60     89     1  0.0000000  0.6508444  3
     69     67     70     79     1  0.0000000  0.6508444  3
     69     67     70     71     1  0.0000000  0.6508444  3
     69     67     70     72     1  0.0000000  0.6508444  3
     70     67     60     89     1  0.0000000  0.6508444  3
     71     70     79     88     1  0.0000000  1.0460000  1
     71     70     79     88     1  0.0000000  0.0000000  3
     71     70     79     80     1  0.0000000  0.6508444  3
     71     70     79     81     1  0.0000000  0.6508444  3
     72     70     79     88     1  0.0000000  1.0460000  1
     72     70     79     88     1  0.0000000  0.0000000  3
     72     70     79     80     1  0.0000000  0.6508444  3
     72     70     79     81     1  0.0000000  0.6508444  3
     73     61     60     89     1  0.0000000  0.6508444  3
     74     73     85    238     1  0.0000000  1.0460000  1
     74     73     85    238     1  0.0000000  0.0000000  3
     74     73     85     86     1  0.0000000  0.6508444  3
     74     73     85     87     1  0.0000000  0.6508444  3
     75     73     85    238     1  0.0000000  1.0460000  1
     75     73     85    238     1  0.0000000  0.0000000  3
     75     73     85     86     1  0.0000000  0.6508444  3
     75     73     85     87     1  0.0000000  0.6508444  3
     76     64     60     89     1  0.0000000  0.6508444  3
     77     76     82    208     1  0.0000000  1.0460000  1
     77     76     82    208     1  0.0000000  0.0000000  3
     77     76     82     83     1  0.0000000  0.6508444  3
     77     76     82     84     1  0.0000000  0.6508444  3
     78     76     82    208     1  0.0000000  1.0460000  1
     78     76     82    208     1  0.0000000  0.0000000  3
     78     76     82     83     1  0.0000000  0.6508444  3
     78     76     82     84     1  0.0000000  0.6508444  3
     82    208    199    200     1  0.0000000  1.6038667  3
     82    208    199    201     1  0.0000000  1.6038667  3
     83     82    208    199     1  0.0000000  1.6038667  3
     84     82    208    199     1  0.0000000  1.6038667  3
     85    238    229    230     1  0.0000000  1.6038667  3
     85    238    229    231     1  0.0000000  1.6038667  3
     86     85    238    229     1  0.0000000  1.6038667  3
     87     85    238    229     1  0.0000000  1.6038667  3
     90     91    103    104     1  0.0000000  0.6508444  3
     90     91    103    105     1  0.0000000  0.6508444  3
     90     94    106    107     1  0.0000000  0.6508444  3
     90     94    106    108     1  0.0000000  0.6508444  3
     90     97    100    101     1  0.0000000  0.6508444  3
     90     97    100    102     1  0.0000000  0.6508444  3
     91     90     94     95     1  0.0000000  0.6508444  3
     91     90     94     96     1  0.0000000  0.6508444  3
     91     90     97     98     1  0.0000000  0.6508444  3
     91     90     97     99     1  0.0000000  0.6508444  3
     91    103    115    116     1  0.0000000  0.6508444  3
     91    103    115    117     1  0.0000000  0.6508444  3
     92     91     90     94     1  0.0000000  0.6508444  3
     92     91     90     97     1  0.0000000  0.6508444  3
     92     91     90    119     1  0.0000000  0.6508444  3
     92     91    103    115     1  0.0000000  0.6508444  3
     92     91    103    104     1  0.0000000  0.6508444  3
     92     91    103    105     1  0.0000000  0.6508444  3
     93     91     90     94     1  0.0000000  0.6508444  3
     93     91     90     97     1  0.0000000  0.6508444  3
     93     91     90    119     1  0.0000000  0.6508444  3
     93     91    103    115     1  0.0000000  0.6508444  3
     93     91    103    104     1  0.0000000  0.6508444  3
     93     91    103    105     1  0.0000000  0.6508444  3
     94     90     97     98     1  0.0000000  0.6508444  3
     94     90     97     99     1  0.0000000  0.6508444  3
     94    106    112    113     1  0.0000000  0.6508444  3
     94    106    112    114     1  0.0000000  0.6508444  3
     95     94     90     97     1  0.0000000  0.6508444  3
     95     94     90    119     1  0.0000000  0.6508444  3
     95     94    106    112     1  0.0000000  0.6508444  3
     95     94    106    107     1  0.0000000  0.6508444  3
     95     94    106    108     1  0.0000000  0.6508444  3
     96     94     90     97     1  0.0000000  0.6508444  3
     96     94     90    119     1  0.0000000  0.6508444  3
     96     94    106    112     1  0.0000000  0.6508444  3
     96     94    106    107     1  0.0000000  0.6508444  3
     96     94    106    108     1  0.0000000  0.6508444  3
     97    100    109    110     1  0.0000000  0.6508444  3
     97    100    109    111     1  0.0000000  0.6508444  3
     98     97     90    119     1  0.0000000  0.6508444  3
     98     97    100    109     1  0.0000000  0.6508444  3
     98     97    100    101     1  0.0000000  0.6508444  3
     98     97    100    102     1  0.0000000  0.6508444  3
     99     97     90    119     1  0.0000000  0.6508444  3
     99     97    100    109     1  0.0000000  0.6508444  3
     99     97    100    101     1  0.0000000  0.6508444  3
     99     97    100    102     1  0.0000000  0.6508444  3
    100     97     90    119     1  0.0000000  0.6508444  3
    101    100    109    118     1  0.0000000  1.0460000  1
    101    100    109    118     1  0.0000000  0.0000000  3
    101    100    109    110     1  0.0000000  0.6508444  3
    101    100    109    111     1  0.0000000  0.6508444  3
    102    100    109    118     1  0.0000000  1.0460000  1
    102    100    109    118     1  0.0000000  0.0000000  3
    102    100    109    110     1  0.0000000  0.6508444  3
    102    100    109    111     1  0.0000000  0.6508444  3
    103     91     90    119     1  0.0000000  0.6508444  3
    104    103    115    298     1  0.0000000  1.0460000  1
    104    103    115    298     1  0.0000000  0.0000000  3
    104    103    115    116     1  0.0000000  0.6508444  3
    104    103    115    117     1  0.0000000  0.6508444  3
    105    103    115    298     1  0.0000000  1.0460000  1
    105    103    115    298     1  0.0000000  0.0000000  3
    105    103    115    116     1  0.0000000  0.6508444  3
    105    103    115    117     1  0.0000000  0.6508444  3
    106     94     90    119     1  0.0000000  0.6508444  3
    107    106    112    268     1  0.0000000  1.0460000  1
    107    106    112    268     1  0.0000000  0.0000000  3
    107    106    112    113     1  0.0000000  0.6508444  3
    107    106    112    114     1  0.0000000  0.6508444  3
    108    106    112    268     1  0.0000000  1.0460000  1
    108    106    112    268     1  0.0000000  0.0000000  3
    108    106    112    113     1  0.0000000  0.6508444  3
    108    106    112    114     1  0.0000000  0.6508444  3
    112    268    259    260     1  0.0000000  1.6038667  3
    112    268    259    261     1  0.0000000  1.6038667  3
    113    112    268    259     1  0.0000000  1.6038667  3
    114    112    268    259     1  0.0000000  1.6038667  3
    115    298    289    290     1  0.0000000  1.6038667  3
    115    298    289    291     1  0.0000000  1.6038667  3
    116    115    298    289     1  0.0000000  1.6038667  3
    117    115    298    289     1  0.0000000  1.6038667  3
    120    121    133    134     1  0.0000000  0.6508444  3
    120    121    133    135     1  0.0000000  0.6508444  3
    120    124    136    137     1  0.0000000  0.6508444  3
    120    124    136    138     1  0.0000000  0.6508444  3
    120    127    130    131     1  0.0000000  0.6508444  3
    120    127    130    132     1  0.0000000  0.6508444  3
    121    120    124    125     1  0.0000000  0.6508444  3
    121    120    124    126     1  0.0000000  0.6508444  3
    121    120    127    128     1  0.0000000  0.6508444  3
    121    120    127    129     1  0.0000000  0.6508444  3
    121    133    145    146     1  0.0000000  0.6508444  3
    121    133    145    147     1  0.0000000  0.6508444  3
    122    121    120    124     1  0.0000000  0.6508444  3
    122    121    120    127     1  0.0000000  0.6508444  3
    122    121    120    149     1  0.0000000  0.6508444  3
    122    121    133    145     1  0.0000000  0.6508444  3
    122    121    133    134     1  0.0000000  0.6508444  3
    122    121    133    135     1  0.0000000  0.6508444  3
    123    121    120    124     1  0.0000000  0.6508444  3
    123    121    120    127     1  0.0000000  0.6508444  3
    123    121    120    149     1  0.0000000  0.6508444  3
    123    121    133    145     1  0.0000000  0.6508444  3
    123    121    133    134     1  0.0000000  0.6508444  3
    123    121    133    135     1  0.0000000  0.6508444  3
    124    120    127    128     1  0.0000000  0.6508444  3
    124    120    127    129     1  0.0000000  0.6508444  3
    124    136    142    143     1  0.0000000  0.6508444  3
    124    136    142    144     1  0.0000000  0.6508444  3
    125    124    120    127     1  0.0000000  0.6508444  3
    125    124    120    149     1  0.0000000  0.6508444  3
    125    124    136    142     1  0.0000000  0.6508444  3
    125    124    136    137     1  0.0000000  0.6508444  3
    125    124    136    138     1  0.0000000  0.6508444  3
    126    124    120    127     1  0.0000000  0.6508444  3
    126    124    120    149     1  0.0000000  0.6508444  3
    126    124    136    142     1  0.0000000  0.6508444  3
    126    124    136    137     1  0.0000000  0.6508444  3
    126    124    136    138     1  0.0000000  0.6508444  3
    127    130    139    140     1  0.0000000  0.6508444  3
    127    130    139    141     1  0.0000000  0.6508444  3
    128    127    120    149     1  0.0000000  0.6508444  3
    128    127    130    139     1  0.0000000  0.6508444  3
    128    127    130    131     1  0.0000000  0.6508444  3
    128    127    130    132     1  0.0000000  0.6508444  3
    129    127    120    149     1  0.0000000  0.6508444  3
    129    127    130    139     1  0.0000000  0.6508444  3
    129    127    130    131     1  0.0000000  0.6508444  3
    129    127    130    132     1  0.0000000  0.6508444  3
    130    127    120    149     1  0.0000000  0.6508444  3
    131    130    139    148     1  0.0000000  1.0460000  1
    131    130    139    148     1  0.0000000  0.0000000  3
    131    130    139    140     1  0.0000000  0.6508444  3
    131    130    139    141     1  0.0000000  0.6508444  3
    132    130    139    148     1  0.0000000  1.0460000  1
    132    130    139    148     1  0.0000000  0.0000000  3
    132    130    139    140     1  0.0000000  0.6508444  3
    132    130    139    141     1  0.0000000  0.6508444  3
    133    121    120    149     1  0.0000000  0.6508444  3
    134    133    145    358     1  0.0000000  1.0460000  1
    134    133    145    358     1  0.0000000  0.0000000  3
    134    133    145    146     1  0.0000000  0.6508444  3
    134    133    145    147     1  0.0000000  0.6508444  3
    135    133    145    358     1  0.0000000  1.0460000  1
    135    133    145    358     1  0.0000000  0.0000000  3
    135    133    145    146     1  0.0000000  0.6508444  3
    135    133    145    147     1  0.0000000  0.6508444  3
    136    124    120    149     1  0.0000000  0.6508444  3
    137    136    142    328     1  0.0000000  1.0460000  1
    137    136    142    328     1  0.0000000  0.0000000  3
    137    136    142    143     1  0.0000000  0.6508444  3
    137    136    142    144     1  0.0000000  0.6508444  3
    138    136    142    328     1  0.0000000  1.0460000  1
    138    136    142    328     1  0.0000000  0.0000000  3
    138    136    142    143     1  0.0000000  0.6508444  3
    138    136    142    144     1  0.0000000  0.6508444  3
    142    328    319    320     1  0.0000000  1.6038667  3
    142    328    319    321     1  0.0000000  1.6038667  3
    143    142    328    319     1  0.0000000  1.6038667  3
    144    142    328    319     1  0.0000000  1.6038667  3
    145    358    349    350     1  0.0000000  1.6038667  3
    145    358    349    351     1  0.0000000  1.6038667  3
    146    145    358    349     1  0.0000000  1.6038667  3
    147    145    358    349     1  0.0000000  1.6038667  3
    150    151    163    164     1  0.0000000  0.6508444  3
    150    151    163    165     1  0.0000000  0.6508444  3
    150    154    166    167     1  0.0000000  0.6508444  3
    150    154    166    168     1  0.0000000  0.6508444  3
    150    157    160    161     1  0.0000000  0.6508444  3
    150    157    160    162     1  0.0000000  0.6508444  3
    151    150    154    155     1  0.0000000  0.6508444  3
    151    150    154    156     1  0.0000000  0.6508444  3
    151    150    157    158     1  0.0000000  0.6508444  3
    151    150    157    159     1  0.0000000  0.6508444  3
    151    163    175    176     1  0.0000000  0.6508444  3
    151    163    175    177     1  0.0000000  0.6508444  3
    152    151    150    154     1  0.0000000  0.6508444  3
    152    151    150    157     1  0.0000000  0.6508444  3
    152    151    150    179     1  0.0000000  0.6508444  3
    152    151    163    175     1  0.0000000  0.6508444  3
    152    151    163    164     1  0.0000000  0.6508444  3
    152    151    163    165     1  0.0000000  0.6508444  3
    153    151    150    154     1  0.0000000  0.6508444  3
    153    151    150    157     1  0.0000000  0.6508444  3
    153    151    150    179     1  0.0000000  0.6508444  3
    153    151    163    175     1  0.0000000  0.6508444  3
    153    151    163    164     1  0.0000000  0.6508444  3
    153    151    163    165     1  0.0000000  0.6508444  3
    154    150    157    158     1  0.0000000  0.6508444  3
    154    150    157    159     1  0.0000000  0.6508444  3
    154    166    172    173     1  0.0000000  0.6508444  3
    154    166    172    174     1  0.0000000  0.6508444  3
    155    154    150    157     1  0.0000000  0.6508444  3
    155    154    150    179     1  0.0000000  0.6508444  3
    155    154    166    172     1  0.0000000  0.6508444  3
    155    154    166    167     1  0.0000000  0.6508444  3
    155    154    166    168     1  0.0000000  0.6508444  3
    156    154    150    157     1  0.0000000  0.6508444  3
    156    154    150    179     1  0.0000000  0.6508444  3
    156    154    166    172     1  0.0000000  0.6508444  3
    156    154    166    167     1  0.0000000  0.6508444  3
    156    154    166    168     1  0.0000000  0.6508444  3
    157    160    169    170     1  0.0000000  0.6508444  3
    157    160    169    171     1  0.0000000  0.6508444  3
    158    157    150    179     1  0.0000000  0.6508444  3
    158    157    160    169     1  0.0000000  0.6508444  3
    158    157    160    161     1  0.0000000  0.6508444  3
    158    157    160    162     1  0.0000000  0.6508444  3
    159    157    150    179     1  0.0000000  0.6508444  3
    159    157    160    169     1  0.0000000  0.6508444  3
    159    157    160    161     1  0.0000000  0.6508444  3
    159    157    160    162     1  0.0000000  0.6508444  3
    160    157    150    179     1  0.0000000  0.6508444  3
    161    160    169    178     1  0.0000000  1.0460000  1
    161    160    169    178     1  0.0000000  0.0000000  3
    161    160    169    170     1  0.0000000  0.6508444  3
    161    160    169    171     1  0.0000000  0.6508444  3
    162    160    169    178     1  0.0000000  1.0460000  1
    162    160    169    178     1  0.0000000  0.0000000  3
    162    160    169    170     1  0.0000000  0.6508444  3
    162    160    169    171     1  0.0000000  0.6508444  3
    163    151    150    179     1  0.0000000  0.6508444  3
    164    163    175    418     1  0.0000000  1.0460000  1
    164    163    175    418     1  0.0000000  0.0000000  3
    164    163    175    176     1  0.0000000  0.6508444  3
    164    163    175    177     1  0.0000000  0.6508444  3
    165    163    175    418     1  0.0000000  1.0460000  1
    165    163    175    418     1  0.0000000  0.0000000  3
    165    163    175    176     1  0.0000000  0.6508444  3
    165    163    175    177     1  0.0000000  0.6508444  3
    166    154    150    179     1  0.0000000  0.6508444  3
    167    166    172    388     1  0.0000000  1.0460000  1
    167    166    172    388     1  0.0000000  0.0000000  3
    167    166    172    173     1  0.0000000  0.6508444  3
    167    166    172    174     1  0.0000000  0.6508444  3
    168    166    172    388     1  0.0000000  1.0460000  1
    168    166    172    388     1  0.0000000  0.0000000  3
    168    166    172    173     1  0.0000000  0.6508444  3
    168    166    172    174     1  0.0000000  0.6508444  3
    172    388    379    380     1  0.0000000  1.6038667  3
    172    388    379    381     1  0.0000000  1.6038667  3
    173    172    388    379     1  0.0000000  1.6038667  3
    174    172    388    379     1  0.0000000  1.6038667  3
    175    418    409    410     1  0.0000000  1.6038667  3
    175    418    409    411     1  0.0000000  1.6038667  3
    176    175    418    409     1  0.0000000  1.6038667  3
    177    175    418    409     1  0.0000000  1.6038667  3
    180    181    193    194     1  0.0000000  0.6508444  3
    180    181    193    195     1  0.0000000  0.6508444  3
    180    184    196    197     1  0.0000000  0.6508444  3
    180    184    196    198     1  0.0000000  0.6508444  3
    180    187    190    191     1  0.0000000  0.6508444  3
    180    187    190    192     1  0.0000000  0.6508444  3
    181    180    184    185     1  0.0000000  0.6508444  3
    181    180    184    186     1  0.0000000  0.6508444  3
    181    180    187    188     1  0.0000000  0.6508444  3
    181    180    187    189     1  0.0000000  0.6508444  3
    181    193    205    206     1  0.0000000  0.6508444  3
    181    193    205    207     1  0.0000000  0.6508444  3
    182    181    180    184     1  0.0000000  0.6508444  3
    182    181    180    187     1  0.0000000  0.6508444  3
    182    181    180    209     1  0.0000000  0.6508444  3
    182    181    193    205     1  0.0000000  0.6508444  3
    182    181    193    194     1  0.0000000  0.6508444  3
    182    181    193    195     1  0.0000000  0.6508444  3
    183    181    180    184     1  0.0000000  0.6508444  3
    183    181    180    187     1  0.0000000  0.6508444  3
    183    181    180    209     1  0.0000000  0.6508444  3
    183    181    193    205     1  0.0000000  0.6508444  3
    183    181    193    194     1  0.0000000  0.6508444  3
    183    181    193    195     1  0.0000000  0.6508444  3
    184    180    187    188     1  0.0000000  0.6508444  3
    184    180    187    189     1  0.0000000  0.6508444  3
    184    196    202    203     1  0.0000000  0.6508444  3
    184    196    202    204     1  0.0000000  0.6508444  3
    185    184    180    187     1  0.0000000  0.6508444  3
    185    184    180    209     1  0.0000000  0.6508444  3
    185    184    196    202     1  0.0000000  0.6508444  3
    185    184    196    197     1  0.0000000  0.6508444  3
    185    184    196    198     1  0.0000000  0.6508444  3
    186    184    180    187     1  0.0000000  0.6508444  3
    186    184    180    209     1  0.0000000  0.6508444  3
    186    184    196    202     1  0.0000000  0.6508444  3
    186    184    196    197     1  0.0000000  0.6508444  3
    186    184    196    198     1  0.0000000  0.6508444  3
    187    190    199    200     1  0.0000000  0.6508444  3
    187    190    199    201     1  0.0000000  0.6508444  3
    188    187    180    209     1  0.0000000  0.6508444  3
    188    187    190    199     1  0.0000000  0.6508444  3
    188    187    190    191     1  0.0000000  0.6508444  3
    188    187    190    192     1  0.0000000  0.6508444  3
    189    187    180    209     1  0.0000000  0.6508444  3
    189    187    190    199     1  0.0000000  0.6508444  3
    189    187    190    191     1  0.0000000  0.6508444  3
    189    187    190    192     1  0.0000000  0.6508444  3
    190    187    180    209     1  0.0000000  0.6508444  3
    191    190    199    208     1  0.0000000  1.0460000  1
    191    190    199    208     1  0.0000000  0.0000000  3
    191    190    199    200     1  0.0000000  0.6508444  3
    191    190    199    201     1  0.0000000  0.6508444  3
    192    190    199    208     1  0.0000000  1.0460000  1
    192    190    199    208     1  0.0000000  0.0000000  3
    192    190    199    200     1  0.0000000  0.6508444  3
    192    190    199    201     1  0.0000000  0.6508444  3
    193    181    180    209     1  0.0000000  0.6508444  3
    194    193    205    482     1  0.0000000  1.0460000  1
    194    193    205    482     1  0.0000000  0.0000000  3
    194    193    205    206     1  0.0000000  0.6508444  3
    194    193    205    207     1  0.0000000  0.6508444  3
    195    193    205    482     1  0.0000000  1.0460000  1
    195    193    205    482     1  0.0000000  0.0000000  3
    195    193    205    206     1  0.0000000  0.6508444  3
    195    193    205    207     1  0.0000000  0.6508444  3
    196    184    180    209     1  0.0000000  0.6508444  3
    197    196    202    450     1  0.0000000  1.0460000  1
    197    196    202    450     1  0.0000000  0.0000000  3
    197    196    202    203     1  0.0000000  0.6508444  3
    197    196    202    204     1  0.0000000  0.6508444  3
    198    196    202    450     1  0.0000000  1.0460000  1
    198    196    202    450     1  0.0000000  0.0000000  3
    198    196    202    203     1  0.0000000  0.6508444  3
    198    196    202    204     1  0.0000000  0.6508444  3
    202    450    420    421     1  0.0000000  1.6038667  3
    202    450    420    422     1  0.0000000  1.6038667  3
    203    202    450    420     1  0.0000000  1.6038667  3
    204    202    450    420     1  0.0000000  1.6038667  3
    205    482    452    453     1  0.0000000  1.6038667  3
    205    482    452    454     1  0.0000000  1.6038667  3
    206    205    482    452     1  0.0000000  1.6038667  3
    207    205    482    452     1  0.0000000  1.6038667  3
    210    211    223    224     1  0.0000000  0.6508444  3
    210    211    223    225     1  0.0000000  0.6508444  3
    210    214    226    227     1  0.0000000  0.6508444  3
    210    214    226    228     1  0.0000000  0.6508444  3
    210    217    220    221     1  0.0000000  0.6508444  3
    210    217    220    222     1  0.0000000  0.6508444  3
    211    210    214    215     1  0.0000000  0.6508444  3
    211    210    214    216     1  0.0000000  0.6508444  3
    211    210    217    218     1  0.0000000  0.6508444  3
    211    210    217    219     1  0.0000000  0.6508444  3
    211    223    235    236     1  0.0000000  0.6508444  3
    211    223    235    237     1  0.0000000  0.6508444  3
    212    211    210    214     1  0.0000000  0.6508444  3
    212    211    210    217     1  0.0000000  0.6508444  3
    212    211    210    239     1  0.0000000  0.6508444  3
    212    211    223    235     1  0.0000000  0.6508444  3
    212    211    223    224     1  0.0000000  0.6508444  3
    212    211    223    225     1  0.0000000  0.6508444  3
    213    211    210    214     1  0.0000000  0.6508444  3
    213    211    210    217     1  0.0000000  0.6508444  3
    213    211    210    239     1  0.0000000  0.6508444  3
    213    211    223    235     1  0.0000000  0.6508444  3
    213    211    223    224     1  0.0000000  0.6508444  3
    213    211    223    225     1  0.0000000  0.6508444  3
    214    210    217    218     1  0.0000000  0.6508444  3
    214    210    217    219     1  0.0000000  0.6508444  3
    214    226    232    233     1  0.0000000  0.6508444  3
    214    226    232    234     1  0.0000000  0.6508444  3
    215    214    210    217     1  0.0000000  0.6508444  3
    215    214    210    239     1  0.0000000  0.6508444  3
    215    214    226    232     1  0.0000000  0.6508444  3
    215    214    226    227     1  0.0000000  0.6508444  3
    215    214    226    228     1  0.0000000  0.6508444  3
    216    214    210    217     1  0.0000000  0.6508444  3
    216    214    210    239     1  0.0000000  0.6508444  3
    216    214    226    232     1  0.0000000  0.6508444  3
    216    214    226    227     1  0.0000000  0.6508444  3
    216    214    226    228     1  0.0000000  0.6508444  3
    217    220    229    230     1  0.0000000  0.6508444  3
    217    220    229    231     1  0.0000000  0.6508444  3
    218    217    210    239     1  0.0000000  0.6508444  3
    218    217    220    229     1  0.0000000  0.6508444  3
    218    217    220    221     1  0.0000000  0.6508444  3
    218    217    220    222     1  0.0000000  0.6508444  3
    219    217    210    239     1  0.0000000  0.6508444  3
    219    217    220    229     1  0.0000000  0.6508444  3
    219    217    220    221     1  0.0000000  0.6508444  3
    219    217    220    222     1  0.0000000  0.6508444  3
    220    217    210    239     1  0.0000000  0.6508444  3
    221    220    229    238     1  0.0000000  1.0460000  1
    221    220    229    238     1  0.0000000  0.0000000  3
    221    220    229    230     1  0.0000000  0.6508444  3
    221    220    229    231     1  0.0000000  0.6508444  3
    222    220    229    238     1  0.0000000  1.0460000  1
    222    220    229    238     1  0.0000000  0.0000000  3
    222    220    229    230     1  0.0000000  0.6508444  3
    222    220    229    231     1  0.0000000  0.6508444  3
    223    211    210    239     1  0.0000000  0.6508444  3
    224    223    235    546     1  0.0000000  1.0460000  1
    224    223    235    546     1  0.0000000  0.0000000  3
    224    223    235    236     1  0.0000000  0.6508444  3
    224    223    235    237     1  0.0000000  0.6508444  3
    225    223    235    546     1  0.0000000  1.0460000  1
    225    223    235    546     1  0.0000000  0.0000000  3
    225    223    235    236     1  0.0000000  0.6508444  3
    225    223    235    237     1  0.0000000  0.6508444  3
    226    214    210    239     1  0.0000000  0.6508444  3
    227    226    232    514     1  0.0000000  1.0460000  1
    227    226    232    514     1  0.0000000  0.0000000  3
    227    226    232    233     1  0.0000000  0.6508444  3
    227    226    232    234     1  0.0000000  0.6508444  3
    228    226    232    514     1  0.0000000  1.0460000  1
    228    226    232    514     1  0.0000000  0.0000000  3
    228    226    232    233     1  0.0000000  0.6508444  3
    228    226    232    234     1  0.0000000  0.6508444  3
    232    514    484    485     1  0.0000000  1.6038667  3
    232    514    484    486     1  0.0000000  1.6038667  3
    233    232    514    484     1  0.0000000  1.6038667  3
    234    232    514    484     1  0.0000000  1.6038667  3
    235    546    516    517     1  0.0000000  1.6038667  3
    235    546    516    518     1  0.0000000  1.6038667  3
    236    235    546    516     1  0.0000000  1.6038667  3
    237    235    546    516     1  0.0000000  1.6038667  3
    240    241    253    254     1  0.0000000  0.6508444  3
    240    241    253    255     1  0.0000000  0.6508444  3
    240    244    256    257     1  0.0000000  0.6508444  3
    240    244    256    258     1  0.0000000  0.6508444  3
    240    247    250    251     1  0.0000000  0.6508444  3
    240    247    250    252     1  0.0000000  0.6508444  3
    241    240    244    245     1  0.0000000  0.6508444  3
    241    240    244    246     1  0.0000000  0.6508444  3
    241    240    247    248     1  0.0000000  0.6508444  3
    241    240    247    249     1  0.0000000  0.6508444  3
    241    253    265    266     1  0.0000000  0.6508444  3
    241    253    265    267     1  0.0000000  0.6508444  3
    242    241    240    244     1  0.0000000  0.6508444  3
    242    241    240    247     1  0.0000000  0.6508444  3
    242    241    240    269     1  0.0000000  0.6508444  3
    242    241    253    265     1  0.0000000  0.6508444  3
    242    241    253    254     1  0.0000000  0.6508444  3
    242    241    253    255     1  0.0000000  0.6508444  3
    243    241    240    244     1  0.0000000  0.6508444  3
    243    241    240    247     1  0.0000000  0.6508444  3
    243    241    240    269     1  0.0000000  0.6508444  3
    243    241    253    265     1  0.0000000  0.6508444  3
    243    241    253    254     1  0.0000000  0.6508444  3
    243    241    253    255     1  0.0000000  0.6508444  3
    244    240    247    248     1  0.0000000  0.6508444  3
    244    240    247    249     1  0.0000000  0.6508444  3
    244    256    262    263     1  0.0000000  0.6508444  3
    244    256    262    264     1  0.0000000  0.6508444  3
    245    244    240    247     1  0.0000000  0.6508444  3
    245    244    240    269     1  0.0000000  0.6508444  3
    245    244    256    262     1  0.0000000  0.6508444  3
    245    244    256    257     1  0.0000000  0.6508444  3
    245    244    256    258     1  0.0000000  0.6508444  3
    246    244    240    247     1  0.0000000  0.6508444  3
    246    244    240    269     1  0.0000000  0.6508444  3
    246    244    256    262     1  0.0000000  0.6508444  3
    246    244    256    257     1  0.0000000  0.6508444  3
    246    244    256    258     1  0.0000000  0.6508444  3
    247    250    259    260     1  0.0000000  0.6508444  3
    247    250    259    261     1  0.0000000  0.6508444  3
    248    247    240    269     1  0.0000000  0.6508444  3
    248    247    250    259     1  0.0000000  0.6508444  3
    248    247    250    251     1  0.0000000  0.6508444  3
    248    247    250    252     1  0.0000000  0.6508444  3
    249    247    240    269     1  0.0000000  0.6508444  3
    249    247    250    259     1  0.0000000  0.6508444  3
    249    247    250    251     1  0.0000000  0.6508444  3
    249    247    250    252     1  0.0000000  0.6508444  3
    250    247    240    269     1  0.0000000  0.6508444  3
    251    250    259    268     1  0.0000000  1.0460000  1
    251    250    259    268     1  0.0000000  0.0000000  3
    251    250    259    260     1  0.0000000  0.6508444  3
    251    250    259    261     1  0.0000000  0.6508444  3
    252    250    259    268     1  0.0000000  1.0460000  1
    252    250    259    268     1  0.0000000  0.0000000  3
    252    250    259    260     1  0.0000000  0.6508444  3
    252    250    259    261     1  0.0000000  0.6508444  3
    253    241    240    269     1  0.0000000  0.6508444  3
    254    253    265    610     1  0.0000000  1.0460000  1
    254    253    265    610     1  0.0000000  0.0000000  3
    254    253    265    266     1  0.0000000  0.6508444  3
    254    253    265    267     1  0.0000000  0.6508444  3
    255    253    265    610     1  0.0000000  1.0460000  1
    255    253    265    610     1  0.0000000  0.0000000  3
    255    253    265    266     1  0.0000000  0.6508444  3
    255    253    265    267     1  0.0000000  0.6508444  3
    256    244    240    269     1  0.0000000  0.6508444  3
    257    256    262    578     1  0.0000000  1.0460000  1
    257    256    262    578     1  0.0000000  0.0000000  3
    257    256    262    263     1  0.0000000  0.6508444  3
    257    256    262    264     1  0.0000000  0.6508444  3
    258    256    262    578     1  0.0000000  1.0460000  1
    258    256    262    578     1  0.0000000  0.0000000  3
    258    256    262    263     1  0.0000000  0.6508444  3
    258    256    262    264     1  0.0000000  0.6508444  3
    262    578    548    549     1  0.0000000  1.6038667  3
    262    578    548    550     1  0.0000000  1.6038667  3
    263    262    578    548     1  0.0000000  1.6038667  3
    264    262    578    548     1  0.0000000  1.6038667  3
    265    610    580    581     1  0.0000000  1.6038667  3
    265    610    580    582     1  0.0000000  1.6038667  3
    266    265    610    580     1  0.0000000  1.6038667  3
    267    265    610    580     1  0.0000000  1.6038667  3
    270    271    283    284     1  0.0000000  0.6508444  3
    270    271    283    285     1  0.0000000  0.6508444  3
    270    274    286    287     1  0.0000000  0.6508444  3
    270    274    286    288     1  0.0000000  0.6508444  3
    270    277    280    281     1  0.0000000  0.6508444  3
    270    277    280    282     1  0.0000000  0.6508444  3
    271    270    274    275     1  0.0000000  0.6508444  3
    271    270    274    276     1  0.0000000  0.6508444  3
    271    270    277    278     1  0.0000000  0.6508444  3
    271    270    277    279     1  0.0000000  0.6508444  3
    271    283    295    296     1  0.0000000  0.6508444  3
    271    283    295    297     1  0.0000000  0.6508444  3
    272    271    270    274     1  0.0000000  0.6508444  3
    272    271    270    277     1  0.0000000  0.6508444  3
    272    271    270    299     1  0.0000000  0.6508444  3
    272    271    283    295     1  0.0000000  0.6508444  3
    272    271    283    284     1  0.0000000  0.6508444  3
    272    271    283    285     1  0.0000000  0.6508444  3
    273    271    270    274     1  0.0000000  0.6508444  3
    273    271    270    277     1  0.0000000  0.6508444  3
    273    271    270    299     1  0.0000000  0.6508444  3
    273    271    283    295     1  0.0000000  0.6508444  3
    273    271    283    284     1  0.0000000  0.6508444  3
    273    271    283    285     1  0.0000000  0.6508444  3
    274    270    277    278     1  0.0000000  0.6508444  3
    274    270    277    279     1  0.0000000  0.6508444  3
    274    286    292    293     1  0.0000000  0.6508444  3
    274    286    292    294     1  0.0000000  0.6508444  3
    275    274    270    277     1  0.0000000  0.6508444  3
    275    274    270    299     1  0.0000000  0.6508444  3
    275    274    286    292     1  0.0000000  0.6508444  3
    275    274    286    287     1  0.0000000  0.6508444  3
    275    274    286    288     1  0.0000000  0.6508444  3
    276    274    270    277     1  0.0000000  0.6508444  3
    276    274    270    299     1  0.0000000  0.6508444  3
    276    274    286    292     1  0.0000000  0.6508444  3
    276    274    286    287     1  0.0000000  0.6508444  3
    276    274    286    288     1  0.0000000  0.6508444  3
    277    280    289    290     1  0.0000000  0.6508444  3
    277    280    289    291     1  0.0000000  0.6508444  3
    278    277    270    299     1  0.0000000  0.6508444  3
    278    277    280    289     1  0.0000000  0.6508444  3
    278    277    280    281     1  0.0000000  0.6508444  3
    278    277    280    282     1  0.0000000  0.6508444  3
    279    277    270    299     1  0.0000000  0.6508444  3
    279    277    280    289     1  0.0000000  0.6508444  3
    279    277    280    281     1  0.0000000  0.6508444  3
    279    277    280    282     1  0.0000000  0.6508444  3
    280    277    270    299     1  0.0000000  0.6508444  3
    281    280    289    298     1  0.0000000  1.0460000  1
    281    280    289    298     1  0.0000000  0.0000000  3
    281    280    289    290     1  0.0000000  0.6508444  3
    281    280    289    291     1  0.0000000  0.6508444  3
    282    280    289    298     1  0.0000000  1.0460000  1
    282    280    289    298     1  0.0000000  0.0000000  3
    282    280    289    290     1  0.0000000  0.6508444  3
    282    280    289    291     1  0.0000000  0.6508444  3
    283    271    270    299     1  0.0000000  0.6508444  3
    284    283    295    674     1  0.0000000  1.0460000  1
    284    283    295    674     1  0.0000000  0.0000000  3
    284    283    295    296     1  0.0000000  0.6508444  3
    284    283    295    297     1  0.0000000  0.6508444  3
    285    283    295    674     1  0.0000000  1.0460000  1
    285    283    295    674     1  0.0000000  0.0000000  3
    285    283    295    296     1  0.0000000  0.6508444  3
    285    283    295    297     1  0.0000000  0.6508444  3
    286    274    270    299     1  0.0000000  0.6508444  3
    287    286    292    642     1  0.0000000  1.0460000  1
    287    286    292    642     1  0.0000000  0.0000000  3
    287    286    292    293     1  0.0000000  0.6508444  3
    287    286    292    294     1  0.0000000  0.6508444  3
    288    286    292    642     1  0.0000000  1.0460000  1
    288    286    292    642     1  0.0000000  0.0000000  3
    288    286    292    293     1  0.0000000  0.6508444  3
    288    286    292    294     1  0.0000000  0.6508444  3
    292    642    612    613     1  0.0000000  1.6038667  3
    292    642    612    614     1  0.0000000  1.6038667  3
    293    292    642    612     1  0.0000000  1.6038667  3
    294    292    642    612     1  0.0000000  1.6038667  3
    295    674    644    645     1  0.0000000  1.6038667  3
    295    674    644    646     1  0.0000000  1.6038667  3
    296    295    674    644     1  0.0000000  1.6038667  3
    297    295    674    644     1  0.0000000  1.6038667  3
    300    301    313    314     1  0.0000000  0.6508444  3
    300    301    313    315     1  0.0000000  0.6508444  3
    300    304    316    317     1  0.0000000  0.6508444  3
    300    304    316    318     1  0.0000000  0.6508444  3
    300    307    310    311     1  0.0000000  0.6508444  3
    300    307    310    312     1  0.0000000  0.6508444  3
    301    300    304    305     1  0.0000000  0.6508444  3
    301    300    304    306     1  0.0000000  0.6508444  3
    301    300    307    308     1  0.0000000  0.6508444  3
    301    300    307    309     1  0.0000000  0.6508444  3
    301    313    325    326     1  0.0000000  0.6508444  3
    301    313    325    327     1  0.0000000  0.6508444  3
    302    301    300    304     1  0.0000000  0.6508444  3
    302    301    300    307     1  0.0000000  0.6508444  3
    302    301    300    329     1  0.0000000  0.6508444  3
    302    301    313    325     1  0.0000000  0.6508444  3
    302    301    313    314     1  0.0000000  0.6508444  3
    302    301    313    315     1  0.0000000  0.6508444  3
    303    301    300    304     1  0.0000000  0.6508444  3
    303    301    300    307     1  0.0000000  0.6508444  3
    303    301    300    329     1  0.0000000  0.6508444  3
    303    301    313    325     1  0.0000000  0.6508444  3
    303    301    313    314     1  0.0000000  0.6508444  3
    303    301    313    315     1  0.0000000  0.6508444  3
    304    300    307    308     1  0.0000000  0.6508444  3
    304    300    307    309     1  0.0000000  0.6508444  3
    304    316    322    323     1  0.0000000  0.6508444  3
    304    316    322    324     1  0.0000000  0.6508444  3
    305    304    300    307     1  0.0000000  0.6508444  3
    305    304    300    329     1  0.0000000  0.6508444  3
    305    304    316    322     1  0.0000000  0.6508444  3
    305    304    316    317     1  0.0000000  0.6508444  3
    305    304    316    318     1  0.0000000  0.6508444  3
    306    304    300    307     1  0.0000000  0.6508444  3
    306    304    300    329     1  0.0000000  0.6508444  3
    306    304    316    322     1  0.0000000  0.6508444  3
    306    304    316    317     1  0.0000000  0.6508444  3
    306    304    316    318     1  0.0000000  0.6508444  3
    307    310    319    320     1  0.0000000  0.6508444  3
    307    310    319    321     1  0.0000000  0.6508444  3
    308    307    300    329     1  0.0000000  0.6508444  3
    308    307    310    319     1  0.0000000  0.6508444  3
    308    307    310    311     1  0.0000000  0.6508444  3
    308    307    310    312     1  0.0000000  0.6508444  3
    309    307    300    329     1  0.0000000  0.6508444  3
    309    307    310    319     1  0.0000000  0.6508444  3
    309    307    310    311     1  0.0000000  0.6508444  3
    309    307    310    312     1  0.0000000  0.6508444  3
    310    307    300    329     1  0.0000000  0.6508444  3
    311    310    319    328     1  0.0000000  1.0460000  1
    311    310    319    328     1  0.0000000  0.0000000  3
    311    310    319    320     1  0.0000000  0.6508444  3
    311    310    319    321     1  0.0000000  0.6508444  3
    312    310    319    328     1  0.0000000  1.0460000  1
    312    310    319    328     1  0.0000000  0.0000000  3
    312    310    319    320     1  0.0000000  0.6508444  3
    312    310    319    321     1  0.0000000  0.6508444  3
    313    301    300    329     1  0.0000000  0.6508444  3
    314    313    325    738     1  0.0000000  1.0460000  1
    314    313    325    738     1  0.0000000  0.0000000  3
    314    313    325    326     1  0.0000000  0.6508444  3
    314    313    325    327     1  0.0000000  0.6508444  3
    315    313    325    738     1  0.0000000  1.0460000  1
    315    313    325    738     1  0.0000000  0.0000000  3
    315    313    325    326     1  0.0000000  0.6508444  3
    315    313    325    327     1  0.0000000  0.6508444  3
    316    304    300    329     1  0.0000000  0.6508444  3
    317    316    322    706     1  0.0000000  1.0460000  1
    317    316    322    706     1  0.0000000  0.0000000  3
    317    316    322    323     1  0.0000000  0.6508444  3
    317    316    322    324     1  0.0000000  0.6508444  3
    318    316    322    706     1  0.0000000  1.0460000  1
    318    316    322    706     1  0.0000000  0.0000000  3
    318    316    322    323     1  0.0000000  0.6508444  3
    318    316    322    324     1  0.0000000  0.6508444  3
    322    706    676    677     1  0.0000000  1.6038667  3
    322    706    676    678     1  0.0000000  1.6038667  3
    323    322    706    676     1  0.0000000  1.6038667  3
    324    322    706    676     1  0.0000000  1.6038667  3
    325    738    708    709     1  0.0000000  1.6038667  3
    325    738    708    710     1  0.0000000  1.6038667  3
    326    325    738    708     1  0.0000000  1.6038667  3
    327    325    738    708     1  0.0000000  1.6038667  3
    330    331    343    344     1  0.0000000  0.6508444  3
    330    331    343    345     1  0.0000000  0.6508444  3
    330    334    346    347     1  0.0000000  0.6508444  3
    330    334    346    348     1  0.0000000  0.6508444  3
    330    337    340    341     1  0.0000000  0.6508444  3
    330    337    340    342     1  0.0000000  0.6508444  3
    331    330    334    335     1  0.0000000  0.6508444  3
    331    330    334    336     1  0.0000000  0.6508444  3
    331    330    337    338     1  0.0000000  0.6508444  3
    331    330    337    339     1  0.0000000  0.6508444  3
    331    343    355    356     1  0.0000000  0.6508444  3
    331    343    355    357     1  0.0000000  0.6508444  3
    332    331    330    334     1  0.0000000  0.6508444  3
    332    331    330    337     1  0.0000000  0.6508444  3
    332    331    330    359     1  0.0000000  0.6508444  3
    332    331    343    355     1  0.0000000  0.6508444  3
    332    331    343    344     1  0.0000000  0.6508444  3
    332    331    343    345     1  0.0000000  0.6508444  3
    333    331    330    334     1  0.0000000  0.6508444  3
    333    331    330    337     1  0.0000000  0.6508444  3
    333    331    330    359     1  0.0000000  0.6508444  3
    333    331    343    355     1  0.0000000  0.6508444  3
    333    331    343    344     1  0.0000000  0.6508444  3
    333    331    343    345     1  0.0000000  0.6508444  3
    334    330    337    338     1  0.0000000  0.6508444  3
    334    330    337    339     1  0.0000000  0.6508444  3
    334    346    352    353     1  0.0000000  0.6508444  3
    334    346    352    354     1  0.0000000  0.6508444  3
    335    334    330    337     1  0.0000000  0.6508444  3
    335    334    330    359     1  0.0000000  0.6508444  3
    335    334    346    352     1  0.0000000  0.6508444  3
    335    334    346    347     1  0.0000000  0.6508444  3
    335    334    346    348     1  0.0000000  0.6508444  3
    336    334    330    337     1  0.0000000  0.6508444  3
    336    334    330    359     1  0.0000000  0.6508444  3
    336    334    346    352     1  0.0000000  0.6508444  3
    336    334    346    347     1  0.0000000  0.6508444  3
    336    334    346    348     1  0.0000000  0.6508444  3
    337    340    349    350     1  0.0000000  0.6508444  3
    337    340    349    351     1  0.0000000  0.6508444  3
    338    337    330    359     1  0.0000000  0.6508444  3
    338    337    340    349     1  0.0000000  0.6508444  3
    338    337    340    341     1  0.0000000  0.6508444  3
    338    337    340    342     1  0.0000000  0.6508444  3
    339    337    330    359     1  0.0000000  0.6508444  3
    339    337    340    349     1  0.0000000  0.6508444  3
    339    337    340    341     1  0.0000000  0.6508444  3
    339    337    340    342     1  0.0000000  0.6508444  3
    340    337    330    359     1  0.0000000  0.6508444  3
    341    340    349    358     1  0.0000000  1.0460000  1
    341    340    349    358     1  0.0000000  0.0000000  3
    341    340    349    350     1  0.0000000  0.6508444  3
    341    340    349    351     1  0.0000000  0.6508444  3
    342    340    349    358     1  0.0000000  1.0460000  1
    342    340    349    358     1  0.0000000  0.0000000  3
    342    340    349    350     1  0.0000000  0.6508444  3
    342    340    349    351     1  0.0000000  0.6508444  3
    343    331    330    359     1  0.0000000  0.6508444  3
    344    343    355    802     1  0.0000000  1.0460000  1
    344    343    355    802     1  0.0000000  0.0000000  3
    344    343    355    356     1  0.0000000  0.6508444  3
    344    343    355    357     1  0.0000000  0.6508444  3
    345    343    355    802     1  0.0000000  1.0460000  1
    345    343    355    802     1  0.0000000  0.0000000  3
    345    343    355    356     1  0.0000000  0.6508444  3
    345    343    355    357     1  0.0000000  0.6508444  3
    346    334    330    359     1  0.0000000  0.6508444  3
    347    346    352    770     1  0.0000000  1.0460000  1
    347    346    352    770     1  0.0000000  0.0000000  3
    347    346    352    353     1  0.0000000  0.6508444  3
    347    346    352    354     1  0.0000000  0.6508444  3
    348    346    352    770     1  0.0000000  1.0460000  1
    348    346    352    770     1  0.0000000  0.0000000  3
    348    346    352    353     1  0.0000000  0.6508444  3
    348    346    352    354     1  0.0000000  0.6508444  3
    352    770    740    741     1  0.0000000  1.6038667  3
    352    770    740    742     1  0.0000000  1.6038667  3
    353    352    770    740     1  0.0000000  1.6038667  3
    354    352    770    740     1  0.0000000  1.6038667  3
    355    802    772    773     1  0.0000000  1.6038667  3
    355    802    772    774     1  0.0000000  1.6038667  3
    356    355    802    772     1  0.0000000  1.6038667  3
    357    355    802    772     1  0.0000000  1.6038667  3
    360    361    373    374     1  0.0000000  0.6508444  3
    360    361    373    375     1  0.0000000  0.6508444  3
    360    364    376    377     1  0.0000000  0.6508444  3
    360    364    376    378     1  0.0000000  0.6508444  3
    360    367    370    371     1  0.0000000  0.6508444  3
    360    367    370    372     1  0.0000000  0.6508444  3
    361    360    364    365     1  0.0000000  0.6508444  3
    361    360    364    366     1  0.0000000  0.6508444  3
    361    360    367    368     1  0.0000000  0.6508444  3
    361    360    367    369     1  0.0000000  0.6508444  3
    361    373    385    386     1  0.0000000  0.6508444  3
    361    373    385    387     1  0.0000000  0.6508444  3
    362    361    360    364     1  0.0000000  0.6508444  3
    362    361    360    367     1  0.0000000  0.6508444  3
    362    361    360    389     1  0.0000000  0.6508444  3
    362    361    373    385     1  0.0000000  0.6508444  3
    362    361    373    374     1  0.0000000  0.6508444  3
    362    361    373    375     1  0.0000000  0.6508444  3
    363    361    360    364     1  0.0000000  0.6508444  3
    363    361    360    367     1  0.0000000  0.6508444  3
    363    361    360    389     1  0.0000000  0.6508444  3
    363    361    373    385     1  0.0000000  0.6508444  3
    363    361    373    374     1  0.0000000  0.6508444  3
    363    361    373    375     1  0.0000000  0.6508444  3
    364    360    367    368     1  0.0000000  0.6508444  3
    364    360    367    369     1  0.0000000  0.6508444  3
    364    376    382    383     1  0.0000000  0.6508444  3
    364    376    382    384     1  0.0000000  0.6508444  3
    365    364    360    367     1  0.0000000  0.6508444  3
    365    364    360    389     1  0.0000000  0.6508444  3
    365    364    376    382     1  0.0000000  0.6508444  3
    365    364    376    377     1  0.0000000  0.6508444  3
    365    364    376    378     1  0.0000000  0.6508444  3
    366    364    360    367     1  0.0000000  0.6508444  3
    366    364    360    389     1  0.0000000  0.6508444  3
    366    364    376    382     1  0.0000000  0.6508444  3
    366    364    376    377     1  0.0000000  0.6508444  3
    366    364    376    378     1  0.0000000  0.6508444  3
    367    370    379    380     1  0.0000000  0.6508444  3
    367    370    379    381     1  0.0000000  0.6508444  3
    368    367    360    389     1  0.0000000  0.6508444  3
    368    367    370    379     1  0.0000000  0.6508444  3
    368    367    370    371     1  0.0000000  0.6508444  3
    368    367    370    372     1  0.0000000  0.6508444  3
    369    367    360    389     1  0.0000000  0.6508444  3
    369    367    370    379     1  0.0000000  0.6508444  3
    369    367    370    371     1  0.0000000  0.6508444  3
    369    367    370    372     1  0.0000000  0.6508444  3
    370    367    360    389     1  0.0000000  0.6508444  3
    371    370    379    388     1  0.0000000  1.0460000  1
    371    370    379    388     1  0.0000000  0.0000000  3
    371    370    379    380     1  0.0000000  0.6508444  3
    371    370    379    381     1  0.0000000  0.6508444  3
    372    370    379    388     1  0.0000000  1.0460000  1
    372    370    379    388     1  0.0000000  0.0000000  3
    372    370    379    380     1  0.0000000  0.6508444  3
    372    370    379    381     1  0.0000000  0.6508444  3
    373    361    360    389     1  0.0000000  0.6508444  3
    374    373    385    866     1  0.0000000  1.0460000  1
    374    373    385    866     1  0.0000000  0.0000000  3
    374    373    385    386     1  0.0000000  0.6508444  3
    374    373    385    387     1  0.0000000  0.6508444  3
    375    373    385    866     1  0.0000000  1.0460000  1
    375    373    385    866     1  0.0000000  0.0000000  3
    375    373    385    386     1  0.0000000  0.6508444  3
    375    373    385    387     1  0.0000000  0.6508444  3
    376    364    360    389     1  0.0000000  0.6508444  3
    377    376    382    834     1  0.0000000  1.0460000  1
    377    376    382    834     1  0.0000000  0.0000000  3
    377    376    382    383     1  0.0000000  0.6508444  3
    377    376    382    384     1  0.0000000  0.6508444  3
    378    376    382    834     1  0.0000000  1.0460000  1
    378    376    382    834     1  0.0000000  0.0000000  3
    378    376    382    383     1  0.0000000  0.6508444  3
    378    376    382    384     1  0.0000000  0.6508444  3
    382    834    804    805     1  0.0000000  1.6038667  3
    382    834    804    806     1  0.0000000  1.6038667  3
    383    382    834    804     1  0.0000000  1.6038667  3
    384    382    834    804     1  0.0000000  1.6038667  3
    385    866    836    837     1  0.0000000  1.6038667  3
    385    866    836    838     1  0.0000000  1.6038667  3
    386    385    866    836     1  0.0000000  1.6038667  3
    387    385    866    836     1  0.0000000  1.6038667  3
    390    391    403    404     1  0.0000000  0.6508444  3
    390    391    403    405     1  0.0000000  0.6508444  3
    390    394    406    407     1  0.0000000  0.6508444  3
    390    394    406    408     1  0.0000000  0.6508444  3
    390    397    400    401     1  0.0000000  0.6508444  3
    390    397    400    402     1  0.0000000  0.6508444  3
    391    390    394    395     1  0.0000000  0.6508444  3
    391    390    394    396     1  0.0000000  0.6508444  3
    391    390    397    398     1  0.0000000  0.6508444  3
    391    390    397    399     1  0.0000000  0.6508444  3
    391    403    415    416     1  0.0000000  0.6508444  3
    391    403    415    417     1  0.0000000  0.6508444  3
    392    391    390    394     1  0.0000000  0.6508444  3
    392    391    390    397     1  0.0000000  0.6508444  3
    392    391    390    419     1  0.0000000  0.6508444  3
    392    391    403    415     1  0.0000000  0.6508444  3
    392    391    403    404     1  0.0000000  0.6508444  3
    392    391    403    405     1  0.0000000  0.6508444  3
    393    391    390    394     1  0.0000000  0.6508444  3
    393    391    390    397     1  0.0000000  0.6508444  3
    393    391    390    419     1  0.0000000  0.6508444  3
    393    391    403    415     1  0.0000000  0.6508444  3
    393    391    403    404     1  0.0000000  0.6508444  3
    393    391    403    405     1  0.0000000  0.6508444  3
    394    390    397    398     1  0.0000000  0.6508444  3
    394    390    397    399     1  0.0000000  0.6508444  3
    394    406    412    413     1  0.0000000  0.6508444  3
    394    406    412    414     1  0.0000000  0.6508444  3
    395    394    390    397     1  0.0000000  0.6508444  3
    395    394    390    419     1  0.0000000  0.6508444  3
    395    394    406    412     1  0.0000000  0.6508444  3
    395    394    406    407     1  0.0000000  0.6508444  3
    395    394    406    408     1  0.0000000  0.6508444  3
    396    394    390    397     1  0.0000000  0.6508444  3
    396    394    390    419     1  0.0000000  0.6508444  3
    396    394    406    412     1  0.0000000  0.6508444  3
    396    394    406    407     1  0.0000000  0.6508444  3
    396    394    406    408     1  0.0000000  0.6508444  3
    397    400    409    410     1  0.0000000  0.6508444  3
    397    400    409    411     1  0.0000000  0.6508444  3
    398    397    390    419     1  0.0000000  0.6508444  3
    398    397    400    409     1  0.0000000  0.6508444  3
    398    397    400    401     1  0.0000000  0.6508444  3
    398    397    400    402     1  0.0000000  0.6508444  3
    399    397    390    419     1  0.0000000  0.6508444  3
    399    397    400    409     1  0.0000000  0.6508444  3
    399    397    400    401     1  0.0000000  0.6508444  3
    399    397    400    402     1  0.0000000  0.6508444  3
    400    397    390    419     1  0.0000000  0.6508444  3
    401    400    409    418     1  0.0000000  1.0460000  1
    401    400    409    418     1  0.0000000  0.0000000  3
    401    400    409    410     1  0.0000000  0.6508444  3
    401    400    409    411     1  0.0000000  0.6508444  3
    402    400    409    418     1  0.0000000  1.0460000  1
    402    400    409    418     1  0.0000000  0.0000000  3
    402    400    409    410     1  0.0000000  0.6508444  3
    402    400    409    411     1  0.0000000  0.6508444  3
    403    391    390    419     1  0.0000000  0.6508444  3
    404    403    415    930     1  0.0000000  1.0460000  1
    404    403    415    930     1  0.0000000  0.0000000  3
    404    403    415    416     1  0.0000000  0.6508444  3
    404    403    415    417     1  0.0000000  0.6508444  3
    405    403    415    930     1  0.0000000  1.0460000  1
    405    403    415    930     1  0.0000000  0.0000000  3
    405    403    415    416     1  0.0000000  0.6508444  3
    405    403    415    417     1  0.0000000  0.6508444  3
    406    394    390    419     1  0.0000000  0.6508444  3
    407    406    412    898     1  0.0000000  1.0460000  1
    407    406    412    898     1  0.0000000  0.0000000  3
    407    406    412    413     1  0.0000000  0.6508444  3
    407    406    412    414     1  0.0000000  0.6508444  3
    408    406    412    898     1  0.0000000  1.0460000  1
    408    406    412    898     1  0.0000000  0.0000000  3
    408    406    412    413     1  0.0000000  0.6508444  3
    408    406    412    414     1  0.0000000  0.6508444  3
    412    898    868    869     1  0.0000000  1.6038667  3
    412    898    868    870     1  0.0000000  1.6038667  3
    413    412    898    868     1  0.0000000  1.6038667  3
    414    412    898    868     1  0.0000000  1.6038667  3
    415    930    900    901     1  0.0000000  1.6038667  3
    415    930    900    902     1  0.0000000  1.6038667  3
    416    415    930    900     1  0.0000000  1.6038667  3
    417    415    930    900     1  0.0000000  1.6038667  3
    420    423    426    427     1  0.0000000  0.6508444  3
    420    423    426    428     1  0.0000000  0.6508444  3
    421    420    423    426     1  0.0000000  0.6508444  3
    421    420    423    424     1  0.0000000  0.6508444  3
    421    420    423    425     1  0.0000000  0.6508444  3
    422    420    423    426     1  0.0000000  0.6508444  3
    422    420    423    424     1  0.0000000  0.6508444  3
    422    420    423    425     1  0.0000000  0.6508444  3
    423    426    429    451     1  0.0000000  0.6508444  3
    424    423    420    450     1  0.0000000  1.0460000  1
    424    423    420    450     1  0.0000000  0.0000000  3
    424    423    426    429     1  0.0000000  0.6508444  3
    424    423    426    427     1  0.0000000  0.6508444  3
    424    423    426    428     1  0.0000000  0.6508444  3
    425    423    420    450     1  0.0000000  1.0460000  1
    425    423    420    450     1  0.0000000  0.0000000  3
    425    423    426    429     1  0.0000000  0.6508444  3
    425    423    426    427     1  0.0000000  0.6508444  3
    425    423    426    428     1  0.0000000  0.6508444  3
    426    429    430    431     1  0.0000000  0.6508444  3
    426    429    430    432     1  0.0000000  0.6508444  3
    426    429    440    441     1  0.0000000  0.6508444  3
    426    429    440    442     1  0.0000000  0.6508444  3
    427    426    429    430     1  0.0000000  0.6508444  3
    427    426    429    440     1  0.0000000  0.6508444  3
    427    426    429    451     1  0.0000000  0.6508444  3
    428    426    429    430     1  0.0000000  0.6508444  3
    428    426    429    440     1  0.0000000  0.6508444  3
    428    426    429    451     1  0.0000000  0.6508444  3
    429    430    433    434     1  0.0000000  0.6508444  3
    429    430    433    435     1  0.0000000  0.6508444  3
    429    440    443    444     1  0.0000000  0.6508444  3
    429    440    443    445     1  0.0000000  0.6508444  3
    430    429    440    441     1  0.0000000  0.6508444  3
    430    429    440    442     1  0.0000000  0.6508444  3
    431    430    429    440     1  0.0000000  0.6508444  3
    431    430    429    451     1  0.0000000  0.6508444  3
    431    430    433    436     1  0.0000000  0.6508444  3
    431    430    433    434     1  0.0000000  0.6508444  3
    431    430    433    435     1  0.0000000  0.6508444  3
    432    430    429    440     1  0.0000000  0.6508444  3
    432    430    429    451     1  0.0000000  0.6508444  3
    432    430    433    436     1  0.0000000  0.6508444  3
    432    430    433    434     1  0.0000000  0.6508444  3
    432    430    433    435     1  0.0000000  0.6508444  3
    433    430    429    451     1  0.0000000  0.6508444  3
    433    436    438    439     1  180.0000771  9.6232000  2
    434    433    436    437     1  0.0000000  3.3472000  1
    434    433    436    437     1  0.0000000  0.0000000  2
    434    433    436    437     1  180.0000771  0.3347200  3
    434    433    436    438     1  180.0000771  0.0000000  2
    435    433    436    437     1  0.0000000  3.3472000  1
    435    433    436    437     1  0.0000000  0.0000000  2
    435    433    436    437     1  180.0000771  0.3347200  3
    435    433    436    438     1  180.0000771  0.0000000  2
    437    436    438    439     1  0.0000000  7.9496000  1
    437    436    438    439     1  180.0000771  9.6232000  2
    441    440    429    451     1  0.0000000  0.6508444  3
    441    440    443    446     1  0.0000000  0.6508444  3
    441    440    443    444     1  0.0000000  0.6508444  3
    441    440    443    445     1  0.0000000  0.6508444  3
    442    440    429    451     1  0.0000000  0.6508444  3
    442    440    443    446     1  0.0000000  0.6508444  3
    442    440    443    444     1  0.0000000  0.6508444  3
    442    440    443    445     1  0.0000000  0.6508444  3
    443    440    429    451     1  0.0000000  0.6508444  3
    443    446    448    449     1  180.0000771  9.6232000  2
    444    443    446    447     1  0.0000000  3.3472000  1
    444    443    446    447     1  0.0000000  0.0000000  2
    444    443    446    447     1  180.0000771  0.3347200  3
    444    443    446    448     1  180.0000771  0.0000000  2
    445    443    446    447     1  0.0000000  3.3472000  1
    445    443    446    447     1  0.0000000  0.0000000  2
    445    443    446    447     1  180.0000771  0.3347200  3
    445    443    446    448     1  180.0000771  0.0000000  2
    447    446    448    449     1  0.0000000  7.9496000  1
    447    446    448    449     1  180.0000771  9.6232000  2
    452    455    458    459     1  0.0000000  0.6508444  3
    452    455    458    460     1  0.0000000  0.6508444  3
    453    452    455    458     1  0.0000000  0.6508444  3
    453    452    455    456     1  0.0000000  0.6508444  3
    453    452    455    457     1  0.0000000  0.6508444  3
    454    452    455    458     1  0.0000000  0.6508444  3
    454    452    455    456     1  0.0000000  0.6508444  3
    454    452    455    457     1  0.0000000  0.6508444  3
    455    458    461    483     1  0.0000000  0.6508444  3
    456    455    458    461     1  0.0000000  0.6508444  3
    456    455    458    459     1  0.0000000  0.6508444  3
    456    455    458    460     1  0.0000000  0.6508444  3
    456    455    452    482     1  0.0000000  1.0460000  1
    456    455    452    482     1  0.0000000  0.0000000  3
    457    455    458    461     1  0.0000000  0.6508444  3
    457    455    458    459     1  0.0000000  0.6508444  3
    457    455    458    460     1  0.0000000  0.6508444  3
    457    455    452    482     1  0.0000000  1.0460000  1
    457    455    452    482     1  0.0000000  0.0000000  3
    458    461    462    463     1  0.0000000  0.6508444  3
    458    461    462    464     1  0.0000000  0.6508444  3
    458    461    472    473     1  0.0000000  0.6508444  3
    458    461    472    474     1  0.0000000  0.6508444  3
    459    458    461    462     1  0.0000000  0.6508444  3
    459    458    461    472     1  0.0000000  0.6508444  3
    459    458    461    483     1  0.0000000  0.6508444  3
    460    458    461    462     1  0.0000000  0.6508444  3
    460    458    461    472     1  0.0000000  0.6508444  3
    460    458    461    483     1  0.0000000  0.6508444  3
    461    462    465    466     1  0.0000000  0.6508444  3
    461    462    465    467     1  0.0000000  0.6508444  3
    461    472    475    476     1  0.0000000  0.6508444  3
    461    472    475    477     1  0.0000000  0.6508444  3
    462    461    472    473     1  0.0000000  0.6508444  3
    462    461    472    474     1  0.0000000  0.6508444  3
    463    462    465    468     1  0.0000000  0.6508444  3
    463    462    465    466     1  0.0000000  0.6508444  3
    463    462    465    467     1  0.0000000  0.6508444  3
    463    462    461    472     1  0.0000000  0.6508444  3
    463    462    461    483     1  0.0000000  0.6508444  3
    464    462    465    468     1  0.0000000  0.6508444  3
    464    462    465    466     1  0.0000000  0.6508444  3
    464    462    465    467     1  0.0000000  0.6508444  3
    464    462    461    472     1  0.0000000  0.6508444  3
    464    462    461    483     1  0.0000000  0.6508444  3
    465    468    470    471     1  180.0000771  9.6232000  2
    465    462    461    483     1  0.0000000  0.6508444  3
    466    465    468    469     1  0.0000000  3.3472000  1
    466    465    468    469     1  0.0000000  0.0000000  2
    466    465    468    469     1  180.0000771  0.3347200  3
    466    465    468    470     1  180.0000771  0.0000000  2
    467    465    468    469     1  0.0000000  3.3472000  1
    467    465    468    469     1  0.0000000  0.0000000  2
    467    465    468    469     1  180.0000771  0.3347200  3
    467    465    468    470     1  180.0000771  0.0000000  2
    469    468    470    471     1  0.0000000  7.9496000  1
    469    468    470    471     1  180.0000771  9.6232000  2
    473    472    475    478     1  0.0000000  0.6508444  3
    473    472    475    476     1  0.0000000  0.6508444  3
    473    472    475    477     1  0.0000000  0.6508444  3
    473    472    461    483     1  0.0000000  0.6508444  3
    474    472    475    478     1  0.0000000  0.6508444  3
    474    472    475    476     1  0.0000000  0.6508444  3
    474    472    475    477     1  0.0000000  0.6508444  3
    474    472    461    483     1  0.0000000  0.6508444  3
    475    478    480    481     1  180.0000771  9.6232000  2
    475    472    461    483     1  0.0000000  0.6508444  3
    476    475    478    479     1  0.0000000  3.3472000  1
    476    475    478    479     1  0.0000000  0.0000000  2
    476    475    478    479     1  180.0000771  0.3347200  3
    476    475    478    480     1  180.0000771  0.0000000  2
    477    475    478    479     1  0.0000000  3.3472000  1
    477    475    478    479     1  0.0000000  0.0000000  2
    477    475    478    479     1  180.0000771  0.3347200  3
    477    475    478    480     1  180.0000771  0.0000000  2
    479    478    480    481     1  0.0000000  7.9496000  1
    479    478    480    481     1  180.0000771  9.6232000  2
    484    487    490    491     1  0.0000000  0.6508444  3
    484    487    490    492     1  0.0000000  0.6508444  3
    485    484    487    490     1  0.0000000  0.6508444  3
    485    484    487    488     1  0.0000000  0.6508444  3
    485    484    487    489     1  0.0000000  0.6508444  3
    486    484    487    490     1  0.0000000  0.6508444  3
    486    484    487    488     1  0.0000000  0.6508444  3
    486    484    487    489     1  0.0000000  0.6508444  3
    487    490    493    515     1  0.0000000  0.6508444  3
    488    487    484    514     1  0.0000000  1.0460000  1
    488    487    484    514     1  0.0000000  0.0000000  3
    488    487    490    493     1  0.0000000  0.6508444  3
    488    487    490    491     1  0.0000000  0.6508444  3
    488    487    490    492     1  0.0000000  0.6508444  3
    489    487    484    514     1  0.0000000  1.0460000  1
    489    487    484    514     1  0.0000000  0.0000000  3
    489    487    490    493     1  0.0000000  0.6508444  3
    489    487    490    491     1  0.0000000  0.6508444  3
    489    487    490    492     1  0.0000000  0.6508444  3
    490    493    494    495     1  0.0000000  0.6508444  3
    490    493    494    496     1  0.0000000  0.6508444  3
    490    493    504    505     1  0.0000000  0.6508444  3
    490    493    504    506     1  0.0000000  0.6508444  3
    491    490    493    494     1  0.0000000  0.6508444  3
    491    490    493    504     1  0.0000000  0.6508444  3
    491    490    493    515     1  0.0000000  0.6508444  3
    492    490    493    494     1  0.0000000  0.6508444  3
    492    490    493    504     1  0.0000000  0.6508444  3
    492    490    493    515     1  0.0000000  0.6508444  3
    493    494    497    498     1  0.0000000  0.6508444  3
    493    494    497    499     1  0.0000000  0.6508444  3
    493    504    507    508     1  0.0000000  0.6508444  3
    493    504    507    509     1  0.0000000  0.6508444  3
    494    493    504    505     1  0.0000000  0.6508444  3
    494    493    504    506     1  0.0000000  0.6508444  3
    495    494    493    504     1  0.0000000  0.6508444  3
    495    494    493    515     1  0.0000000  0.6508444  3
    495    494    497    500     1  0.0000000  0.6508444  3
    495    494    497    498     1  0.0000000  0.6508444  3
    495    494    497    499     1  0.0000000  0.6508444  3
    496    494    493    504     1  0.0000000  0.6508444  3
    496    494    493    515     1  0.0000000  0.6508444  3
    496    494    497    500     1  0.0000000  0.6508444  3
    496    494    497    498     1  0.0000000  0.6508444  3
    496    494    497    499     1  0.0000000  0.6508444  3
    497    494    493    515     1  0.0000000  0.6508444  3
    497    500    502    503     1  180.0000771  9.6232000  2
    498    497    500    501     1  0.0000000  3.3472000  1
    498    497    500    501     1  0.0000000  0.0000000  2
    498    497    500    501     1  180.0000771  0.3347200  3
    498    497    500    502     1  180.0000771  0.0000000  2
    499    497    500    501     1  0.0000000  3.3472000  1
    499    497    500    501     1  0.0000000  0.0000000  2
    499    497    500    501     1  180.0000771  0.3347200  3
    499    497    500    502     1  180.0000771  0.0000000  2
    501    500    502    503     1  0.0000000  7.9496000  1
    501    500    502    503     1  180.0000771  9.6232000  2
    505    504    493    515     1  0.0000000  0.6508444  3
    505    504    507    510     1  0.0000000  0.6508444  3
    505    504    507    508     1  0.0000000  0.6508444  3
    505    504    507    509     1  0.0000000  0.6508444  3
    506    504    493    515     1  0.0000000  0.6508444  3
    506    504    507    510     1  0.0000000  0.6508444  3
    506    504    507    508     1  0.0000000  0.6508444  3
    506    504    507    509     1  0.0000000  0.6508444  3
    507    504    493    515     1  0.0000000  0.6508444  3
    507    510    512    513     1  180.0000771  9.6232000  2
    508    507    510    511     1  0.0000000  3.3472000  1
    508    507    510    511     1  0.0000000  0.0000000  2
    508    507    510    511     1  180.0000771  0.3347200  3
    508    507    510    512     1  180.0000771  0.0000000  2
    509    507    510    511     1  0.0000000  3.3472000  1
    509    507    510    511     1  0.0000000  0.0000000  2
    509    507    510    511     1  180.0000771  0.3347200  3
    509    507    510    512     1  180.0000771  0.0000000  2
    511    510    512    513     1  0.0000000  7.9496000  1
    511    510    512    513     1  180.0000771  9.6232000  2
    516    519    522    523     1  0.0000000  0.6508444  3
    516    519    522    524     1  0.0000000  0.6508444  3
    517    516    519    522     1  0.0000000  0.6508444  3
    517    516    519    520     1  0.0000000  0.6508444  3
    517    516    519    521     1  0.0000000  0.6508444  3
    518    516    519    522     1  0.0000000  0.6508444  3
    518    516    519    520     1  0.0000000  0.6508444  3
    518    516    519    521     1  0.0000000  0.6508444  3
    519    522    525    547     1  0.0000000  0.6508444  3
    520    519    522    525     1  0.0000000  0.6508444  3
    520    519    522    523     1  0.0000000  0.6508444  3
    520    519    522    524     1  0.0000000  0.6508444  3
    520    519    516    546     1  0.0000000  1.0460000  1
    520    519    516    546     1  0.0000000  0.0000000  3
    521    519    522    525     1  0.0000000  0.6508444  3
    521    519    522    523     1  0.0000000  0.6508444  3
    521    519    522    524     1  0.0000000  0.6508444  3
    521    519    516    546     1  0.0000000  1.0460000  1
    521    519    516    546     1  0.0000000  0.0000000  3
    522    525    526    527     1  0.0000000  0.6508444  3
    522    525    526    528     1  0.0000000  0.6508444  3
    522    525    536    537     1  0.0000000  0.6508444  3
    522    525    536    538     1  0.0000000  0.6508444  3
    523    522    525    526     1  0.0000000  0.6508444  3
    523    522    525    536     1  0.0000000  0.6508444  3
    523    522    525    547     1  0.0000000  0.6508444  3
    524    522    525    526     1  0.0000000  0.6508444  3
    524    522    525    536     1  0.0000000  0.6508444  3
    524    522    525    547     1  0.0000000  0.6508444  3
    525    526    529    530     1  0.0000000  0.6508444  3
    525    526    529    531     1  0.0000000  0.6508444  3
    525    536    539    540     1  0.0000000  0.6508444  3
    525    536    539    541     1  0.0000000  0.6508444  3
    526    525    536    537     1  0.0000000  0.6508444  3
    526    525    536    538     1  0.0000000  0.6508444  3
    527    526    529    532     1  0.0000000  0.6508444  3
    527    526    529    530     1  0.0000000  0.6508444  3
    527    526    529    531     1  0.0000000  0.6508444  3
    527    526    525    536     1  0.0000000  0.6508444  3
    527    526    525    547     1  0.0000000  0.6508444  3
    528    526    529    532     1  0.0000000  0.6508444  3
    528    526    529    530     1  0.0000000  0.6508444  3
    528    526    529    531     1  0.0000000  0.6508444  3
    528    526    525    536     1  0.0000000  0.6508444  3
    528    526    525    547     1  0.0000000  0.6508444  3
    529    532    534    535     1  180.0000771  9.6232000  2
    529    526    525    547     1  0.0000000  0.6508444  3
    530    529    532    533     1  0.0000000  3.3472000  1
    530    529    532    533     1  0.0000000  0.0000000  2
    530    529    532    533     1  180.0000771  0.3347200  3
    530    529    532    534     1  180.0000771  0.0000000  2
    531    529    532    533     1  0.0000000  3.3472000  1
    531    529    532    533     1  0.0000000  0.0000000  2
    531    529    532    533     1  180.0000771  0.3347200  3
    531    529    532    534     1  180.0000771  0.0000000  2
    533    532    534    535     1  0.0000000  7.9496000  1
    533    532    534    535     1  180.0000771  9.6232000  2
    537    536    539    542     1  0.0000000  0.6508444  3
    537    536    539    540     1  0.0000000  0.6508444  3
    537    536    539    541     1  0.0000000  0.6508444  3
    537    536    525    547     1  0.0000000  0.6508444  3
    538    536    539    542     1  0.0000000  0.6508444  3
    538    536    539    540     1  0.0000000  0.6508444  3
    538    536    539    541     1  0.0000000  0.6508444  3
    538    536    525    547     1  0.0000000  0.6508444  3
    539    542    544    545     1  180.0000771  9.6232000  2
    539    536    525    547     1  0.0000000  0.6508444  3
    540    539    542    543     1  0.0000000  3.3472000  1
    540    539    542    543     1  0.0000000  0.0000000  2
    540    539    542    543     1  180.0000771  0.3347200  3
    540    539    542    544     1  180.0000771  0.0000000  2
    541    539    542    543     1  0.0000000  3.3472000  1
    541    539    542    543     1  0.0000000  0.0000000  2
    541    539    542    543     1  180.0000771  0.3347200  3
    541    539    542    544     1  180.0000771  0.0000000  2
    543    542    544    545     1  0.0000000  7.9496000  1
    543    542    544    545     1  180.0000771  9.6232000  2
    548    551    554    555     1  0.0000000  0.6508444  3
    548    551    554    556     1  0.0000000  0.6508444  3
    549    548    551    554     1  0.0000000  0.6508444  3
    549    548    551    552     1  0.0000000  0.6508444  3
    549    548    551    553     1  0.0000000  0.6508444  3
    550    548    551    554     1  0.0000000  0.6508444  3
    550    548    551    552     1  0.0000000  0.6508444  3
    550    548    551    553     1  0.0000000  0.6508444  3
    551    554    557    579     1  0.0000000  0.6508444  3
    552    551    548    578     1  0.0000000  1.0460000  1
    552    551    548    578     1  0.0000000  0.0000000  3
    552    551    554    557     1  0.0000000  0.6508444  3
    552    551    554    555     1  0.0000000  0.6508444  3
    552    551    554    556     1  0.0000000  0.6508444  3
    553    551    548    578     1  0.0000000  1.0460000  1
    553    551    548    578     1  0.0000000  0.0000000  3
    553    551    554    557     1  0.0000000  0.6508444  3
    553    551    554    555     1  0.0000000  0.6508444  3
    553    551    554    556     1  0.0000000  0.6508444  3
    554    557    558    559     1  0.0000000  0.6508444  3
    554    557    558    560     1  0.0000000  0.6508444  3
    554    557    568    569     1  0.0000000  0.6508444  3
    554    557    568    570     1  0.0000000  0.6508444  3
    555    554    557    558     1  0.0000000  0.6508444  3
    555    554    557    568     1  0.0000000  0.6508444  3
    555    554    557    579     1  0.0000000  0.6508444  3
    556    554    557    558     1  0.0000000  0.6508444  3
    556    554    557    568     1  0.0000000  0.6508444  3
    556    554    557    579     1  0.0000000  0.6508444  3
    557    558    561    562     1  0.0000000  0.6508444  3
    557    558    561    563     1  0.0000000  0.6508444  3
    557    568    571    572     1  0.0000000  0.6508444  3
    557    568    571    573     1  0.0000000  0.6508444  3
    558    557    568    569     1  0.0000000  0.6508444  3
    558    557    568    570     1  0.0000000  0.6508444  3
    559    558    557    568     1  0.0000000  0.6508444  3
    559    558    557    579     1  0.0000000  0.6508444  3
    559    558    561    564     1  0.0000000  0.6508444  3
    559    558    561    562     1  0.0000000  0.6508444  3
    559    558    561    563     1  0.0000000  0.6508444  3
    560    558    557    568     1  0.0000000  0.6508444  3
    560    558    557    579     1  0.0000000  0.6508444  3
    560    558    561    564     1  0.0000000  0.6508444  3
    560    558    561    562     1  0.0000000  0.6508444  3
    560    558    561    563     1  0.0000000  0.6508444  3
    561    558    557    579     1  0.0000000  0.6508444  3
    561    564    566    567     1  180.0000771  9.6232000  2
    562    561    564    565     1  0.0000000  3.3472000  1
    562    561    564    565     1  0.0000000  0.0000000  2
    562    561    564    565     1  180.0000771  0.3347200  3
    562    561    564    566     1  180.0000771  0.0000000  2
    563    561    564    565     1  0.0000000  3.3472000  1
    563    561    564    565     1  0.0000000  0.0000000  2
    563    561    564    565     1  180.0000771  0.3347200  3
    563    561    564    566     1  180.0000771  0.0000000  2
    565    564    566    567     1  0.0000000  7.9496000  1
    565    564    566    567     1  180.0000771  9.6232000  2
    569    568    557    579     1  0.0000000  0.6508444  3
    569    568    571    574     1  0.0000000  0.6508444  3
    569    568    571    572     1  0.0000000  0.6508444  3
    569    568    571    573     1  0.0000000  0.6508444  3
    570    568    557    579     1  0.0000000  0.6508444  3
    570    568    571    574     1  0.0000000  0.6508444  3
    570    568    571    572     1  0.0000000  0.6508444  3
    570    568    571    573     1  0.0000000  0.6508444  3
    571    568    557    579     1  0.0000000  0.6508444  3
    571    574    576    577     1  180.0000771  9.6232000  2
    572    571    574    575     1  0.0000000  3.3472000  1
    572    571    574    575     1  0.0000000  0.0000000  2
    572    571    574    575     1  180.0000771  0.3347200  3
    572    571    574    576     1  180.0000771  0.0000000  2
    573    571    574    575     1  0.0000000  3.3472000  1
    573    571    574    575     1  0.0000000  0.0000000  2
    573    571    574    575     1  180.0000771  0.3347200  3
    573    571    574    576     1  180.0000771  0.0000000  2
    575    574    576    577     1  0.0000000  7.9496000  1
    575    574    576    577     1  180.0000771  9.6232000  2
    580    583    586    587     1  0.0000000  0.6508444  3
    580    583    586    588     1  0.0000000  0.6508444  3
    581    580    583    586     1  0.0000000  0.6508444  3
    581    580    583    584     1  0.0000000  0.6508444  3
    581    580    583    585     1  0.0000000  0.6508444  3
    582    580    583    586     1  0.0000000  0.6508444  3
    582    580    583    584     1  0.0000000  0.6508444  3
    582    580    583    585     1  0.0000000  0.6508444  3
    583    586    589    611     1  0.0000000  0.6508444  3
    584    583    586    589     1  0.0000000  0.6508444  3
    584    583    586    587     1  0.0000000  0.6508444  3
    584    583    586    588     1  0.0000000  0.6508444  3
    584    583    580    610     1  0.0000000  1.0460000  1
    584    583    580    610     1  0.0000000  0.0000000  3
    585    583    586    589     1  0.0000000  0.6508444  3
    585    583    586    587     1  0.0000000  0.6508444  3
    585    583    586    588     1  0.0000000  0.6508444  3
    585    583    580    610     1  0.0000000  1.0460000  1
    585    583    580    610     1  0.0000000  0.0000000  3
    586    589    590    591     1  0.0000000  0.6508444  3
    586    589    590    592     1  0.0000000  0.6508444  3
    586    589    600    601     1  0.0000000  0.6508444  3
    586    589    600    602     1  0.0000000  0.6508444  3
    587    586    589    590     1  0.0000000  0.6508444  3
    587    586    589    600     1  0.0000000  0.6508444  3
    587    586    589    611     1  0.0000000  0.6508444  3
    588    586    589    590     1  0.0000000  0.6508444  3
    588    586    589    600     1  0.0000000  0.6508444  3
    588    586    589    611     1  0.0000000  0.6508444  3
    589    590    593    594     1  0.0000000  0.6508444  3
    589    590    593    595     1  0.0000000  0.6508444  3
    589    600    603    604     1  0.0000000  0.6508444  3
    589    600    603    605     1  0.0000000  0.6508444  3
    590    589    600    601     1  0.0000000  0.6508444  3
    590    589    600    602     1  0.0000000  0.6508444  3
    591    590    593    596     1  0.0000000  0.6508444  3
    591    590    593    594     1  0.0000000  0.6508444  3
    591    590    593    595     1  0.0000000  0.6508444  3
    591    590    589    600     1  0.0000000  0.6508444  3
    591    590    589    611     1  0.0000000  0.6508444  3
    592    590    593    596     1  0.0000000  0.6508444  3
    592    590    593    594     1  0.0000000  0.6508444  3
    592    590    593    595     1  0.0000000  0.6508444  3
    592    590    589    600     1  0.0000000  0.6508444  3
    592    590    589    611     1  0.0000000  0.6508444  3
    593    596    598    599     1  180.0000771  9.6232000  2
    593    590    589    611     1  0.0000000  0.6508444  3
    594    593    596    597     1  0.0000000  3.3472000  1
    594    593    596    597     1  0.0000000  0.0000000  2
    594    593    596    597     1  180.0000771  0.3347200  3
    594    593    596    598     1  180.0000771  0.0000000  2
    595    593    596    597     1  0.0000000  3.3472000  1
    595    593    596    597     1  0.0000000  0.0000000  2
    595    593    596    597     1  180.0000771  0.3347200  3
    595    593    596    598     1  180.0000771  0.0000000  2
    597    596    598    599     1  0.0000000  7.9496000  1
    597    596    598    599     1  180.0000771  9.6232000  2
    601    600    603    606     1  0.0000000  0.6508444  3
    601    600    603    604     1  0.0000000  0.6508444  3
    601    600    603    605     1  0.0000000  0.6508444  3
    601    600    589    611     1  0.0000000  0.6508444  3
    602    600    603    606     1  0.0000000  0.6508444  3
    602    600    603    604     1  0.0000000  0.6508444  3
    602    600    603    605     1  0.0000000  0.6508444  3
    602    600    589    611     1  0.0000000  0.6508444  3
    603    606    608    609     1  180.0000771  9.6232000  2
    603    600    589    611     1  0.0000000  0.6508444  3
    604    603    606    607     1  0.0000000  3.3472000  1
    604    603    606    607     1  0.0000000  0.0000000  2
    604    603    606    607     1  180.0000771  0.3347200  3
    604    603    606    608     1  180.0000771  0.0000000  2
    605    603    606    607     1  0.0000000  3.3472000  1
    605    603    606    607     1  0.0000000  0.0000000  2
    605    603    606    607     1  180.0000771  0.3347200  3
    605    603    606    608     1  180.0000771  0.0000000  2
    607    606    608    609     1  0.0000000  7.9496000  1
    607    606    608    609     1  180.0000771  9.6232000  2
    612    615    618    619     1  0.0000000  0.6508444  3
    612    615    618    620     1  0.0000000  0.6508444  3
    613    612    615    618     1  0.0000000  0.6508444  3
    613    612    615    616     1  0.0000000  0.6508444  3
    613    612    615    617     1  0.0000000  0.6508444  3
    614    612    615    618     1  0.0000000  0.6508444  3
    614    612    615    616     1  0.0000000  0.6508444  3
    614    612    615    617     1  0.0000000  0.6508444  3
    615    618    621    643     1  0.0000000  0.6508444  3
    616    615    612    642     1  0.0000000  1.0460000  1
    616    615    612    642     1  0.0000000  0.0000000  3
    616    615    618    621     1  0.0000000  0.6508444  3
    616    615    618    619     1  0.0000000  0.6508444  3
    616    615    618    620     1  0.0000000  0.6508444  3
    617    615    612    642     1  0.0000000  1.0460000  1
    617    615    612    642     1  0.0000000  0.0000000  3
    617    615    618    621     1  0.0000000  0.6508444  3
    617    615    618    619     1  0.0000000  0.6508444  3
    617    615    618    620     1  0.0000000  0.6508444  3
    618    621    622    623     1  0.0000000  0.6508444  3
    618    621    622    624     1  0.0000000  0.6508444  3
    618    621    632    633     1  0.0000000  0.6508444  3
    618    621    632    634     1  0.0000000  0.6508444  3
    619    618    621    622     1  0.0000000  0.6508444  3
    619    618    621    632     1  0.0000000  0.6508444  3
    619    618    621    643     1  0.0000000  0.6508444  3
    620    618    621    622     1  0.0000000  0.6508444  3
    620    618    621    632     1  0.0000000  0.6508444  3
    620    618    621    643     1  0.0000000  0.6508444  3
    621    622    625    626     1  0.0000000  0.6508444  3
    621    622    625    627     1  0.0000000  0.6508444  3
    621    632    635    636     1  0.0000000  0.6508444  3
    621    632    635    637     1  0.0000000  0.6508444  3
    622    621    632    633     1  0.0000000  0.6508444  3
    622    621    632    634     1  0.0000000  0.6508444  3
    623    622    621    632     1  0.0000000  0.6508444  3
    623    622    621    643     1  0.0000000  0.6508444  3
    623    622    625    628     1  0.0000000  0.6508444  3
    623    622    625    626     1  0.0000000  0.6508444  3
    623    622    625    627     1  0.0000000  0.6508444  3
    624    622    621    632     1  0.0000000  0.6508444  3
    624    622    621    643     1  0.0000000  0.6508444  3
    624    622    625    628     1  0.0000000  0.6508444  3
    624    622    625    626     1  0.0000000  0.6508444  3
    624    622    625    627     1  0.0000000  0.6508444  3
    625    622    621    643     1  0.0000000  0.6508444  3
    625    628    630    631     1  180.0000771  9.6232000  2
    626    625    628    629     1  0.0000000  3.3472000  1
    626    625    628    629     1  0.0000000  0.0000000  2
    626    625    628    629     1  180.0000771  0.3347200  3
    626    625    628    630     1  180.0000771  0.0000000  2
    627    625    628    629     1  0.0000000  3.3472000  1
    627    625    628    629     1  0.0000000  0.0000000  2
    627    625    628    629     1  180.0000771  0.3347200  3
    627    625    628    630     1  180.0000771  0.0000000  2
    629    628    630    631     1  0.0000000  7.9496000  1
    629    628    630    631     1  180.0000771  9.6232000  2
    633    632    621    643     1  0.0000000  0.6508444  3
    633    632    635    638     1  0.0000000  0.6508444  3
    633    632    635    636     1  0.0000000  0.6508444  3
    633    632    635    637     1  0.0000000  0.6508444  3
    634    632    621    643     1  0.0000000  0.6508444  3
    634    632    635    638     1  0.0000000  0.6508444  3
    634    632    635    636     1  0.0000000  0.6508444  3
    634    632    635    637     1  0.0000000  0.6508444  3
    635    632    621    643     1  0.0000000  0.6508444  3
    635    638    640    641     1  180.0000771  9.6232000  2
    636    635    638    639     1  0.0000000  3.3472000  1
    636    635    638    639     1  0.0000000  0.0000000  2
    636    635    638    639     1  180.0000771  0.3347200  3
    636    635    638    640     1  180.0000771  0.0000000  2
    637    635    638    639     1  0.0000000  3.3472000  1
    637    635    638    639     1  0.0000000  0.0000000  2
    637    635    638    639     1  180.0000771  0.3347200  3
    637    635    638    640     1  180.0000771  0.0000000  2
    639    638    640    641     1  0.0000000  7.9496000  1
    639    638    640    641     1  180.0000771  9.6232000  2
    644    647    650    651     1  0.0000000  0.6508444  3
    644    647    650    652     1  0.0000000  0.6508444  3
    645    644    647    650     1  0.0000000  0.6508444  3
    645    644    647    648     1  0.0000000  0.6508444  3
    645    644    647    649     1  0.0000000  0.6508444  3
    646    644    647    650     1  0.0000000  0.6508444  3
    646    644    647    648     1  0.0000000  0.6508444  3
    646    644    647    649     1  0.0000000  0.6508444  3
    647    650    653    675     1  0.0000000  0.6508444  3
    648    647    650    653     1  0.0000000  0.6508444  3
    648    647    650    651     1  0.0000000  0.6508444  3
    648    647    650    652     1  0.0000000  0.6508444  3
    648    647    644    674     1  0.0000000  1.0460000  1
    648    647    644    674     1  0.0000000  0.0000000  3
    649    647    650    653     1  0.0000000  0.6508444  3
    649    647    650    651     1  0.0000000  0.6508444  3
    649    647    650    652     1  0.0000000  0.6508444  3
    649    647    644    674     1  0.0000000  1.0460000  1
    649    647    644    674     1  0.0000000  0.0000000  3
    650    653    654    655     1  0.0000000  0.6508444  3
    650    653    654    656     1  0.0000000  0.6508444  3
    650    653    664    665     1  0.0000000  0.6508444  3
    650    653    664    666     1  0.0000000  0.6508444  3
    651    650    653    654     1  0.0000000  0.6508444  3
    651    650    653    664     1  0.0000000  0.6508444  3
    651    650    653    675     1  0.0000000  0.6508444  3
    652    650    653    654     1  0.0000000  0.6508444  3
    652    650    653    664     1  0.0000000  0.6508444  3
    652    650    653    675     1  0.0000000  0.6508444  3
    653    654    657    658     1  0.0000000  0.6508444  3
    653    654    657    659     1  0.0000000  0.6508444  3
    653    664    667    668     1  0.0000000  0.6508444  3
    653    664    667    669     1  0.0000000  0.6508444  3
    654    653    664    665     1  0.0000000  0.6508444  3
    654    653    664    666     1  0.0000000  0.6508444  3
    655    654    657    660     1  0.0000000  0.6508444  3
    655    654    657    658     1  0.0000000  0.6508444  3
    655    654    657    659     1  0.0000000  0.6508444  3
    655    654    653    664     1  0.0000000  0.6508444  3
    655    654    653    675     1  0.0000000  0.6508444  3
    656    654    657    660     1  0.0000000  0.6508444  3
    656    654    657    658     1  0.0000000  0.6508444  3
    656    654    657    659     1  0.0000000  0.6508444  3
    656    654    653    664     1  0.0000000  0.6508444  3
    656    654    653    675     1  0.0000000  0.6508444  3
    657    660    662    663     1  180.0000771  9.6232000  2
    657    654    653    675     1  0.0000000  0.6508444  3
    658    657    660    661     1  0.0000000  3.3472000  1
    658    657    660    661     1  0.0000000  0.0000000  2
    658    657    660    661     1  180.0000771  0.3347200  3
    658    657    660    662     1  180.0000771  0.0000000  2
    659    657    660    661     1  0.0000000  3.3472000  1
    659    657    660    661     1  0.0000000  0.0000000  2
    659    657    660    661     1  180.0000771  0.3347200  3
    659    657    660    662     1  180.0000771  0.0000000  2
    661    660    662    663     1  0.0000000  7.9496000  1
    661    660    662    663     1  180.0000771  9.6232000  2
    665    664    667    670     1  0.0000000  0.6508444  3
    665    664    667    668     1  0.0000000  0.6508444  3
    665    664    667    669     1  0.0000000  0.6508444  3
    665    664    653    675     1  0.0000000  0.6508444  3
    666    664    667    670     1  0.0000000  0.6508444  3
    666    664    667    668     1  0.0000000  0.6508444  3
    666    664    667    669     1  0.0000000  0.6508444  3
    666    664    653    675     1  0.0000000  0.6508444  3
    667    670    672    673     1  180.0000771  9.6232000  2
    667    664    653    675     1  0.0000000  0.6508444  3
    668    667    670    671     1  0.0000000  3.3472000  1
    668    667    670    671     1  0.0000000  0.0000000  2
    668    667    670    671     1  180.0000771  0.3347200  3
    668    667    670    672     1  180.0000771  0.0000000  2
    669    667    670    671     1  0.0000000  3.3472000  1
    669    667    670    671     1  0.0000000  0.0000000  2
    669    667    670    671     1  180.0000771  0.3347200  3
    669    667    670    672     1  180.0000771  0.0000000  2
    671    670    672    673     1  0.0000000  7.9496000  1
    671    670    672    673     1  180.0000771  9.6232000  2
    676    679    682    683     1  0.0000000  0.6508444  3
    676    679    682    684     1  0.0000000  0.6508444  3
    677    676    679    682     1  0.0000000  0.6508444  3
    677    676    679    680     1  0.0000000  0.6508444  3
    677    676    679    681     1  0.0000000  0.6508444  3
    678    676    679    682     1  0.0000000  0.6508444  3
    678    676    679    680     1  0.0000000  0.6508444  3
    678    676    679    681     1  0.0000000  0.6508444  3
    679    682    685    707     1  0.0000000  0.6508444  3
    680    679    676    706     1  0.0000000  1.0460000  1
    680    679    676    706     1  0.0000000  0.0000000  3
    680    679    682    685     1  0.0000000  0.6508444  3
    680    679    682    683     1  0.0000000  0.6508444  3
    680    679    682    684     1  0.0000000  0.6508444  3
    681    679    676    706     1  0.0000000  1.0460000  1
    681    679    676    706     1  0.0000000  0.0000000  3
    681    679    682    685     1  0.0000000  0.6508444  3
    681    679    682    683     1  0.0000000  0.6508444  3
    681    679    682    684     1  0.0000000  0.6508444  3
    682    685    686    687     1  0.0000000  0.6508444  3
    682    685    686    688     1  0.0000000  0.6508444  3
    682    685    696    697     1  0.0000000  0.6508444  3
    682    685    696    698     1  0.0000000  0.6508444  3
    683    682    685    686     1  0.0000000  0.6508444  3
    683    682    685    696     1  0.0000000  0.6508444  3
    683    682    685    707     1  0.0000000  0.6508444  3
    684    682    685    686     1  0.0000000  0.6508444  3
    684    682    685    696     1  0.0000000  0.6508444  3
    684    682    685    707     1  0.0000000  0.6508444  3
    685    686    689    690     1  0.0000000  0.6508444  3
    685    686    689    691     1  0.0000000  0.6508444  3
    685    696    699    700     1  0.0000000  0.6508444  3
    685    696    699    701     1  0.0000000  0.6508444  3
    686    685    696    697     1  0.0000000  0.6508444  3
    686    685    696    698     1  0.0000000  0.6508444  3
    687    686    685    696     1  0.0000000  0.6508444  3
    687    686    685    707     1  0.0000000  0.6508444  3
    687    686    689    692     1  0.0000000  0.6508444  3
    687    686    689    690     1  0.0000000  0.6508444  3
    687    686    689    691     1  0.0000000  0.6508444  3
    688    686    685    696     1  0.0000000  0.6508444  3
    688    686    685    707     1  0.0000000  0.6508444  3
    688    686    689    692     1  0.0000000  0.6508444  3
    688    686    689    690     1  0.0000000  0.6508444  3
    688    686    689    691     1  0.0000000  0.6508444  3
    689    686    685    707     1  0.0000000  0.6508444  3
    689    692    694    695     1  180.0000771  9.6232000  2
    690    689    692    693     1  0.0000000  3.3472000  1
    690    689    692    693     1  0.0000000  0.0000000  2
    690    689    692    693     1  180.0000771  0.3347200  3
    690    689    692    694     1  180.0000771  0.0000000  2
    691    689    692    693     1  0.0000000  3.3472000  1
    691    689    692    693     1  0.0000000  0.0000000  2
    691    689    692    693     1  180.0000771  0.3347200  3
    691    689    692    694     1  180.0000771  0.0000000  2
    693    692    694    695     1  0.0000000  7.9496000  1
    693    692    694    695     1  180.0000771  9.6232000  2
    697    696    685    707     1  0.0000000  0.6508444  3
    697    696    699    702     1  0.0000000  0.6508444  3
    697    696    699    700     1  0.0000000  0.6508444  3
    697    696    699    701     1  0.0000000  0.6508444  3
    698    696    685    707     1  0.0000000  0.6508444  3
    698    696    699    702     1  0.0000000  0.6508444  3
    698    696    699    700     1  0.0000000  0.6508444  3
    698    696    699    701     1  0.0000000  0.6508444  3
    699    696    685    707     1  0.0000000  0.6508444  3
    699    702    704    705     1  180.0000771  9.6232000  2
    700    699    702    703     1  0.0000000  3.3472000  1
    700    699    702    703     1  0.0000000  0.0000000  2
    700    699    702    703     1  180.0000771  0.3347200  3
    700    699    702    704     1  180.0000771  0.0000000  2
    701    699    702    703     1  0.0000000  3.3472000  1
    701    699    702    703     1  0.0000000  0.0000000  2
    701    699    702    703     1  180.0000771  0.3347200  3
    701    699    702    704     1  180.0000771  0.0000000  2
    703    702    704    705     1  0.0000000  7.9496000  1
    703    702    704    705     1  180.0000771  9.6232000  2
    708    711    714    715     1  0.0000000  0.6508444  3
    708    711    714    716     1  0.0000000  0.6508444  3
    709    708    711    714     1  0.0000000  0.6508444  3
    709    708    711    712     1  0.0000000  0.6508444  3
    709    708    711    713     1  0.0000000  0.6508444  3
    710    708    711    714     1  0.0000000  0.6508444  3
    710    708    711    712     1  0.0000000  0.6508444  3
    710    708    711    713     1  0.0000000  0.6508444  3
    711    714    717    739     1  0.0000000  0.6508444  3
    712    711    714    717     1  0.0000000  0.6508444  3
    712    711    714    715     1  0.0000000  0.6508444  3
    712    711    714    716     1  0.0000000  0.6508444  3
    712    711    708    738     1  0.0000000  1.0460000  1
    712    711    708    738     1  0.0000000  0.0000000  3
    713    711    714    717     1  0.0000000  0.6508444  3
    713    711    714    715     1  0.0000000  0.6508444  3
    713    711    714    716     1  0.0000000  0.6508444  3
    713    711    708    738     1  0.0000000  1.0460000  1
    713    711    708    738     1  0.0000000  0.0000000  3
    714    717    718    719     1  0.0000000  0.6508444  3
    714    717    718    720     1  0.0000000  0.6508444  3
    714    717    728    729     1  0.0000000  0.6508444  3
    714    717    728    730     1  0.0000000  0.6508444  3
    715    714    717    718     1  0.0000000  0.6508444  3
    715    714    717    728     1  0.0000000  0.6508444  3
    715    714    717    739     1  0.0000000  0.6508444  3
    716    714    717    718     1  0.0000000  0.6508444  3
    716    714    717    728     1  0.0000000  0.6508444  3
    716    714    717    739     1  0.0000000  0.6508444  3
    717    718    721    722     1  0.0000000  0.6508444  3
    717    718    721    723     1  0.0000000  0.6508444  3
    717    728    731    732     1  0.0000000  0.6508444  3
    717    728    731    733     1  0.0000000  0.6508444  3
    718    717    728    729     1  0.0000000  0.6508444  3
    718    717    728    730     1  0.0000000  0.6508444  3
    719    718    721    724     1  0.0000000  0.6508444  3
    719    718    721    722     1  0.0000000  0.6508444  3
    719    718    721    723     1  0.0000000  0.6508444  3
    719    718    717    728     1  0.0000000  0.6508444  3
    719    718    717    739     1  0.0000000  0.6508444  3
    720    718    721    724     1  0.0000000  0.6508444  3
    720    718    721    722     1  0.0000000  0.6508444  3
    720    718    721    723     1  0.0000000  0.6508444  3
    720    718    717    728     1  0.0000000  0.6508444  3
    720    718    717    739     1  0.0000000  0.6508444  3
    721    724    726    727     1  180.0000771  9.6232000  2
    721    718    717    739     1  0.0000000  0.6508444  3
    722    721    724    725     1  0.0000000  3.3472000  1
    722    721    724    725     1  0.0000000  0.0000000  2
    722    721    724    725     1  180.0000771  0.3347200  3
    722    721    724    726     1  180.0000771  0.0000000  2
    723    721    724    725     1  0.0000000  3.3472000  1
    723    721    724    725     1  0.0000000  0.0000000  2
    723    721    724    725     1  180.0000771  0.3347200  3
    723    721    724    726     1  180.0000771  0.0000000  2
    725    724    726    727     1  0.0000000  7.9496000  1
    725    724    726    727     1  180.0000771  9.6232000  2
    729    728    731    734     1  0.0000000  0.6508444  3
    729    728    731    732     1  0.0000000  0.6508444  3
    729    728    731    733     1  0.0000000  0.6508444  3
    729    728    717    739     1  0.0000000  0.6508444  3
    730    728    731    734     1  0.0000000  0.6508444  3
    730    728    731    732     1  0.0000000  0.6508444  3
    730    728    731    733     1  0.0000000  0.6508444  3
    730    728    717    739     1  0.0000000  0.6508444  3
    731    734    736    737     1  180.0000771  9.6232000  2
    731    728    717    739     1  0.0000000  0.6508444  3
    732    731    734    735     1  0.0000000  3.3472000  1
    732    731    734    735     1  0.0000000  0.0000000  2
    732    731    734    735     1  180.0000771  0.3347200  3
    732    731    734    736     1  180.0000771  0.0000000  2
    733    731    734    735     1  0.0000000  3.3472000  1
    733    731    734    735     1  0.0000000  0.0000000  2
    733    731    734    735     1  180.0000771  0.3347200  3
    733    731    734    736     1  180.0000771  0.0000000  2
    735    734    736    737     1  0.0000000  7.9496000  1
    735    734    736    737     1  180.0000771  9.6232000  2
    740    743    746    747     1  0.0000000  0.6508444  3
    740    743    746    748     1  0.0000000  0.6508444  3
    741    740    743    746     1  0.0000000  0.6508444  3
    741    740    743    744     1  0.0000000  0.6508444  3
    741    740    743    745     1  0.0000000  0.6508444  3
    742    740    743    746     1  0.0000000  0.6508444  3
    742    740    743    744     1  0.0000000  0.6508444  3
    742    740    743    745     1  0.0000000  0.6508444  3
    743    746    749    771     1  0.0000000  0.6508444  3
    744    743    740    770     1  0.0000000  1.0460000  1
    744    743    740    770     1  0.0000000  0.0000000  3
    744    743    746    749     1  0.0000000  0.6508444  3
    744    743    746    747     1  0.0000000  0.6508444  3
    744    743    746    748     1  0.0000000  0.6508444  3
    745    743    740    770     1  0.0000000  1.0460000  1
    745    743    740    770     1  0.0000000  0.0000000  3
    745    743    746    749     1  0.0000000  0.6508444  3
    745    743    746    747     1  0.0000000  0.6508444  3
    745    743    746    748     1  0.0000000  0.6508444  3
    746    749    750    751     1  0.0000000  0.6508444  3
    746    749    750    752     1  0.0000000  0.6508444  3
    746    749    760    761     1  0.0000000  0.6508444  3
    746    749    760    762     1  0.0000000  0.6508444  3
    747    746    749    750     1  0.0000000  0.6508444  3
    747    746    749    760     1  0.0000000  0.6508444  3
    747    746    749    771     1  0.0000000  0.6508444  3
    748    746    749    750     1  0.0000000  0.6508444  3
    748    746    749    760     1  0.0000000  0.6508444  3
    748    746    749    771     1  0.0000000  0.6508444  3
    749    750    753    754     1  0.0000000  0.6508444  3
    749    750    753    755     1  0.0000000  0.6508444  3
    749    760    763    764     1  0.0000000  0.6508444  3
    749    760    763    765     1  0.0000000  0.6508444  3
    750    749    760    761     1  0.0000000  0.6508444  3
    750    749    760    762     1  0.0000000  0.6508444  3
    751    750    749    760     1  0.0000000  0.6508444  3
    751    750    749    771     1  0.0000000  0.6508444  3
    751    750    753    756     1  0.0000000  0.6508444  3
    751    750    753    754     1  0.0000000  0.6508444  3
    751    750    753    755     1  0.0000000  0.6508444  3
    752    750    749    760     1  0.0000000  0.6508444  3
    752    750    749    771     1  0.0000000  0.6508444  3
    752    750    753    756     1  0.0000000  0.6508444  3
    752    750    753    754     1  0.0000000  0.6508444  3
    752    750    753    755     1  0.0000000  0.6508444  3
    753    750    749    771     1  0.0000000  0.6508444  3
    753    756    758    759     1  180.0000771  9.6232000  2
    754    753    756    757     1  0.0000000  3.3472000  1
    754    753    756    757     1  0.0000000  0.0000000  2
    754    753    756    757     1  180.0000771  0.3347200  3
    754    753    756    758     1  180.0000771  0.0000000  2
    755    753    756    757     1  0.0000000  3.3472000  1
    755    753    756    757     1  0.0000000  0.0000000  2
    755    753    756    757     1  180.0000771  0.3347200  3
    755    753    756    758     1  180.0000771  0.0000000  2
    757    756    758    759     1  0.0000000  7.9496000  1
    757    756    758    759     1  180.0000771  9.6232000  2
    761    760    749    771     1  0.0000000  0.6508444  3
    761    760    763    766     1  0.0000000  0.6508444  3
    761    760    763    764     1  0.0000000  0.6508444  3
    761    760    763    765     1  0.0000000  0.6508444  3
    762    760    749    771     1  0.0000000  0.6508444  3
    762    760    763    766     1  0.0000000  0.6508444  3
    762    760    763    764     1  0.0000000  0.6508444  3
    762    760    763    765     1  0.0000000  0.6508444  3
    763    760    749    771     1  0.0000000  0.6508444  3
    763    766    768    769     1  180.0000771  9.6232000  2
    764    763    766    767     1  0.0000000  3.3472000  1
    764    763    766    767     1  0.0000000  0.0000000  2
    764    763    766    767     1  180.0000771  0.3347200  3
    764    763    766    768     1  180.0000771  0.0000000  2
    765    763    766    767     1  0.0000000  3.3472000  1
    765    763    766    767     1  0.0000000  0.0000000  2
    765    763    766    767     1  180.0000771  0.3347200  3
    765    763    766    768     1  180.0000771  0.0000000  2
    767    766    768    769     1  0.0000000  7.9496000  1
    767    766    768    769     1  180.0000771  9.6232000  2
    772    775    778    779     1  0.0000000  0.6508444  3
    772    775    778    780     1  0.0000000  0.6508444  3
    773    772    775    778     1  0.0000000  0.6508444  3
    773    772    775    776     1  0.0000000  0.6508444  3
    773    772    775    777     1  0.0000000  0.6508444  3
    774    772    775    778     1  0.0000000  0.6508444  3
    774    772    775    776     1  0.0000000  0.6508444  3
    774    772    775    777     1  0.0000000  0.6508444  3
    775    778    781    803     1  0.0000000  0.6508444  3
    776    775    778    781     1  0.0000000  0.6508444  3
    776    775    778    779     1  0.0000000  0.6508444  3
    776    775    778    780     1  0.0000000  0.6508444  3
    776    775    772    802     1  0.0000000  1.0460000  1
    776    775    772    802     1  0.0000000  0.0000000  3
    777    775    778    781     1  0.0000000  0.6508444  3
    777    775    778    779     1  0.0000000  0.6508444  3
    777    775    778    780     1  0.0000000  0.6508444  3
    777    775    772    802     1  0.0000000  1.0460000  1
    777    775    772    802     1  0.0000000  0.0000000  3
    778    781    782    783     1  0.0000000  0.6508444  3
    778    781    782    784     1  0.0000000  0.6508444  3
    778    781    792    793     1  0.0000000  0.6508444  3
    778    781    792    794     1  0.0000000  0.6508444  3
    779    778    781    782     1  0.0000000  0.6508444  3
    779    778    781    792     1  0.0000000  0.6508444  3
    779    778    781    803     1  0.0000000  0.6508444  3
    780    778    781    782     1  0.0000000  0.6508444  3
    780    778    781    792     1  0.0000000  0.6508444  3
    780    778    781    803     1  0.0000000  0.6508444  3
    781    782    785    786     1  0.0000000  0.6508444  3
    781    782    785    787     1  0.0000000  0.6508444  3
    781    792    795    796     1  0.0000000  0.6508444  3
    781    792    795    797     1  0.0000000  0.6508444  3
    782    781    792    793     1  0.0000000  0.6508444  3
    782    781    792    794     1  0.0000000  0.6508444  3
    783    782    785    788     1  0.0000000  0.6508444  3
    783    782    785    786     1  0.0000000  0.6508444  3
    783    782    785    787     1  0.0000000  0.6508444  3
    783    782    781    792     1  0.0000000  0.6508444  3
    783    782    781    803     1  0.0000000  0.6508444  3
    784    782    785    788     1  0.0000000  0.6508444  3
    784    782    785    786     1  0.0000000  0.6508444  3
    784    782    785    787     1  0.0000000  0.6508444  3
    784    782    781    792     1  0.0000000  0.6508444  3
    784    782    781    803     1  0.0000000  0.6508444  3
    785    788    790    791     1  180.0000771  9.6232000  2
    785    782    781    803     1  0.0000000  0.6508444  3
    786    785    788    789     1  0.0000000  3.3472000  1
    786    785    788    789     1  0.0000000  0.0000000  2
    786    785    788    789     1  180.0000771  0.3347200  3
    786    785    788    790     1  180.0000771  0.0000000  2
    787    785    788    789     1  0.0000000  3.3472000  1
    787    785    788    789     1  0.0000000  0.0000000  2
    787    785    788    789     1  180.0000771  0.3347200  3
    787    785    788    790     1  180.0000771  0.0000000  2
    789    788    790    791     1  0.0000000  7.9496000  1
    789    788    790    791     1  180.0000771  9.6232000  2
    793    792    795    798     1  0.0000000  0.6508444  3
    793    792    795    796     1  0.0000000  0.6508444  3
    793    792    795    797     1  0.0000000  0.6508444  3
    793    792    781    803     1  0.0000000  0.6508444  3
    794    792    795    798     1  0.0000000  0.6508444  3
    794    792    795    796     1  0.0000000  0.6508444  3
    794    792    795    797     1  0.0000000  0.6508444  3
    794    792    781    803     1  0.0000000  0.6508444  3
    795    798    800    801     1  180.0000771  9.6232000  2
    795    792    781    803     1  0.0000000  0.6508444  3
    796    795    798    799     1  0.0000000  3.3472000  1
    796    795    798    799     1  0.0000000  0.0000000  2
    796    795    798    799     1  180.0000771  0.3347200  3
    796    795    798    800     1  180.0000771  0.0000000  2
    797    795    798    799     1  0.0000000  3.3472000  1
    797    795    798    799     1  0.0000000  0.0000000  2
    797    795    798    799     1  180.0000771  0.3347200  3
    797    795    798    800     1  180.0000771  0.0000000  2
    799    798    800    801     1  0.0000000  7.9496000  1
    799    798    800    801     1  180.0000771  9.6232000  2
    804    807    810    811     1  0.0000000  0.6508444  3
    804    807    810    812     1  0.0000000  0.6508444  3
    805    804    807    810     1  0.0000000  0.6508444  3
    805    804    807    808     1  0.0000000  0.6508444  3
    805    804    807    809     1  0.0000000  0.6508444  3
    806    804    807    810     1  0.0000000  0.6508444  3
    806    804    807    808     1  0.0000000  0.6508444  3
    806    804    807    809     1  0.0000000  0.6508444  3
    807    810    813    835     1  0.0000000  0.6508444  3
    808    807    804    834     1  0.0000000  1.0460000  1
    808    807    804    834     1  0.0000000  0.0000000  3
    808    807    810    813     1  0.0000000  0.6508444  3
    808    807    810    811     1  0.0000000  0.6508444  3
    808    807    810    812     1  0.0000000  0.6508444  3
    809    807    804    834     1  0.0000000  1.0460000  1
    809    807    804    834     1  0.0000000  0.0000000  3
    809    807    810    813     1  0.0000000  0.6508444  3
    809    807    810    811     1  0.0000000  0.6508444  3
    809    807    810    812     1  0.0000000  0.6508444  3
    810    813    814    815     1  0.0000000  0.6508444  3
    810    813    814    816     1  0.0000000  0.6508444  3
    810    813    824    825     1  0.0000000  0.6508444  3
    810    813    824    826     1  0.0000000  0.6508444  3
    811    810    813    814     1  0.0000000  0.6508444  3
    811    810    813    824     1  0.0000000  0.6508444  3
    811    810    813    835     1  0.0000000  0.6508444  3
    812    810    813    814     1  0.0000000  0.6508444  3
    812    810    813    824     1  0.0000000  0.6508444  3
    812    810    813    835     1  0.0000000  0.6508444  3
    813    814    817    818     1  0.0000000  0.6508444  3
    813    814    817    819     1  0.0000000  0.6508444  3
    813    824    827    828     1  0.0000000  0.6508444  3
    813    824    827    829     1  0.0000000  0.6508444  3
    814    813    824    825     1  0.0000000  0.6508444  3
    814    813    824    826     1  0.0000000  0.6508444  3
    815    814    813    824     1  0.0000000  0.6508444  3
    815    814    813    835     1  0.0000000  0.6508444  3
    815    814    817    820     1  0.0000000  0.6508444  3
    815    814    817    818     1  0.0000000  0.6508444  3
    815    814    817    819     1  0.0000000  0.6508444  3
    816    814    813    824     1  0.0000000  0.6508444  3
    816    814    813    835     1  0.0000000  0.6508444  3
    816    814    817    820     1  0.0000000  0.6508444  3
    816    814    817    818     1  0.0000000  0.6508444  3
    816    814    817    819     1  0.0000000  0.6508444  3
    817    814    813    835     1  0.0000000  0.6508444  3
    817    820    822    823     1  180.0000771  9.6232000  2
    818    817    820    821     1  0.0000000  3.3472000  1
    818    817    820    821     1  0.0000000  0.0000000  2
    818    817    820    821     1  180.0000771  0.3347200  3
    818    817    820    822     1  180.0000771  0.0000000  2
    819    817    820    821     1  0.0000000  3.3472000  1
    819    817    820    821     1  0.0000000  0.0000000  2
    819    817    820    821     1  180.0000771  0.3347200  3
    819    817    820    822     1  180.0000771  0.0000000  2
    821    820    822    823     1  0.0000000  7.9496000  1
    821    820    822    823     1  180.0000771  9.6232000  2
    825    824    813    835     1  0.0000000  0.6508444  3
    825    824    827    830     1  0.0000000  0.6508444  3
    825    824    827    828     1  0.0000000  0.6508444  3
    825    824    827    829     1  0.0000000  0.6508444  3
    826    824    813    835     1  0.0000000  0.6508444  3
    826    824    827    830     1  0.0000000  0.6508444  3
    826    824    827    828     1  0.0000000  0.6508444  3
    826    824    827    829     1  0.0000000  0.6508444  3
    827    824    813    835     1  0.0000000  0.6508444  3
    827    830    832    833     1  180.0000771  9.6232000  2
    828    827    830    831     1  0.0000000  3.3472000  1
    828    827    830    831     1  0.0000000  0.0000000  2
    828    827    830    831     1  180.0000771  0.3347200  3
    828    827    830    832     1  180.0000771  0.0000000  2
    829    827    830    831     1  0.0000000  3.3472000  1
    829    827    830    831     1  0.0000000  0.0000000  2
    829    827    830    831     1  180.0000771  0.3347200  3
    829    827    830    832     1  180.0000771  0.0000000  2
    831    830    832    833     1  0.0000000  7.9496000  1
    831    830    832    833     1  180.0000771  9.6232000  2
    836    839    842    843     1  0.0000000  0.6508444  3
    836    839    842    844     1  0.0000000  0.6508444  3
    837    836    839    842     1  0.0000000  0.6508444  3
    837    836    839    840     1  0.0000000  0.6508444  3
    837    836    839    841     1  0.0000000  0.6508444  3
    838    836    839    842     1  0.0000000  0.6508444  3
    838    836    839    840     1  0.0000000  0.6508444  3
    838    836    839    841     1  0.0000000  0.6508444  3
    839    842    845    867     1  0.0000000  0.6508444  3
    840    839    842    845     1  0.0000000  0.6508444  3
    840    839    842    843     1  0.0000000  0.6508444  3
    840    839    842    844     1  0.0000000  0.6508444  3
    840    839    836    866     1  0.0000000  1.0460000  1
    840    839    836    866     1  0.0000000  0.0000000  3
    841    839    842    845     1  0.0000000  0.6508444  3
    841    839    842    843     1  0.0000000  0.6508444  3
    841    839    842    844     1  0.0000000  0.6508444  3
    841    839    836    866     1  0.0000000  1.0460000  1
    841    839    836    866     1  0.0000000  0.0000000  3
    842    845    846    847     1  0.0000000  0.6508444  3
    842    845    846    848     1  0.0000000  0.6508444  3
    842    845    856    857     1  0.0000000  0.6508444  3
    842    845    856    858     1  0.0000000  0.6508444  3
    843    842    845    846     1  0.0000000  0.6508444  3
    843    842    845    856     1  0.0000000  0.6508444  3
    843    842    845    867     1  0.0000000  0.6508444  3
    844    842    845    846     1  0.0000000  0.6508444  3
    844    842    845    856     1  0.0000000  0.6508444  3
    844    842    845    867     1  0.0000000  0.6508444  3
    845    846    849    850     1  0.0000000  0.6508444  3
    845    846    849    851     1  0.0000000  0.6508444  3
    845    856    859    860     1  0.0000000  0.6508444  3
    845    856    859    861     1  0.0000000  0.6508444  3
    846    845    856    857     1  0.0000000  0.6508444  3
    846    845    856    858     1  0.0000000  0.6508444  3
    847    846    849    852     1  0.0000000  0.6508444  3
    847    846    849    850     1  0.0000000  0.6508444  3
    847    846    849    851     1  0.0000000  0.6508444  3
    847    846    845    856     1  0.0000000  0.6508444  3
    847    846    845    867     1  0.0000000  0.6508444  3
    848    846    849    852     1  0.0000000  0.6508444  3
    848    846    849    850     1  0.0000000  0.6508444  3
    848    846    849    851     1  0.0000000  0.6508444  3
    848    846    845    856     1  0.0000000  0.6508444  3
    848    846    845    867     1  0.0000000  0.6508444  3
    849    852    854    855     1  180.0000771  9.6232000  2
    849    846    845    867     1  0.0000000  0.6508444  3
    850    849    852    853     1  0.0000000  3.3472000  1
    850    849    852    853     1  0.0000000  0.0000000  2
    850    849    852    853     1  180.0000771  0.3347200  3
    850    849    852    854     1  180.0000771  0.0000000  2
    851    849    852    853     1  0.0000000  3.3472000  1
    851    849    852    853     1  0.0000000  0.0000000  2
    851    849    852    853     1  180.0000771  0.3347200  3
    851    849    852    854     1  180.0000771  0.0000000  2
    853    852    854    855     1  0.0000000  7.9496000  1
    853    852    854    855     1  180.0000771  9.6232000  2
    857    856    859    862     1  0.0000000  0.6508444  3
    857    856    859    860     1  0.0000000  0.6508444  3
    857    856    859    861     1  0.0000000  0.6508444  3
    857    856    845    867     1  0.0000000  0.6508444  3
    858    856    859    862     1  0.0000000  0.6508444  3
    858    856    859    860     1  0.0000000  0.6508444  3
    858    856    859    861     1  0.0000000  0.6508444  3
    858    856    845    867     1  0.0000000  0.6508444  3
    859    862    864    865     1  180.0000771  9.6232000  2
    859    856    845    867     1  0.0000000  0.6508444  3
    860    859    862    863     1  0.0000000  3.3472000  1
    860    859    862    863     1  0.0000000  0.0000000  2
    860    859    862    863     1  180.0000771  0.3347200  3
    860    859    862    864     1  180.0000771  0.0000000  2
    861    859    862    863     1  0.0000000  3.3472000  1
    861    859    862    863     1  0.0000000  0.0000000  2
    861    859    862    863     1  180.0000771  0.3347200  3
    861    859    862    864     1  180.0000771  0.0000000  2
    863    862    864    865     1  0.0000000  7.9496000  1
    863    862    864    865     1  180.0000771  9.6232000  2
    868    871    874    875     1  0.0000000  0.6508444  3
    868    871    874    876     1  0.0000000  0.6508444  3
    869    868    871    874     1  0.0000000  0.6508444  3
    869    868    871    872     1  0.0000000  0.6508444  3
    869    868    871    873     1  0.0000000  0.6508444  3
    870    868    871    874     1  0.0000000  0.6508444  3
    870    868    871    872     1  0.0000000  0.6508444  3
    870    868    871    873     1  0.0000000  0.6508444  3
    871    874    877    899     1  0.0000000  0.6508444  3
    872    871    868    898     1  0.0000000  1.0460000  1
    872    871    868    898     1  0.0000000  0.0000000  3
    872    871    874    877     1  0.0000000  0.6508444  3
    872    871    874    875     1  0.0000000  0.6508444  3
    872    871    874    876     1  0.0000000  0.6508444  3
    873    871    868    898     1  0.0000000  1.0460000  1
    873    871    868    898     1  0.0000000  0.0000000  3
    873    871    874    877     1  0.0000000  0.6508444  3
    873    871    874    875     1  0.0000000  0.6508444  3
    873    871    874    876     1  0.0000000  0.6508444  3
    874    877    878    879     1  0.0000000  0.6508444  3
    874    877    878    880     1  0.0000000  0.6508444  3
    874    877    888    889     1  0.0000000  0.6508444  3
    874    877    888    890     1  0.0000000  0.6508444  3
    875    874    877    878     1  0.0000000  0.6508444  3
    875    874    877    888     1  0.0000000  0.6508444  3
    875    874    877    899     1  0.0000000  0.6508444  3
    876    874    877    878     1  0.0000000  0.6508444  3
    876    874    877    888     1  0.0000000  0.6508444  3
    876    874    877    899     1  0.0000000  0.6508444  3
    877    878    881    882     1  0.0000000  0.6508444  3
    877    878    881    883     1  0.0000000  0.6508444  3
    877    888    891    892     1  0.0000000  0.6508444  3
    877    888    891    893     1  0.0000000  0.6508444  3
    878    877    888    889     1  0.0000000  0.6508444  3
    878    877    888    890     1  0.0000000  0.6508444  3
    879    878    877    888     1  0.0000000  0.6508444  3
    879    878    877    899     1  0.0000000  0.6508444  3
    879    878    881    884     1  0.0000000  0.6508444  3
    879    878    881    882     1  0.0000000  0.6508444  3
    879    878    881    883     1  0.0000000  0.6508444  3
    880    878    877    888     1  0.0000000  0.6508444  3
    880    878    877    899     1  0.0000000  0.6508444  3
    880    878    881    884     1  0.0000000  0.6508444  3
    880    878    881    882     1  0.0000000  0.6508444  3
    880    878    881    883     1  0.0000000  0.6508444  3
    881    878    877    899     1  0.0000000  0.6508444  3
    881    884    886    887     1  180.0000771  9.6232000  2
    882    881    884    885     1  0.0000000  3.3472000  1
    882    881    884    885     1  0.0000000  0.0000000  2
    882    881    884    885     1  180.0000771  0.3347200  3
    882    881    884    886     1  180.0000771  0.0000000  2
    883    881    884    885     1  0.0000000  3.3472000  1
    883    881    884    885     1  0.0000000  0.0000000  2
    883    881    884    885     1  180.0000771  0.3347200  3
    883    881    884    886     1  180.0000771  0.0000000  2
    885    884    886    887     1  0.0000000  7.9496000  1
    885    884    886    887     1  180.0000771  9.6232000  2
    889    888    877    899     1  0.0000000  0.6508444  3
    889    888    891    894     1  0.0000000  0.6508444  3
    889    888    891    892     1  0.0000000  0.6508444  3
    889    888    891    893     1  0.0000000  0.6508444  3
    890    888    877    899     1  0.0000000  0.6508444  3
    890    888    891    894     1  0.0000000  0.6508444  3
    890    888    891    892     1  0.0000000  0.6508444  3
    890    888    891    893     1  0.0000000  0.6508444  3
    891    888    877    899     1  0.0000000  0.6508444  3
    891    894    896    897     1  180.0000771  9.6232000  2
    892    891    894    895     1  0.0000000  3.3472000  1
    892    891    894    895     1  0.0000000  0.0000000  2
    892    891    894    895     1  180.0000771  0.3347200  3
    892    891    894    896     1  180.0000771  0.0000000  2
    893    891    894    895     1  0.0000000  3.3472000  1
    893    891    894    895     1  0.0000000  0.0000000  2
    893    891    894    895     1  180.0000771  0.3347200  3
    893    891    894    896     1  180.0000771  0.0000000  2
    895    894    896    897     1  0.0000000  7.9496000  1
    895    894    896    897     1  180.0000771  9.6232000  2
    900    903    906    907     1  0.0000000  0.6508444  3
    900    903    906    908     1  0.0000000  0.6508444  3
    901    900    903    906     1  0.0000000  0.6508444  3
    901    900    903    904     1  0.0000000  0.6508444  3
    901    900    903    905     1  0.0000000  0.6508444  3
    902    900    903    906     1  0.0000000  0.6508444  3
    902    900    903    904     1  0.0000000  0.6508444  3
    902    900    903    905     1  0.0000000  0.6508444  3
    903    906    909    931     1  0.0000000  0.6508444  3
    904    903    906    909     1  0.0000000  0.6508444  3
    904    903    906    907     1  0.0000000  0.6508444  3
    904    903    906    908     1  0.0000000  0.6508444  3
    904    903    900    930     1  0.0000000  1.0460000  1
    904    903    900    930     1  0.0000000  0.0000000  3
    905    903    906    909     1  0.0000000  0.6508444  3
    905    903    906    907     1  0.0000000  0.6508444  3
    905    903    906    908     1  0.0000000  0.6508444  3
    905    903    900    930     1  0.0000000  1.0460000  1
    905    903    900    930     1  0.0000000  0.0000000  3
    906    909    910    911     1  0.0000000  0.6508444  3
    906    909    910    912     1  0.0000000  0.6508444  3
    906    909    920    921     1  0.0000000  0.6508444  3
    906    909    920    922     1  0.0000000  0.6508444  3
    907    906    909    910     1  0.0000000  0.6508444  3
    907    906    909    920     1  0.0000000  0.6508444  3
    907    906    909    931     1  0.0000000  0.6508444  3
    908    906    909    910     1  0.0000000  0.6508444  3
    908    906    909    920     1  0.0000000  0.6508444  3
    908    906    909    931     1  0.0000000  0.6508444  3
    909    910    913    914     1  0.0000000  0.6508444  3
    909    910    913    915     1  0.0000000  0.6508444  3
    909    920    923    924     1  0.0000000  0.6508444  3
    909    920    923    925     1  0.0000000  0.6508444  3
    910    909    920    921     1  0.0000000  0.6508444  3
    910    909    920    922     1  0.0000000  0.6508444  3
    911    910    913    916     1  0.0000000  0.6508444  3
    911    910    913    914     1  0.0000000  0.6508444  3
    911    910    913    915     1  0.0000000  0.6508444  3
    911    910    909    920     1  0.0000000  0.6508444  3
    911    910    909    931     1  0.0000000  0.6508444  3
    912    910    913    916     1  0.0000000  0.6508444  3
    912    910    913    914     1  0.0000000  0.6508444  3
    912    910    913    915     1  0.0000000  0.6508444  3
    912    910    909    920     1  0.0000000  0.6508444  3
    912    910    909    931     1  0.0000000  0.6508444  3
    913    916    918    919     1  180.0000771  9.6232000  2
    913    910    909    931     1  0.0000000  0.6508444  3
    914    913    916    917     1  0.0000000  3.3472000  1
    914    913    916    917     1  0.0000000  0.0000000  2
    914    913    916    917     1  180.0000771  0.3347200  3
    914    913    916    918     1  180.0000771  0.0000000  2
    915    913    916    917     1  0.0000000  3.3472000  1
    915    913    916    917     1  0.0000000  0.0000000  2
    915    913    916    917     1  180.0000771  0.3347200  3
    915    913    916    918     1  180.0000771  0.0000000  2
    917    916    918    919     1  0.0000000  7.9496000  1
    917    916    918    919     1  180.0000771  9.6232000  2
    921    920    923    926     1  0.0000000  0.6508444  3
    921    920    923    924     1  0.0000000  0.6508444  3
    921    920    923    925     1  0.0000000  0.6508444  3
    921    920    909    931     1  0.0000000  0.6508444  3
    922    920    923    926     1  0.0000000  0.6508444  3
    922    920    923    924     1  0.0000000  0.6508444  3
    922    920    923    925     1  0.0000000  0.6508444  3
    922    920    909    931     1  0.0000000  0.6508444  3
    923    926    928    929     1  180.0000771  9.6232000  2
    923    920    909    931     1  0.0000000  0.6508444  3
    924    923    926    927     1  0.0000000  3.3472000  1
    924    923    926    927     1  0.0000000  0.0000000  2
    924    923    926    927     1  180.0000771  0.3347200  3
    924    923    926    928     1  180.0000771  0.0000000  2
    925    923    926    927     1  0.0000000  3.3472000  1
    925    923    926    927     1  0.0000000  0.0000000  2
    925    923    926    927     1  180.0000771  0.3347200  3
    925    923    926    928     1  180.0000771  0.0000000  2
    927    926    928    929     1  0.0000000  7.9496000  1
    927    926    928    929     1  180.0000771  9.6232000  2

;[ system ]
;; Name
;Generic title
;
;[ molecules ]
;; Compound       #mols
;system1              1
